# vtk DataFile Version 2.0
Test
ASCII
DATASET POLYDATA
POINTS 1445 float
0.000000 0.000000 0.000000
1.000000 0.000000 0.000000
1.000000 1.000000 0.000000
0.000000 1.000000 0.000000
0.000000 0.400000 0.000000
1.000000 0.600000 0.000000
0.029412 0.000000 0.000000
0.058824 0.000000 0.000000
0.088235 0.000000 0.000000
0.117647 0.000000 0.000000
0.147059 0.000000 0.000000
0.176471 0.000000 0.000000
0.205882 0.000000 0.000000
0.235294 0.000000 0.000000
0.264706 0.000000 0.000000
0.294118 0.000000 0.000000
0.323529 0.000000 0.000000
0.352941 0.000000 0.000000
0.382353 0.000000 0.000000
0.411765 0.000000 0.000000
0.441176 0.000000 0.000000
0.470588 0.000000 0.000000
0.500000 0.000000 0.000000
0.529412 0.000000 0.000000
0.558824 0.000000 0.000000
0.588235 0.000000 0.000000
0.617647 0.000000 0.000000
0.647059 0.000000 0.000000
0.676471 0.000000 0.000000
0.705882 0.000000 0.000000
0.735294 0.000000 0.000000
0.764706 0.000000 0.000000
0.794118 0.000000 0.000000
0.823529 0.000000 0.000000
0.852941 0.000000 0.000000
0.882353 0.000000 0.000000
0.911765 0.000000 0.000000
0.941176 0.000000 0.000000
0.970588 0.000000 0.000000
1.000000 0.030000 0.000000
1.000000 0.060000 0.000000
1.000000 0.090000 0.000000
1.000000 0.120000 0.000000
1.000000 0.150000 0.000000
1.000000 0.180000 0.000000
1.000000 0.210000 0.000000
1.000000 0.240000 0.000000
1.000000 0.270000 0.000000
1.000000 0.300000 0.000000
1.000000 0.330000 0.000000
1.000000 0.360000 0.000000
1.000000 0.390000 0.000000
1.000000 0.420000 0.000000
1.000000 0.450000 0.000000
1.000000 0.480000 0.000000
1.000000 0.510000 0.000000
1.000000 0.540000 0.000000
1.000000 0.570000 0.000000
1.000000 0.628571 0.000000
1.000000 0.657143 0.000000
1.000000 0.685714 0.000000
1.000000 0.714286 0.000000
1.000000 0.742857 0.000000
1.000000 0.771429 0.000000
1.000000 0.800000 0.000000
1.000000 0.828571 0.000000
1.000000 0.857143 0.000000
1.000000 0.885714 0.000000
1.000000 0.914286 0.000000
1.000000 0.942857 0.000000
1.000000 0.971429 0.000000
0.970588 1.000000 0.000000
0.941176 1.000000 0.000000
0.911765 1.000000 0.000000
0.882353 1.000000 0.000000
0.852941 1.000000 0.000000
0.823529 1.000000 0.000000
0.794118 1.000000 0.000000
0.764706 1.000000 0.000000
0.735294 1.000000 0.000000
0.705882 1.000000 0.000000
0.676471 1.000000 0.000000
0.647059 1.000000 0.000000
0.617647 1.000000 0.000000
0.588235 1.000000 0.000000
0.558824 1.000000 0.000000
0.529412 1.000000 0.000000
0.500000 1.000000 0.000000
0.470588 1.000000 0.000000
0.441176 1.000000 0.000000
0.411765 1.000000 0.000000
0.382353 1.000000 0.000000
0.352941 1.000000 0.000000
0.323529 1.000000 0.000000
0.294118 1.000000 0.000000
0.264706 1.000000 0.000000
0.235294 1.000000 0.000000
0.205882 1.000000 0.000000
0.176471 1.000000 0.000000
0.147059 1.000000 0.000000
0.117647 1.000000 0.000000
0.088235 1.000000 0.000000
0.058824 1.000000 0.000000
0.029412 1.000000 0.000000
0.000000 0.970000 0.000000
0.000000 0.940000 0.000000
0.000000 0.910000 0.000000
0.000000 0.880000 0.000000
0.000000 0.850000 0.000000
0.000000 0.820000 0.000000
0.000000 0.790000 0.000000
0.000000 0.760000 0.000000
0.000000 0.730000 0.000000
0.000000 0.700000 0.000000
0.000000 0.670000 0.000000
0.000000 0.640000 0.000000
0.000000 0.610000 0.000000
0.000000 0.580000 0.000000
0.000000 0.550000 0.000000
0.000000 0.520000 0.000000
0.000000 0.490000 0.000000
0.000000 0.460000 0.000000
0.000000 0.430000 0.000000
0.000000 0.371429 0.000000
0.000000 0.342857 0.000000
0.000000 0.314286 0.000000
0.000000 0.285714 0.000000
0.000000 0.257143 0.000000
0.000000 0.228571 0.000000
0.000000 0.200000 0.000000
0.000000 0.171429 0.000000
0.000000 0.142857 0.000000
0.000000 0.114286 0.000000
0.000000 0.085714 0.000000
0.000000 0.057143 0.000000
0.000000 0.028571 0.000000
0.029412 0.405882 0.000000
0.058824 0.411765 0.000000
0.088235 0.417647 0.000000
0.117647 0.423529 0.000000
0.147059 0.429412 0.000000
0.176471 0.435294 0.000000
0.205882 0.441176 0.000000
0.235294 0.447059 0.000000
0.264706 0.452941 0.000000
0.294118 0.458824 0.000000
0.323529 0.464706 0.000000
0.352941 0.470588 0.000000
0.382353 0.476471 0.000000
0.411765 0.482353 0.000000
0.441176 0.488235 0.000000
0.470588 0.494118 0.000000
0.500000 0.500000 0.000000
0.529412 0.505882 0.000000
0.558824 0.511765 0.000000
0.588235 0.517647 0.000000
0.617647 0.523529 0.000000
0.647059 0.529412 0.000000
0.676471 0.535294 0.000000
0.705882 0.541176 0.000000
0.735294 0.547059 0.000000
0.764706 0.552941 0.000000
0.794118 0.558824 0.000000
0.823529 0.564706 0.000000
0.852941 0.570588 0.000000
0.882353 0.576471 0.000000
0.911765 0.582353 0.000000
0.941176 0.588235 0.000000
0.970588 0.594118 0.000000
0.948492 0.617586 0.000000
0.918239 0.609871 0.000000
0.126115 0.454845 0.000000
0.100318 0.465379 0.000000
0.103006 0.442114 0.000000
0.117916 0.480680 0.000000
0.029145 0.895585 0.000000
0.046774 0.918032 0.000000
0.024990 0.926329 0.000000
0.056315 0.899171 0.000000
0.977770 0.695981 0.000000
0.963577 0.714729 0.000000
0.973827 0.736127 0.000000
0.605253 0.549394 0.000000
0.579370 0.549801 0.000000
0.570019 0.533816 0.000000
0.896809 0.971959 0.000000
0.919426 0.957680 0.000000
0.927686 0.976215 0.000000
0.899487 0.944624 0.000000
0.974081 0.924646 0.000000
0.977161 0.898750 0.000000
0.076578 0.973587 0.000000
0.102577 0.974440 0.000000
0.861693 0.698664 0.000000
0.848870 0.723174 0.000000
0.839521 0.701504 0.000000
0.820447 0.720618 0.000000
0.872237 0.675719 0.000000
0.882611 0.694724 0.000000
0.895344 0.672729 0.000000
0.606326 0.947716 0.000000
0.624868 0.973015 0.000000
0.599776 0.977307 0.000000
0.167986 0.944019 0.000000
0.199183 0.948746 0.000000
0.187884 0.972901 0.000000
0.787752 0.856005 0.000000
0.754801 0.854462 0.000000
0.778588 0.832828 0.000000
0.191471 0.922393 0.000000
0.801312 0.812216 0.000000
0.829867 0.817276 0.000000
0.805526 0.837896 0.000000
0.812775 0.791772 0.000000
0.822869 0.769821 0.000000
0.833826 0.791773 0.000000
0.849982 0.772760 0.000000
0.791421 0.791198 0.000000
0.772962 0.808877 0.000000
0.180049 0.621172 0.000000
0.160680 0.621098 0.000000
0.172158 0.598185 0.000000
0.588124 0.962489 0.000000
0.142171 0.602810 0.000000
0.827587 0.748015 0.000000
0.859778 0.745080 0.000000
0.882413 0.743965 0.000000
0.872759 0.762938 0.000000
0.894601 0.765041 0.000000
0.910115 0.745588 0.000000
0.901004 0.726420 0.000000
0.877058 0.719626 0.000000
0.632694 0.945006 0.000000
0.818411 0.883232 0.000000
0.787667 0.883633 0.000000
0.812018 0.862064 0.000000
0.808649 0.907835 0.000000
0.066636 0.534974 0.000000
0.083909 0.552665 0.000000
0.058224 0.565435 0.000000
0.037551 0.542621 0.000000
0.025720 0.565794 0.000000
0.304619 0.971425 0.000000
0.276072 0.975195 0.000000
0.284125 0.946285 0.000000
0.795087 0.737757 0.000000
0.797357 0.768346 0.000000
0.869843 0.656802 0.000000
0.840870 0.648068 0.000000
0.865462 0.630915 0.000000
0.043233 0.441011 0.000000
0.028792 0.469222 0.000000
0.020751 0.443790 0.000000
0.846918 0.676414 0.000000
0.058991 0.463368 0.000000
0.051906 0.966804 0.000000
0.071758 0.947609 0.000000
0.048298 0.939447 0.000000
0.026398 0.956010 0.000000
0.967109 0.949068 0.000000
0.946807 0.928411 0.000000
0.940173 0.953295 0.000000
0.956764 0.974357 0.000000
0.076722 0.471546 0.000000
0.082324 0.449317 0.000000
0.066669 0.435847 0.000000
0.114035 0.946088 0.000000
0.091278 0.952186 0.000000
0.128453 0.974235 0.000000
0.027019 0.501643 0.000000
0.047138 0.487417 0.000000
0.943388 0.639892 0.000000
0.923239 0.630552 0.000000
0.974491 0.618278 0.000000
0.972785 0.673666 0.000000
0.943930 0.664809 0.000000
0.968693 0.642530 0.000000
0.780685 0.976970 0.000000
0.756289 0.951349 0.000000
0.776857 0.951460 0.000000
0.935276 0.890540 0.000000
0.927168 0.867561 0.000000
0.954227 0.882176 0.000000
0.745760 0.974977 0.000000
0.952002 0.907568 0.000000
0.068063 0.489215 0.000000
0.051512 0.513895 0.000000
0.027757 0.982136 0.000000
0.023217 0.525632 0.000000
0.982410 0.972952 0.000000
0.951072 0.692907 0.000000
0.957020 0.857438 0.000000
0.937630 0.840379 0.000000
0.966912 0.834149 0.000000
0.923427 0.933924 0.000000
0.982257 0.848323 0.000000
0.092881 0.488189 0.000000
0.976737 0.871201 0.000000
0.067960 0.921895 0.000000
0.886538 0.603532 0.000000
0.918896 0.656866 0.000000
0.898227 0.636966 0.000000
0.092880 0.930380 0.000000
0.929071 0.911440 0.000000
0.081137 0.510877 0.000000
0.592772 0.576158 0.000000
0.150419 0.835159 0.000000
0.138607 0.859733 0.000000
0.125762 0.835294 0.000000
0.155304 0.458505 0.000000
0.139466 0.476317 0.000000
0.134858 0.496115 0.000000
0.109061 0.504849 0.000000
0.112238 0.859343 0.000000
0.866826 0.974780 0.000000
0.026919 0.865848 0.000000
0.348411 0.871602 0.000000
0.339654 0.840899 0.000000
0.369544 0.848927 0.000000
0.925986 0.818235 0.000000
0.909684 0.842117 0.000000
0.929360 0.717495 0.000000
0.924028 0.685311 0.000000
0.879688 0.955544 0.000000
0.875200 0.929284 0.000000
0.903901 0.918287 0.000000
0.950764 0.819790 0.000000
0.047492 0.878635 0.000000
0.069665 0.880314 0.000000
0.081712 0.904992 0.000000
0.573454 0.980624 0.000000
0.556694 0.550113 0.000000
0.094318 0.530060 0.000000
0.563246 0.571677 0.000000
0.563825 0.961795 0.000000
0.155902 0.972929 0.000000
0.577162 0.940912 0.000000
0.545227 0.533787 0.000000
0.864670 0.884377 0.000000
0.860690 0.911575 0.000000
0.840756 0.895862 0.000000
0.137227 0.926016 0.000000
0.139814 0.950758 0.000000
0.109156 0.913646 0.000000
0.884976 0.899786 0.000000
0.910807 0.890052 0.000000
0.830819 0.844574 0.000000
0.157710 0.484545 0.000000
0.180718 0.468069 0.000000
0.154331 0.510861 0.000000
0.124262 0.522394 0.000000
0.341085 0.732964 0.000000
0.323736 0.758404 0.000000
0.312899 0.730066 0.000000
0.857321 0.949854 0.000000
0.839840 0.975483 0.000000
0.053549 0.857833 0.000000
0.031143 0.832960 0.000000
0.840338 0.925315 0.000000
0.300796 0.756054 0.000000
0.080783 0.856286 0.000000
0.096939 0.884378 0.000000
0.544800 0.977874 0.000000
0.949430 0.731579 0.000000
0.955247 0.752582 0.000000
0.934712 0.748859 0.000000
0.030153 0.591093 0.000000
[...]
POINT_DATA 1445
SCALARS UX float 1
LOOKUP_TABLE default
-0.077571
-0.000000
0.000000
-0.077571
-0.077571
0.000000
-0.075290
-0.073008
-0.070727
-0.068445
-0.066164
-0.063882
-0.061601
-0.059319
-0.057038
-0.054756
-0.052475
-0.050193
-0.047912
-0.045630
-0.043349
-0.041067
-0.038786
-0.036504
-0.034223
-0.031941
-0.029660
-0.027378
-0.025097
-0.022815
-0.020534
-0.018252
-0.015971
-0.013689
-0.011408
-0.009126
-0.006845
-0.004563
-0.002282
-0.000000
-0.000000
-0.000000
-0.000000
-0.000000
-0.000000
-0.000000
-0.000000
-0.000000
-0.000000
-0.000000
-0.000000
-0.000000
-0.000000
-0.000000
-0.000000
-0.000000
0.000000
0.000000
-0.000000
-0.000000
0.000000
-0.000000
-0.000000
-0.000000
-0.000000
0.000000
-0.000000
0.000000
-0.000000
0.000000
-0.000000
-0.002282
-0.004563
-0.006845
-0.009126
-0.011408
-0.013689
-0.015971
-0.018252
-0.020534
-0.022815
-0.025097
-0.027378
-0.029660
-0.031941
-0.034223
-0.036504
-0.038786
-0.041067
-0.043349
-0.045630
-0.047912
-0.050193
-0.052475
-0.054756
-0.057038
-0.059319
-0.061601
-0.063882
-0.066164
-0.068445
-0.070727
-0.073008
-0.075290
-0.077571
-0.077571
-0.077571
-0.077571
-0.077571
-0.077571
-0.077571
-0.077571
-0.077571
-0.077571
-0.077571
-0.077571
-0.077571
-0.077571
-0.077571
-0.077571
-0.077571
-0.077571
-0.077571
-0.077571
-0.077571
-0.077571
-0.077571
-0.077571
-0.077571
-0.077571
-0.077571
-0.077571
-0.077571
-0.077571
-0.077571
-0.077571
-0.075290
-0.073008
-0.070727
-0.068445
-0.066164
-0.063882
-0.061601
-0.059319
-0.057038
-0.054756
-0.052475
-0.050193
-0.047912
-0.045630
-0.043349
-0.041067
-0.038786
-0.036504
-0.034223
-0.031941
-0.029660
-0.027378
-0.025097
-0.022815
-0.020534
-0.018252
-0.015971
-0.013689
-0.011408
-0.009126
-0.006845
-0.004563
-0.002282
-0.003996
-0.006342
-0.067788
-0.069790
-0.069581
-0.068424
-0.075311
-0.073943
-0.075633
-0.073203
-0.001724
-0.002825
-0.002030
-0.030621
-0.032629
-0.033354
-0.008005
-0.006250
-0.005610
-0.007797
-0.002011
-0.001772
-0.071631
-0.069614
-0.010729
-0.011723
-0.012449
-0.013928
-0.009911
-0.009106
-0.008118
-0.030538
-0.029100
-0.031046
-0.064541
-0.062120
-0.062997
-0.016464
-0.019020
-0.017175
-0.062719
-0.015412
-0.013197
-0.015086
-0.014523
-0.013740
-0.012890
-0.011637
-0.016180
-0.017612
-0.063605
-0.065107
-0.064217
-0.031950
-0.066543
-0.013374
-0.010877
-0.009121
-0.009870
-0.008176
-0.006973
-0.007679
-0.009537
-0.028492
-0.014086
-0.016471
-0.014582
-0.014843
-0.072402
-0.071062
-0.073055
-0.074658
-0.075576
-0.053942
-0.056156
-0.055531
-0.015895
-0.015719
-0.010096
-0.012344
-0.010436
-0.074218
-0.075338
-0.075962
-0.011875
-0.072995
-0.073545
-0.072005
-0.073825
-0.075524
-0.002551
-0.004126
-0.004641
-0.003354
-0.071620
-0.071185
-0.072400
-0.068726
-0.070491
-0.067607
-0.075475
-0.073915
-0.004391
-0.005954
-0.001979
-0.002111
-0.004349
-0.002429
-0.017013
-0.018905
-0.017310
-0.005021
-0.005650
-0.003551
-0.019722
-0.003723
-0.072292
-0.073576
-0.075418
-0.075770
-0.001364
-0.003795
-0.003334
-0.004838
-0.002567
-0.005940
-0.001376
-0.070367
-0.001805
-0.072300
-0.008801
-0.006291
-0.007895
-0.070367
-0.005502
-0.071278
-0.031589
-0.065903
-0.066819
-0.067816
-0.065524
-0.066753
-0.067110
-0.069111
-0.068865
-0.010330
-0.075483
-0.050545
-0.051224
-0.048905
-0.005741
-0.007006
-0.005480
-0.005893
-0.009333
-0.009681
-0.007455
-0.003819
-0.073887
-0.072167
-0.071233
-0.033088
-0.034388
-0.070255
-0.033880
-0.033835
-0.065478
-0.032800
-0.035277
-0.010498
-0.010807
-0.012353
-0.066926
-0.066726
-0.069104
-0.008923
-0.006919
-0.013124
-0.065338
-0.063553
-0.065600
-0.067932
-0.051113
-0.052459
-0.053299
-0.011068
-0.012424
-0.073418
-0.075156
-0.012385
-0.054238
-0.071305
-0.070052
-0.035310
-0.003923
-0.003472
-0.005064
-0.075232
-0.070489
-0.069042
-0.006314
-0.040723
-0.040523
-0.042970
-0.042340
-0.065144
-0.067319
-0.016372
-0.018042
-0.063362
-0.060982
-0.063561
-0.066475
-0.002032
-0.004193
-0.002043
-0.072507
-0.075824
-0.070015
-0.008285
-0.056847
-0.058425
-0.057316
-0.072771
-0.074850
-0.059120
-0.067839
-0.068986
-0.054786
-0.056557
-0.054554
-0.050263
-0.051717
-0.052328
-0.049947
-0.060281
-0.054225
-0.052846
-0.063101
-0.053257
-0.054109
-0.055261
-0.056594
-0.061216
-0.051565
-0.050379
-0.068703
-0.068232
-0.070522
-0.062264
-0.064830
-0.059048
-0.055233
-0.054176
-0.052192
-0.056261
-0.057447
-0.072128
-0.058585
-0.075523
-0.009020
-0.010358
-0.011085
-0.055345
-0.053271
-0.051909
-0.057800
-0.055907
-0.058799
-0.056399
-0.054048
-0.058854
-0.006121
-0.057030
-0.007784
-0.057243
-0.058870
-0.057151
-0.058747
-0.056554
-0.060033
-0.056826
-0.058637
-0.060076
-0.052956
-0.052658
-0.055199
-0.050823
-0.050973
-0.075309
-0.073745
-0.073049
-0.071881
-0.063211
-0.060974
-0.061304
-0.054436
-0.057307
-0.056359
-0.062639
-0.061866
-0.058317
-0.060475
-0.067964
-0.069786
-0.070297
-0.070631
-0.065561
-0.065462
-0.063405
-0.065516
-0.066839
-0.066874
-0.057899
-0.060065
-0.058966
-0.058255
-0.063229
-0.064448
-0.065165
-0.074206
-0.053386
-0.051043
-0.051796
-0.060780
-0.058354
-0.059623
-0.073598
-0.068235
-0.069939
-0.068531
-0.070869
-0.058787
-0.049523
-0.018306
-0.018016
-0.020422
-0.071710
-0.072291
-0.019925
-0.001962
-0.062240
-0.063576
-0.061036
-0.004226
-0.064561
-0.048752
-0.049596
-0.070140
-0.073706
-0.014814
-0.017109
-0.015303
-0.016582
-0.062909
-0.052127
-0.062303
-0.020838
-0.018444
-0.020205
-0.046952
-0.046176
-0.075603
-0.048026
-0.026929
-0.026425
-0.029198
-0.028710
-0.061018
-0.012261
-0.070581
-0.060042
-0.065223
-0.009517
-0.015489
-0.061223
-0.053246
-0.053458
-0.051696
-0.010921
-0.031220
-0.033368
-0.032861
-0.030746
-0.019234
-0.017991
-0.020588
-0.019084
-0.035152
-0.075263
-0.035483
-0.049820
-0.047516
-0.066588
-0.022033
-0.021595
-0.064531
-0.050870
-0.019457
-0.024766
-0.024241
-0.045491
-0.046865
-0.044472
-0.061263
-0.011165
-0.034503
-0.035902
-0.034251
-0.035087
-0.036598
-0.030392
-0.032533
-0.030960
-0.032012
-0.032788
-0.028392
-0.028743
-0.029714
-0.055192
-0.056978
-0.022527
-0.024038
-0.023940
-0.022536
-0.021107
-0.017732
-0.026102
-0.026466
-0.027421
-0.025189
-0.008471
-0.007636
-0.012747
-0.014300
-0.047606
-0.050145
-0.048244
-0.049399
-0.049349
-0.048427
-0.017814
-0.019700
-0.017496
-0.020153
-0.021993
-0.021626
-0.046402
-0.046956
-0.021358
-0.021924
-0.020712
-0.019329
-0.021551
-0.022514
-0.023879
-0.017797
-0.013297
-0.044413
-0.043705
-0.045544
-0.044175
-0.041847
-0.042892
-0.019749
-0.022083
-0.052368
-0.023237
-0.022720
-0.045067
-0.055976
-0.054264
-0.048619
-0.045134
-0.046724
-0.014161
-0.045206
-0.045824
-0.046944
-0.024344
-0.023817
-0.044016
-0.044547
-0.026102
-0.024825
-0.026165
-0.039216
-0.041304
-0.039365
-0.040873
-0.024456
-0.023782
-0.037658
-0.037134
-0.039365
-0.022039
-0.022958
-0.042860
-0.043466
-0.044584
-0.042706
-0.043185
-0.046271
-0.014606
-0.027111
-0.028455
-0.041676
-0.042211
-0.075488
-0.072987
-0.068377
-0.068661
-0.040540
-0.041126
-0.042265
-0.015609
-0.066348
-0.038229
-0.038819
-0.074720
-0.039946
-0.043958
-0.028392
-0.026691
-0.016372
-0.039357
-0.067214
-0.039891
-0.035921
-0.036491
-0.025563
-0.025023
-0.054390
-0.037049
-0.037586
-0.013442
-0.041658
-0.042013
-0.034741
-0.035293
-0.034187
-0.032439
-0.032989
-0.052381
-0.029403
-0.030751
-0.026758
-0.026209
-0.061734
-0.069325
-0.030688
-0.028983
-0.025674
-0.023376
-0.024328
-0.031888
-0.030142
-0.029826
-0.032121
-0.072282
-0.054456
-0.034414
-0.033050
-0.038107
-0.036727
-0.038961
-0.037646
-0.027535
-0.028901
-0.029044
-0.031333
-0.029593
-0.027850
-0.066543
-0.025247
-0.027307
-0.016043
-0.060200
-0.037578
-0.037394
-0.026613
-0.033619
-0.035352
-0.031700
-0.038779
-0.038651
-0.040454
-0.038163
-0.075870
-0.035182
-0.049214
-0.048152
-0.027728
-0.021079
-0.031280
-0.018861
-0.033999
-0.033580
-0.036298
-0.035875
-0.038488
-0.043901
-0.045697
-0.044998
-0.029559
-0.038803
-0.037018
-0.038369
-0.040511
-0.040821
-0.039952
-0.040272
-0.023088
-0.062347
-0.060689
-0.023748
-0.048563
-0.047454
-0.044053
-0.042913
-0.042549
-0.025014
-0.045392
-0.063487
-0.041540
-0.014503
-0.026236
-0.047000
-0.046545
-0.036999
-0.036196
-0.047930
-0.040011
-0.027483
-0.049104
-0.042135
-0.050593
-0.065016
-0.073576
-0.071229
-0.009783
-0.007782
-0.007990
-0.009147
-0.002261
-0.003628
-0.001939
-0.004368
-0.075847
-0.074746
-0.075541
-0.046950
-0.044943
-0.044217
-0.069567
-0.071321
-0.071962
-0.069774
-0.075561
-0.075800
-0.005940
-0.007957
-0.066843
-0.065848
-0.065123
-0.063643
-0.067661
-0.068465
-0.069453
-0.047034
-0.048472
-0.046525
-0.013031
-0.015451
-0.014574
-0.061107
-0.058551
-0.060396
-0.014853
-0.062159
-0.064374
-0.062486
-0.063048
-0.063831
-0.064681
-0.065934
-0.061392
-0.059960
-0.013967
-0.012464
-0.013355
-0.045622
-0.011028
-0.064197
-0.066694
-0.068450
-0.067701
-0.069395
-0.070599
-0.069892
-0.068035
-0.049079
-0.063485
-0.061100
-0.062989
-0.062728
-0.005169
-0.006509
-0.004516
-0.002913
-0.001995
-0.023630
-0.021415
-0.022040
-0.061676
-0.061852
-0.067475
-0.065227
-0.067135
-0.003354
-0.002233
-0.001610
-0.065697
-0.004576
-0.004026
-0.005566
-0.003747
-0.002048
-0.075020
-0.073445
-0.072931
-0.074218
-0.005951
-0.006386
-0.005172
-0.008846
-0.007081
-0.009964
-0.002096
-0.003657
-0.073180
-0.071617
-0.075593
-0.075460
-0.073222
-0.075143
-0.060559
-0.058666
-0.060262
-0.072551
-0.071922
-0.074021
-0.057850
-0.073848
-0.005280
-0.003996
-0.002153
-0.001801
-0.076207
-0.073776
-0.074237
-0.072733
-0.075005
-0.071632
-0.076195
-0.007205
-0.075767
-0.005272
-0.068770
-0.071280
-0.069677
-0.007205
-0.072069
-0.006294
-0.045982
-0.011668
-0.010752
-0.009756
-0.012047
-0.010819
-0.010461
-0.008460
-0.008706
-0.067241
-0.002088
-0.027027
-0.026347
-0.028666
-0.071830
-0.070565
-0.072092
-0.071678
-0.068239
-0.067890
-0.070117
-0.073752
-0.003684
-0.005404
-0.006339
-0.044484
-0.043184
-0.007316
-0.043692
-0.043737
-0.012094
-0.044771
-0.042294
-0.067074
-0.066765
-0.065219
-0.010645
-0.010846
-0.008467
-0.068649
-0.070653
-0.064448
-0.012234
-0.014019
-0.011972
-0.009639
-0.026458
-0.025113
-0.024272
-0.066504
-0.065148
-0.004154
-0.002416
-0.065186
-0.023333
-0.006266
-0.007520
-0.042261
-0.073649
-0.074100
-0.072507
-0.002339
-0.007083
-0.008530
-0.071257
-0.036849
-0.037048
-0.034601
-0.035231
-0.012427
-0.010253
-0.061199
-0.059530
-0.014209
-0.016589
-0.014011
-0.011096
-0.075539
-0.073379
-0.075529
-0.005065
-0.001747
-0.007556
-0.069286
-0.020724
-0.019147
-0.020256
-0.004800
-0.002722
-0.018452
-0.009733
-0.008586
-0.022785
-0.021014
-0.023017
-0.027309
-0.025855
-0.025243
-0.027624
-0.017290
-0.023346
-0.024725
-0.014470
-0.024315
-0.023463
-0.022311
-0.020978
-0.016355
-0.026007
-0.027192
-0.008869
-0.009339
-0.007049
-0.015308
-0.012742
-0.018524
-0.022338
-0.023395
-0.025380
-0.021311
-0.020124
-0.005443
-0.018986
-0.002049
-0.068552
-0.067213
-0.066486
-0.022227
-0.024301
-0.025662
-0.019771
-0.021664
-0.018772
-0.021172
-0.023523
-0.018717
-0.071450
-0.020542
-0.069788
-0.020329
-0.018701
-0.020421
-0.018825
-0.021018
-0.017538
-0.020746
-0.018934
-0.017496
-0.024615
-0.024913
-0.022372
-0.026749
-0.026599
-0.002262
-0.003827
-0.004523
-0.005691
-0.014361
-0.016597
-0.016267
-0.023136
-0.020265
-0.021212
-0.014932
-0.015706
-0.019254
-0.017097
-0.009607
-0.007785
-0.007274
-0.006941
-0.012010
-0.012109
-0.014167
-0.012056
-0.010733
-0.010698
-0.019672
-0.017506
-0.018606
-0.019316
-0.014343
-0.013123
-0.012406
-0.003366
-0.024186
-0.026529
-0.025775
-0.016791
-0.019217
-0.017948
-0.003974
-0.009337
-0.007633
-0.009040
-0.006702
-0.018784
-0.028048
-0.059265
-0.059555
-0.057149
-0.005861
-0.005281
-0.057646
-0.075610
-0.015332
-0.013995
-0.016536
-0.073345
-0.013010
-0.028819
-0.027975
-0.007431
-0.003865
-0.062758
-0.060463
-0.062268
-0.060990
-0.014662
-0.025444
-0.015268
-0.056734
-0.059127
-0.057366
-0.030620
-0.031395
-0.001968
-0.029546
-0.050643
-0.051147
-0.048374
-0.048862
-0.016553
-0.065310
-0.006990
-0.017529
-0.012349
-0.068054
-0.062083
-0.016348
-0.024326
-0.024113
-0.025875
-0.066651
-0.046351
-0.044204
-0.044710
-0.046826
-0.058337
-0.059580
-0.056983
-0.058487
-0.042419
-0.002309
-0.042088
-0.027752
-0.030055
-0.010983
-0.055539
-0.055976
-0.013041
-0.026702
-0.058115
-0.052806
-0.053331
-0.032080
-0.030707
-0.033099
-0.016309
-0.066407
-0.043068
-0.041670
-0.043321
-0.042484
-0.040973
-0.047179
-0.045038
-0.046612
-0.045560
-0.044783
-0.049179
-0.048828
-0.047857
-0.022380
-0.020593
-0.055044
-0.053533
-0.053631
-0.055036
-0.056464
-0.059839
-0.051470
-0.051105
-0.050151
-0.052383
-0.069101
-0.069936
-0.064825
-0.063271
-0.029965
-0.027426
-0.029327
-0.028173
-0.028222
-0.029145
-0.059757
-0.057871
-0.060075
-0.057418
-0.055578
-0.055945
-0.031169
-0.030616
-0.056214
-0.055648
-0.056860
-0.058243
-0.056021
-0.055058
-0.053692
-0.059774
-0.064275
-0.033158
-0.033866
-0.032027
-0.033396
-0.035724
-0.034679
-0.057822
-0.055488
-0.025203
-0.054334
-0.054851
-0.032504
-0.021596
-0.023307
-0.028952
-0.032438
-0.030848
-0.063410
-0.032365
-0.031747
-0.030627
-0.053228
-0.053754
-0.033555
-0.033025
-0.051469
-0.052746
-0.051406
-0.038356
-0.036267
-0.038206
-0.036698
-0.053116
-0.053790
-0.039913
-0.040437
-0.038206
-0.055532
-0.054614
-0.034711
-0.034105
-0.032988
-0.034865
-0.034387
-0.031300
-0.062965
-0.050461
-0.049116
-0.035896
-0.035360
-0.002084
-0.004585
-0.009194
-0.008911
-0.037031
-0.036446
-0.035307
-0.061962
-0.011224
-0.039343
-0.038752
-0.002852
-0.037625
-0.033613
-0.049179
-0.050880
-0.061200
-0.038214
-0.010358
-0.037680
-0.041650
-0.041080
-0.052008
-0.052549
-0.023181
-0.040522
-0.039985
-0.064130
-0.035913
-0.035559
-0.042830
-0.042279
-0.043384
-0.045132
-0.044583
-0.025190
-0.048168
-0.046821
-0.050813
-0.051362
-0.015837
-0.008246
-0.046883
-0.048588
-0.051898
-0.054196
-0.053244
-0.045683
-0.047429
-0.047746
-0.045450
-0.005289
-0.023115
-0.043157
-0.044522
-0.039464
-0.040844
-0.038611
-0.039925
-0.050036
-0.048670
-0.048528
-0.046238
-0.047978
-0.049721
-0.011028
-0.052325
-0.050264
-0.061528
-0.017371
-0.039994
-0.040177
-0.050958
-0.043953
-0.042220
-0.045872
-0.038793
-0.038921
-0.037118
-0.039409
-0.001701
-0.042389
-0.028357
-0.029419
-0.049843
-0.056493
-0.046291
-0.058711
-0.043573
-0.043991
-0.041274
-0.041696
-0.039084
-0.033671
-0.031874
-0.032574
-0.048013
-0.038768
-0.040553
-0.039203
-0.037060
-0.036750
-0.037619
-0.037300
-0.054483
-0.015224
-0.016882
-0.053823
-0.029008
-0.030118
-0.033518
-0.034658
-0.035023
-0.052557
-0.032179
-0.014085
-0.036032
-0.063068
-0.051335
-0.030571
-0.031026
-0.040572
-0.041375
-0.029641
-0.037561
-0.050088
-0.028467
-0.035437
-0.026978
-0.012555
SCALARS UY float 1
LOOKUP_TABLE default
-0.000000
-0.000000
-0.181000
-0.181000
-0.072400
-0.108600
-0.000000
-0.000000
-0.000000
-0.000000
-0.000000
-0.000000
-0.000000
-0.000000
-0.000000
-0.000000
-0.000000
-0.000000
-0.000000
-0.000000
-0.000000
-0.000000
-0.000000
-0.000000
-0.000000
-0.000000
-0.000000
-0.000000
-0.000000
-0.000000
-0.000000
-0.000000
-0.000000
-0.000000
-0.000000
-0.000000
-0.000000
-0.000000
-0.000000
-0.005430
-0.010860
-0.016290
-0.021720
-0.027150
-0.032580
-0.038010
-0.043440
-0.048870
-0.054300
-0.059730
-0.065160
-0.070590
-0.076020
-0.081450
-0.086880
-0.092310
-0.097740
-0.103170
-0.113771
-0.118943
-0.124114
-0.129286
-0.134457
-0.139629
-0.144800
-0.149971
-0.155143
-0.160314
-0.165486
-0.170657
-0.175829
-0.181000
-0.181000
-0.181000
-0.181000
-0.181000
-0.181000
-0.181000
-0.181000
-0.181000
-0.181000
-0.181000
-0.181000
-0.181000
-0.181000
-0.181000
-0.181000
-0.181000
-0.181000
-0.181000
-0.181000
-0.181000
-0.181000
-0.181000
-0.181000
-0.181000
-0.181000
-0.181000
-0.181000
-0.181000
-0.181000
-0.181000
-0.181000
-0.181000
-0.175570
-0.170140
-0.164710
-0.159280
-0.153850
-0.148420
-0.142990
-0.137560
-0.132130
-0.126700
-0.121270
-0.115840
-0.110410
-0.104980
-0.099550
-0.094120
-0.088690
-0.083260
-0.077830
-0.067229
-0.062057
-0.056886
-0.051714
-0.046543
-0.041371
-0.036200
-0.031029
-0.025857
-0.020686
-0.015514
-0.010343
-0.005171
-0.073465
-0.074529
-0.075594
-0.076659
-0.077724
-0.078788
-0.079853
-0.080918
-0.081982
-0.083047
-0.084112
-0.085176
-0.086241
-0.087306
-0.088371
-0.089435
-0.090500
-0.091565
-0.092629
-0.093694
-0.094759
-0.095824
-0.096888
-0.097953
-0.099018
-0.100082
-0.101147
-0.102212
-0.103276
-0.104341
-0.105406
-0.106471
-0.107535
-0.111783
-0.110387
-0.082327
-0.084234
-0.080023
-0.087003
-0.162101
-0.166164
-0.167666
-0.162750
-0.125973
-0.129366
-0.133239
-0.099440
-0.099514
-0.096621
-0.175925
-0.173340
-0.176695
-0.170977
-0.167361
-0.162674
-0.176219
-0.176374
-0.126458
-0.130895
-0.126972
-0.130432
-0.122305
-0.125745
-0.121764
-0.171537
-0.176116
-0.176893
-0.170867
-0.171723
-0.176095
-0.154937
-0.154658
-0.150742
-0.166953
-0.147011
-0.147927
-0.151659
-0.143311
-0.139338
-0.143311
-0.139869
-0.143207
-0.146407
-0.112432
-0.112419
-0.108272
-0.174210
-0.109109
-0.135391
-0.134859
-0.134658
-0.138092
-0.138472
-0.134951
-0.131482
-0.130252
-0.171046
-0.159865
-0.159938
-0.156034
-0.164318
-0.096830
-0.100032
-0.102344
-0.098214
-0.102409
-0.175828
-0.176510
-0.171278
-0.133534
-0.139071
-0.118881
-0.117300
-0.114196
-0.079823
-0.084929
-0.080326
-0.122431
-0.083870
-0.174991
-0.171517
-0.170040
-0.173038
-0.171781
-0.168042
-0.172546
-0.176359
-0.085350
-0.081326
-0.078888
-0.171242
-0.172346
-0.176336
-0.090797
-0.088222
-0.115820
-0.114130
-0.111908
-0.121934
-0.120330
-0.116298
-0.176832
-0.172194
-0.172214
-0.161188
-0.157029
-0.159674
-0.176471
-0.164270
-0.088548
-0.093015
-0.177767
-0.095139
-0.176104
-0.125416
-0.155196
-0.152109
-0.150981
-0.169040
-0.153546
-0.088362
-0.157687
-0.166863
-0.109239
-0.118893
-0.115291
-0.168399
-0.164971
-0.092469
-0.104285
-0.151164
-0.155612
-0.151188
-0.082989
-0.086213
-0.089797
-0.091378
-0.155541
-0.176435
-0.156718
-0.157760
-0.152203
-0.153656
-0.148101
-0.152423
-0.129867
-0.124041
-0.172953
-0.168200
-0.166210
-0.148382
-0.159033
-0.159337
-0.163804
-0.177493
-0.099570
-0.095941
-0.103474
-0.174085
-0.176100
-0.170305
-0.096616
-0.160072
-0.164995
-0.162151
-0.167609
-0.172087
-0.165370
-0.162861
-0.161099
-0.152868
-0.087703
-0.084720
-0.092466
-0.094553
-0.132667
-0.137271
-0.132142
-0.171924
-0.176562
-0.155268
-0.150766
-0.167482
-0.136846
-0.154988
-0.160072
-0.176995
-0.132416
-0.136217
-0.135543
-0.106988
-0.104916
-0.099501
-0.139687
-0.094554
-0.099600
-0.098494
-0.093320
-0.164991
-0.161095
-0.167909
-0.168613
-0.089934
-0.086103
-0.096281
-0.098238
-0.146681
-0.144477
-0.142487
-0.150765
-0.146094
-0.150380
-0.157196
-0.100019
-0.099200
-0.096175
-0.108675
-0.113110
-0.095206
-0.103692
-0.108985
-0.100675
-0.104796
-0.106297
-0.112604
-0.116299
-0.111928
-0.118494
-0.175559
-0.111452
-0.107687
-0.160988
-0.141775
-0.146994
-0.141367
-0.146365
-0.092356
-0.141208
-0.137330
-0.127470
-0.132670
-0.130914
-0.100952
-0.103050
-0.089662
-0.131747
-0.128136
-0.127448
-0.135986
-0.130963
-0.114497
-0.135705
-0.118876
-0.152967
-0.156295
-0.151457
-0.151622
-0.151836
-0.146966
-0.110042
-0.109395
-0.104463
-0.114386
-0.116925
-0.115231
-0.143713
-0.091738
-0.142394
-0.140307
-0.148788
-0.151333
-0.153994
-0.155995
-0.120854
-0.120751
-0.125650
-0.130634
-0.097053
-0.102655
-0.094805
-0.099930
-0.094206
-0.124479
-0.121404
-0.125307
-0.120549
-0.130958
-0.135953
-0.125909
-0.166153
-0.167641
-0.161616
-0.121073
-0.115375
-0.158974
-0.158726
-0.137299
-0.140075
-0.135961
-0.126273
-0.135027
-0.140196
-0.137921
-0.144294
-0.142251
-0.146518
-0.172909
-0.169140
-0.163422
-0.177460
-0.126283
-0.121980
-0.125542
-0.129269
-0.171133
-0.175029
-0.167892
-0.145415
-0.144136
-0.140454
-0.146241
-0.112505
-0.113525
-0.116781
-0.110160
-0.084965
-0.148217
-0.136895
-0.141820
-0.140334
-0.146573
-0.140856
-0.145094
-0.137692
-0.155297
-0.150524
-0.150983
-0.140123
-0.155844
-0.133452
-0.128355
-0.144624
-0.117383
-0.115802
-0.114167
-0.111045
-0.119005
-0.104811
-0.121013
-0.109222
-0.158149
-0.159045
-0.162494
-0.129282
-0.134323
-0.076396
-0.138669
-0.100891
-0.106151
-0.105208
-0.099182
-0.104484
-0.156935
-0.117474
-0.100137
-0.160271
-0.142006
-0.172829
-0.096949
-0.091787