# vtk DataFile Version 2.0
Test
ASCII
DATASET POLYDATA
POINTS 1445 float
0.000000 0.000000 0.000000
1.000000 0.000000 0.000000
1.000000 1.000000 0.000000
0.000000 1.000000 0.000000
0.000000 0.400000 0.000000
1.000000 0.600000 0.000000
0.029412 0.000000 0.000000
0.058824 0.000000 0.000000
0.088235 0.000000 0.000000
0.117647 0.000000 0.000000
0.147059 0.000000 0.000000
0.176471 0.000000 0.000000
0.205882 0.000000 0.000000
0.235294 0.000000 0.000000
0.264706 0.000000 0.000000
0.294118 0.000000 0.000000
0.323529 0.000000 0.000000
0.352941 0.000000 0.000000
0.382353 0.000000 0.000000
0.411765 0.000000 0.000000
0.441176 0.000000 0.000000
0.470588 0.000000 0.000000
0.500000 0.000000 0.000000
0.529412 0.000000 0.000000
0.558824 0.000000 0.000000
0.588235 0.000000 0.000000
0.617647 0.000000 0.000000
0.647059 0.000000 0.000000
0.676471 0.000000 0.000000
0.705882 0.000000 0.000000
0.735294 0.000000 0.000000
0.764706 0.000000 0.000000
0.794118 0.000000 0.000000
0.823529 0.000000 0.000000
0.852941 0.000000 0.000000
0.882353 0.000000 0.000000
0.911765 0.000000 0.000000
0.941176 0.000000 0.000000
0.970588 0.000000 0.000000
1.000000 0.030000 0.000000
1.000000 0.060000 0.000000
1.000000 0.090000 0.000000
1.000000 0.120000 0.000000
1.000000 0.150000 0.000000
1.000000 0.180000 0.000000
1.000000 0.210000 0.000000
1.000000 0.240000 0.000000
1.000000 0.270000 0.000000
1.000000 0.300000 0.000000
1.000000 0.330000 0.000000
1.000000 0.360000 0.000000
1.000000 0.390000 0.000000
1.000000 0.420000 0.000000
1.000000 0.450000 0.000000
1.000000 0.480000 0.000000
1.000000 0.510000 0.000000
1.000000 0.540000 0.000000
1.000000 0.570000 0.000000
1.000000 0.628571 0.000000
1.000000 0.657143 0.000000
1.000000 0.685714 0.000000
1.000000 0.714286 0.000000
1.000000 0.742857 0.000000
1.000000 0.771429 0.000000
1.000000 0.800000 0.000000
1.000000 0.828571 0.000000
1.000000 0.857143 0.000000
1.000000 0.885714 0.000000
1.000000 0.914286 0.000000
1.000000 0.942857 0.000000
1.000000 0.971429 0.000000
0.970588 1.000000 0.000000
0.941176 1.000000 0.000000
0.911765 1.000000 0.000000
0.882353 1.000000 0.000000
0.852941 1.000000 0.000000
0.823529 1.000000 0.000000
0.794118 1.000000 0.000000
0.764706 1.000000 0.000000
0.735294 1.000000 0.000000
0.705882 1.000000 0.000000
0.676471 1.000000 0.000000
0.647059 1.000000 0.000000
0.617647 1.000000 0.000000
0.588235 1.000000 0.000000
0.558824 1.000000 0.000000
0.529412 1.000000 0.000000
0.500000 1.000000 0.000000
0.470588 1.000000 0.000000
0.441176 1.000000 0.000000
0.411765 1.000000 0.000000
0.382353 1.000000 0.000000
0.352941 1.000000 0.000000
0.323529 1.000000 0.000000
0.294118 1.000000 0.000000
0.264706 1.000000 0.000000
0.235294 1.000000 0.000000
0.205882 1.000000 0.000000
0.176471 1.000000 0.000000
0.147059 1.000000 0.000000
0.117647 1.000000 0.000000
0.088235 1.000000 0.000000
0.058824 1.000000 0.000000
0.029412 1.000000 0.000000
0.000000 0.970000 0.000000
0.000000 0.940000 0.000000
0.000000 0.910000 0.000000
0.000000 0.880000 0.000000
0.000000 0.850000 0.000000
0.000000 0.820000 0.000000
0.000000 0.790000 0.000000
0.000000 0.760000 0.000000
0.000000 0.730000 0.000000
0.000000 0.700000 0.000000
0.000000 0.670000 0.000000
0.000000 0.640000 0.000000
0.000000 0.610000 0.000000
0.000000 0.580000 0.000000
0.000000 0.550000 0.000000
0.000000 0.520000 0.000000
0.000000 0.490000 0.000000
0.000000 0.460000 0.000000
0.000000 0.430000 0.000000
0.000000 0.371429 0.000000
0.000000 0.342857 0.000000
0.000000 0.314286 0.000000
0.000000 0.285714 0.000000
0.000000 0.257143 0.000000
0.000000 0.228571 0.000000
0.000000 0.200000 0.000000
0.000000 0.171429 0.000000
0.000000 0.142857 0.000000
0.000000 0.114286 0.000000
0.000000 0.085714 0.000000
0.000000 0.057143 0.000000
0.000000 0.028571 0.000000
0.029412 0.405882 0.000000
0.058824 0.411765 0.000000
0.088235 0.417647 0.000000
0.117647 0.423529 0.000000
0.147059 0.429412 0.000000
0.176471 0.435294 0.000000
0.205882 0.441176 0.000000
0.235294 0.447059 0.000000
0.264706 0.452941 0.000000
0.294118 0.458824 0.000000
0.323529 0.464706 0.000000
0.352941 0.470588 0.000000
0.382353 0.476471 0.000000
0.411765 0.482353 0.000000
0.441176 0.488235 0.000000
0.470588 0.494118 0.000000
0.500000 0.500000 0.000000
0.529412 0.505882 0.000000
0.558824 0.511765 0.000000
0.588235 0.517647 0.000000
0.617647 0.523529 0.000000
0.647059 0.529412 0.000000
0.676471 0.535294 0.000000
0.705882 0.541176 0.000000
0.735294 0.547059 0.000000
0.764706 0.552941 0.000000
0.794118 0.558824 0.000000
0.823529 0.564706 0.000000
0.852941 0.570588 0.000000
0.882353 0.576471 0.000000
0.911765 0.582353 0.000000
0.941176 0.588235 0.000000
0.970588 0.594118 0.000000
0.948492 0.617586 0.000000
0.918239 0.609871 0.000000
0.126115 0.454845 0.000000
0.100318 0.465379 0.000000
0.103006 0.442114 0.000000
0.117916 0.480680 0.000000
0.029145 0.895585 0.000000
0.046774 0.918032 0.000000
0.024990 0.926329 0.000000
0.056315 0.899171 0.000000
0.977770 0.695981 0.000000
0.963577 0.714729 0.000000
0.973827 0.736127 0.000000
0.605253 0.549394 0.000000
0.579370 0.549801 0.000000
0.570019 0.533816 0.000000
0.896809 0.971959 0.000000
0.919426 0.957680 0.000000
0.927686 0.976215 0.000000
0.899487 0.944624 0.000000
0.974081 0.924646 0.000000
0.977161 0.898750 0.000000
0.076578 0.973587 0.000000
0.102577 0.974440 0.000000
0.861693 0.698664 0.000000
0.848870 0.723174 0.000000
0.839521 0.701504 0.000000
0.820447 0.720618 0.000000
0.872237 0.675719 0.000000
0.882611 0.694724 0.000000
0.895344 0.672729 0.000000
0.606326 0.947716 0.000000
0.624868 0.973015 0.000000
0.599776 0.977307 0.000000
0.167986 0.944019 0.000000
0.199183 0.948746 0.000000
0.187884 0.972901 0.000000
0.787752 0.856005 0.000000
0.754801 0.854462 0.000000
0.778588 0.832828 0.000000
0.191471 0.922393 0.000000
0.801312 0.812216 0.000000
0.829867 0.817276 0.000000
0.805526 0.837896 0.000000
0.812775 0.791772 0.000000
0.822869 0.769821 0.000000
0.833826 0.791773 0.000000
0.849982 0.772760 0.000000
0.791421 0.791198 0.000000
0.772962 0.808877 0.000000
0.180049 0.621172 0.000000
0.160680 0.621098 0.000000
0.172158 0.598185 0.000000
0.588124 0.962489 0.000000
0.142171 0.602810 0.000000
0.827587 0.748015 0.000000
0.859778 0.745080 0.000000
0.882413 0.743965 0.000000
0.872759 0.762938 0.000000
0.894601 0.765041 0.000000
0.910115 0.745588 0.000000
0.901004 0.726420 0.000000
0.877058 0.719626 0.000000
0.632694 0.945006 0.000000
0.818411 0.883232 0.000000
0.787667 0.883633 0.000000
0.812018 0.862064 0.000000
0.808649 0.907835 0.000000
0.066636 0.534974 0.000000
0.083909 0.552665 0.000000
0.058224 0.565435 0.000000
0.037551 0.542621 0.000000
0.025720 0.565794 0.000000
0.304619 0.971425 0.000000
0.276072 0.975195 0.000000
0.284125 0.946285 0.000000
0.795087 0.737757 0.000000
0.797357 0.768346 0.000000
0.869843 0.656802 0.000000
0.840870 0.648068 0.000000
0.865462 0.630915 0.000000
0.043233 0.441011 0.000000
0.028792 0.469222 0.000000
0.020751 0.443790 0.000000
0.846918 0.676414 0.000000
0.058991 0.463368 0.000000
0.051906 0.966804 0.000000
0.071758 0.947609 0.000000
0.048298 0.939447 0.000000
0.026398 0.956010 0.000000
0.967109 0.949068 0.000000
0.946807 0.928411 0.000000
0.940173 0.953295 0.000000
0.956764 0.974357 0.000000
0.076722 0.471546 0.000000
0.082324 0.449317 0.000000
0.066669 0.435847 0.000000
0.114035 0.946088 0.000000
0.091278 0.952186 0.000000
0.128453 0.974235 0.000000
0.027019 0.501643 0.000000
0.047138 0.487417 0.000000
0.943388 0.639892 0.000000
0.923239 0.630552 0.000000
0.974491 0.618278 0.000000
0.972785 0.673666 0.000000
0.943930 0.664809 0.000000
0.968693 0.642530 0.000000
0.780685 0.976970 0.000000
0.756289 0.951349 0.000000
0.776857 0.951460 0.000000
0.935276 0.890540 0.000000
0.927168 0.867561 0.000000
0.954227 0.882176 0.000000
0.745760 0.974977 0.000000
0.952002 0.907568 0.000000
0.068063 0.489215 0.000000
0.051512 0.513895 0.000000
0.027757 0.982136 0.000000
0.023217 0.525632 0.000000
0.982410 0.972952 0.000000
0.951072 0.692907 0.000000
0.957020 0.857438 0.000000
0.937630 0.840379 0.000000
0.966912 0.834149 0.000000
0.923427 0.933924 0.000000
0.982257 0.848323 0.000000
0.092881 0.488189 0.000000
0.976737 0.871201 0.000000
0.067960 0.921895 0.000000
0.886538 0.603532 0.000000
0.918896 0.656866 0.000000
0.898227 0.636966 0.000000
0.092880 0.930380 0.000000
0.929071 0.911440 0.000000
0.081137 0.510877 0.000000
0.592772 0.576158 0.000000
0.150419 0.835159 0.000000
0.138607 0.859733 0.000000
0.125762 0.835294 0.000000
0.155304 0.458505 0.000000
0.139466 0.476317 0.000000
0.134858 0.496115 0.000000
0.109061 0.504849 0.000000
0.112238 0.859343 0.000000
0.866826 0.974780 0.000000
0.026919 0.865848 0.000000
0.348411 0.871602 0.000000
0.339654 0.840899 0.000000
0.369544 0.848927 0.000000
0.925986 0.818235 0.000000
0.909684 0.842117 0.000000
0.929360 0.717495 0.000000
0.924028 0.685311 0.000000
0.879688 0.955544 0.000000
0.875200 0.929284 0.000000
0.903901 0.918287 0.000000
0.950764 0.819790 0.000000
0.047492 0.878635 0.000000
0.069665 0.880314 0.000000
0.081712 0.904992 0.000000
0.573454 0.980624 0.000000
0.556694 0.550113 0.000000
0.094318 0.530060 0.000000
0.563246 0.571677 0.000000
0.563825 0.961795 0.000000
0.155902 0.972929 0.000000
0.577162 0.940912 0.000000
0.545227 0.533787 0.000000
0.864670 0.884377 0.000000
0.860690 0.911575 0.000000
0.840756 0.895862 0.000000
0.137227 0.926016 0.000000
0.139814 0.950758 0.000000
0.109156 0.913646 0.000000
0.884976 0.899786 0.000000
0.910807 0.890052 0.000000
0.830819 0.844574 0.000000
0.157710 0.484545 0.000000
0.180718 0.468069 0.000000
0.154331 0.510861 0.000000
0.124262 0.522394 0.000000
0.341085 0.732964 0.000000
0.323736 0.758404 0.000000
0.312899 0.730066 0.000000
0.857321 0.949854 0.000000
0.839840 0.975483 0.000000
0.053549 0.857833 0.000000
0.031143 0.832960 0.000000
0.840338 0.925315 0.000000
0.300796 0.756054 0.000000
0.080783 0.856286 0.000000
0.096939 0.884378 0.000000
0.544800 0.977874 0.000000
0.949430 0.731579 0.000000
0.955247 0.752582 0.000000
0.934712 0.748859 0.000000
0.030153 0.591093 0.000000
[...]
POINT_DATA 1445
SCALARS UX float 1
LOOKUP_TABLE default
-0.064714
-0.000000
0.000000
-0.064714
-0.064714
0.000000
-0.062811
-0.060908
-0.059004
-0.057101
-0.055197
-0.053294
-0.051391
-0.049487
-0.047584
-0.045681
-0.043777
-0.041874
-0.039971
-0.038067
-0.036164
-0.034260
-0.032357
-0.030454
-0.028550
-0.026647
-0.024744
-0.022840
-0.020937
-0.019034
-0.017130
-0.015227
-0.013324
-0.011420
-0.009517
-0.007613
-0.005710
-0.003807
-0.001903
-0.000000
-0.000000
-0.000000
-0.000000
-0.000000
-0.000000
-0.000000
-0.000000
-0.000000
-0.000000
-0.000000
-0.000000
-0.000000
-0.000000
-0.000000
-0.000000
-0.000000
0.000000
0.000000
-0.000000
-0.000000
0.000000
-0.000000
-0.000000
-0.000000
-0.000000
0.000000
-0.000000
0.000000
-0.000000
0.000000
-0.000000
-0.001903
-0.003807
-0.005710
-0.007613
-0.009517
-0.011420
-0.013324
-0.015227
-0.017130
-0.019034
-0.020937
-0.022840
-0.024744
-0.026647
-0.028550
-0.030454
-0.032357
-0.034260
-0.036164
-0.038067
-0.039971
-0.041874
-0.043777
-0.045681
-0.047584
-0.049487
-0.051391
-0.053294
-0.055197
-0.057101
-0.059004
-0.060908
-0.062811
-0.064714
-0.064714
-0.064714
-0.064714
-0.064714
-0.064714
-0.064714
-0.064714
-0.064714
-0.064714
-0.064714
-0.064714
-0.064714
-0.064714
-0.064714
-0.064714
-0.064714
-0.064714
-0.064714
-0.064714
-0.064714
-0.064714
-0.064714
-0.064714
-0.064714
-0.064714
-0.064714
-0.064714
-0.064714
-0.064714
-0.064714
-0.064714
-0.062811
-0.060908
-0.059004
-0.057101
-0.055197
-0.053294
-0.051391
-0.049487
-0.047584
-0.045681
-0.043777
-0.041874
-0.039971
-0.038067
-0.036164
-0.034260
-0.032357
-0.030454
-0.028550
-0.026647
-0.024744
-0.022840
-0.020937
-0.019034
-0.017130
-0.015227
-0.013324
-0.011420
-0.009517
-0.007613
-0.005710
-0.003807
-0.001903
-0.003333
-0.005291
-0.056553
-0.058222
-0.058048
-0.057083
-0.062828
-0.061687
-0.063097
-0.061070
-0.001439
-0.002357
-0.001694
-0.025546
-0.027221
-0.027826
-0.006678
-0.005214
-0.004680
-0.006505
-0.001677
-0.001478
-0.059759
-0.058076
-0.008950
-0.009780
-0.010385
-0.011620
-0.008268
-0.007597
-0.006773
-0.025476
-0.024276
-0.025900
-0.053843
-0.051824
-0.052555
-0.013735
-0.015868
-0.014329
-0.052323
-0.012858
-0.011010
-0.012585
-0.012116
-0.011463
-0.010754
-0.009708
-0.013498
-0.014693
-0.053063
-0.054316
-0.053573
-0.026654
-0.055514
-0.011158
-0.009074
-0.007610
-0.008234
-0.006821
-0.005817
-0.006406
-0.007956
-0.023770
-0.011751
-0.013741
-0.012165
-0.012383
-0.060402
-0.059284
-0.060946
-0.062284
-0.063050
-0.045001
-0.046848
-0.046327
-0.013261
-0.013114
-0.008423
-0.010298
-0.008707
-0.061916
-0.062851
-0.063371
-0.009907
-0.060897
-0.061355
-0.060070
-0.061589
-0.063006
-0.002129
-0.003442
-0.003872
-0.002798
-0.059749
-0.059387
-0.060400
-0.057335
-0.058807
-0.056402
-0.062966
-0.061664
-0.003664
-0.004968
-0.001651
-0.001761
-0.003629
-0.002026
-0.014193
-0.015772
-0.014441
-0.004189
-0.004713
-0.002962
-0.016453
-0.003106
-0.060310
-0.061381
-0.062918
-0.063212
-0.001138
-0.003166
-0.002781
-0.004036
-0.002141
-0.004955
-0.001148
-0.058704
-0.001505
-0.060316
-0.007343
-0.005249
-0.006586
-0.058704
-0.004590
-0.059464
-0.026353
-0.054980
-0.055744
-0.056576
-0.054664
-0.055689
-0.055987
-0.057656
-0.057451
-0.008618
-0.062972
-0.042167
-0.042734
-0.040799
-0.004790
-0.005845
-0.004571
-0.004916
-0.007786
-0.008076
-0.006219
-0.003186
-0.061641
-0.060206
-0.059426
-0.027604
-0.028688
-0.058611
-0.028264
-0.028227
-0.054625
-0.027364
-0.029430
-0.008758
-0.009015
-0.010305
-0.055834
-0.055666
-0.057650
-0.007444
-0.005772
-0.010948
-0.054508
-0.053019
-0.054727
-0.056673
-0.042641
-0.043764
-0.044465
-0.009233
-0.010365
-0.061249
-0.062699
-0.010332
-0.045248
-0.059486
-0.058441
-0.029458
-0.003273
-0.002896
-0.004225
-0.062763
-0.058805
-0.057598
-0.005268
-0.033973
-0.033806
-0.035848
-0.035322
-0.054347
-0.056161
-0.013659
-0.015052
-0.052860
-0.050875
-0.053026
-0.055457
-0.001695
-0.003498
-0.001704
-0.060489
-0.063257
-0.058411
-0.006912
-0.047425
-0.048741
-0.047816
-0.060710
-0.062444
-0.049321
-0.056595
-0.057551
-0.045706
-0.047183
-0.045512
-0.041932
-0.043145
-0.043655
-0.041669
-0.050290
-0.045238
-0.044087
-0.052642
-0.044430
-0.045140
-0.046101
-0.047213
-0.051070
-0.043018
-0.042029
-0.057315
-0.056923
-0.058833
-0.051944
-0.054084
-0.049261
-0.046078
-0.045197
-0.043541
-0.046936
-0.047926
-0.060173
-0.048875
-0.063005
-0.007525
-0.008641
-0.009248
-0.046171
-0.044441
-0.043305
-0.048220
-0.046641
-0.049053
-0.047051
-0.045090
-0.049099
-0.005107
-0.047577
-0.006494
-0.047755
-0.049113
-0.047678
-0.049010
-0.047180
-0.050083
-0.047407
-0.048918
-0.050118
-0.044179
-0.043930
-0.046050
-0.042399
-0.042524
-0.062827
-0.061522
-0.060941
-0.059967
-0.052734
-0.050868
-0.051143
-0.045413
-0.047808
-0.047018
-0.052257
-0.051612
-0.048652
-0.050451
-0.056700
-0.058220
-0.058646
-0.058924
-0.054695
-0.054612
-0.052896
-0.054657
-0.055760
-0.055790
-0.048303
-0.050109
-0.049192
-0.048600
-0.052749
-0.053766
-0.054364
-0.061907
-0.044537
-0.042582
-0.043211
-0.050706
-0.048682
-0.049741
-0.061399
-0.056925
-0.058347
-0.057173
-0.059123
-0.049044
-0.041315
-0.015272
-0.015030
-0.017037
-0.059824
-0.060309
-0.016623
-0.001637
-0.051924
-0.053039
-0.050919
-0.003526
-0.053860
-0.040672
-0.041376
-0.058515
-0.061490
-0.012358
-0.014273
-0.012767
-0.013833
-0.052482
-0.043487
-0.051977
-0.017384
-0.015387
-0.016856
-0.039170
-0.038523
-0.063072
-0.040066
-0.022465
-0.022045
-0.024358
-0.023951
-0.050904
-0.010229
-0.058883
-0.050090
-0.054412
-0.007940
-0.012921
-0.051076
-0.044420
-0.044598
-0.043128
-0.009111
-0.026045
-0.027837
-0.027414
-0.025650
-0.016046
-0.015009
-0.017176
-0.015921
-0.029326
-0.062788
-0.029602
-0.041562
-0.039641
-0.055552
-0.018381
-0.018016
-0.053835
-0.042438
-0.016232
-0.020661
-0.020223
-0.037951
-0.039097
-0.037101
-0.051109
-0.009314
-0.028784
-0.029951
-0.028574
-0.029272
-0.030532
-0.025355
-0.027141
-0.025828
-0.026706
-0.027354
-0.023686
-0.023979
-0.024789
-0.046044
-0.047535
-0.018793
-0.020054
-0.019972
-0.018800
-0.017609
-0.014793
-0.021775
-0.022080
-0.022876
-0.021014
-0.007067
-0.006370
-0.010634
-0.011930
-0.039715
-0.041834
-0.040248
-0.041211
-0.041170
-0.040400
-0.014861
-0.016435
-0.014596
-0.016813
-0.018348
-0.018042
-0.038711
-0.039173
-0.017818
-0.018290
-0.017279
-0.016125
-0.017979
-0.018782
-0.019921
-0.014847
-0.011093
-0.037052
-0.036461
-0.037996
-0.036853
-0.034911
-0.035783
-0.016476
-0.018423
-0.043688
-0.019385
-0.018954
-0.037598
-0.046698
-0.045270
-0.040561
-0.037653
-0.038979
-0.011814
-0.037713
-0.038229
-0.039163
-0.020309
-0.019870
-0.036721
-0.037163
-0.021776
-0.020711
-0.021829
-0.032716
-0.034458
-0.032841
-0.034099
-0.020402
-0.019840
-0.031416
-0.030979
-0.032841
-0.018387
-0.019153
-0.035756
-0.036262
-0.037194
-0.035628
-0.036027
-0.038602
-0.012185
-0.022617
-0.023739
-0.034768
-0.035215
-0.062976
-0.060890
-0.057044
-0.057280
-0.033821
-0.034309
-0.035260
-0.013022
-0.055351
-0.031892
-0.032385
-0.062335
-0.033325
-0.036673
-0.023686
-0.022267
-0.013658
-0.032834
-0.056073
-0.033279
-0.029967
-0.030443
-0.021326
-0.020875
-0.045375
-0.030908
-0.031357
-0.011214
-0.034753
-0.035049
-0.028983
-0.029443
-0.028521
-0.027063
-0.027521
-0.043699
-0.024530
-0.025654
-0.022323
-0.021865
-0.051502
-0.057835
-0.025602
-0.024179
-0.021418
-0.019501
-0.020295
-0.026603
-0.025146
-0.024882
-0.026797
-0.060302
-0.045430
-0.028710
-0.027572
-0.031791
-0.030640
-0.032503
-0.031406
-0.022971
-0.024111
-0.024230
-0.026140
-0.024688
-0.023234
-0.055514
-0.021062
-0.022781
-0.013384
-0.050222
-0.031349
-0.031196
-0.022202
-0.028046
-0.029492
-0.026446
-0.032351
-0.032244
-0.033749
-0.031838
-0.063295
-0.029351
-0.041057
-0.040171
-0.023132
-0.017585
-0.026096
-0.015735
-0.028364
-0.028014
-0.030281
-0.029929
-0.032109
-0.036624
-0.038123
-0.037540
-0.024659
-0.032372
-0.030883
-0.032009
-0.033796
-0.034055
-0.033330
-0.033597
-0.019261
-0.052013
-0.050630
-0.019812
-0.040514
-0.039589
-0.036751
-0.035801
-0.035496
-0.020868
-0.037869
-0.052964
-0.034655
-0.012100
-0.021888
-0.039210
-0.038830
-0.030867
-0.030197
-0.039986
-0.033379
-0.022928
-0.040965
-0.035151
-0.042208
-0.054240
-0.061381
-0.059423
-0.008161
-0.006492
-0.006666
-0.007631
-0.001886
-0.003027
-0.001617
-0.003644
-0.063276
-0.062357
-0.063021
-0.039169
-0.037493
-0.036888
-0.058036
-0.059500
-0.060034
-0.058210
-0.063037
-0.063236
-0.004956
-0.006638
-0.055764
-0.054934
-0.054329
-0.053095
-0.056446
-0.057118
-0.057942
-0.039238
-0.040438
-0.038814
-0.010871
-0.012890
-0.012159
-0.050979
-0.048846
-0.050386
-0.012391
-0.051856
-0.053704
-0.052129
-0.052598
-0.053251
-0.053960
-0.055006
-0.051216
-0.050022
-0.011652
-0.010398
-0.011141
-0.038060
-0.009200
-0.053557
-0.055640
-0.057105
-0.056480
-0.057893
-0.058897
-0.058308
-0.056758
-0.040944
-0.052963
-0.050973
-0.052549
-0.052331
-0.004312
-0.005430
-0.003768
-0.002430
-0.001664
-0.019713
-0.017866
-0.018387
-0.051453
-0.051600
-0.056291
-0.054416
-0.056008
-0.002798
-0.001863
-0.001343
-0.054808
-0.003818
-0.003359
-0.004644
-0.003126
-0.001708
-0.062586
-0.061272
-0.060843
-0.061916
-0.004965
-0.005328
-0.004314
-0.007380
-0.005907
-0.008313
-0.001749
-0.003050
-0.061051
-0.059747
-0.063063
-0.062953
-0.061086
-0.062688
-0.050521
-0.048943
-0.050274
-0.060526
-0.060001
-0.061752
-0.048261
-0.061608
-0.004405
-0.003334
-0.001796
-0.001502
-0.063576
-0.061548
-0.061933
-0.060678
-0.062573
-0.059759
-0.063566
-0.006011
-0.063209
-0.004398
-0.057372
-0.059466
-0.058128
-0.006011
-0.060124
-0.005251
-0.038361
-0.009734
-0.008970
-0.008139
-0.010050
-0.009025
-0.008727
-0.007058
-0.007263
-0.056096
-0.001742
-0.022547
-0.021980
-0.023915
-0.059925
-0.058870
-0.060143
-0.059798
-0.056928
-0.056638
-0.058495
-0.061528
-0.003073
-0.004508
-0.005288
-0.037111
-0.036026
-0.006104
-0.036450
-0.036488
-0.010089
-0.037351
-0.035284
-0.055956
-0.055699
-0.054409
-0.008881
-0.009048
-0.007064
-0.057271
-0.058942
-0.053766
-0.010206
-0.011695
-0.009987
-0.008042
-0.022073
-0.020950
-0.020249
-0.055481
-0.054350
-0.003465
-0.002015
-0.054382
-0.019466
-0.005228
-0.006273
-0.035256
-0.061442
-0.061818
-0.060489
-0.001951
-0.005909
-0.007116
-0.059446
-0.030741
-0.030908
-0.028866
-0.029392
-0.010367
-0.008553
-0.051056
-0.049663
-0.011854
-0.013840
-0.011689
-0.009257
-0.063019
-0.061216
-0.063010
-0.004225
-0.001457
-0.006304
-0.057802
-0.017289
-0.015973
-0.016899
-0.004005
-0.002271
-0.015393
-0.008119
-0.007163
-0.019008
-0.017531
-0.019202
-0.022782
-0.021569
-0.021059
-0.023046
-0.014424
-0.019477
-0.020627
-0.012072
-0.020285
-0.019574
-0.018613
-0.017501
-0.013645
-0.021696
-0.022685
-0.007399
-0.007791
-0.005881
-0.012770
-0.010630
-0.015454
-0.018636
-0.019517
-0.021173
-0.017779
-0.016788
-0.004541
-0.015839
-0.001709
-0.057190
-0.056073
-0.055466
-0.018543
-0.020273
-0.021409
-0.016494
-0.018074
-0.015661
-0.017663
-0.019624
-0.015615
-0.059607
-0.017137
-0.058221
-0.016959
-0.015601
-0.017036
-0.015704
-0.017534
-0.014631
-0.017307
-0.015796
-0.014596
-0.020536
-0.020784
-0.018664
-0.022315
-0.022190
-0.001887
-0.003192
-0.003773
-0.004747
-0.011981
-0.013846
-0.013571
-0.019301
-0.016906
-0.017697
-0.012457
-0.013103
-0.016063
-0.014263
-0.008015
-0.006495
-0.006069
-0.005790
-0.010020
-0.010102
-0.011819
-0.010057
-0.008954
-0.008925
-0.016412
-0.014605
-0.015522
-0.016114
-0.011966
-0.010948
-0.010350
-0.002808
-0.020177
-0.022132
-0.021503
-0.014008
-0.016032
-0.014974
-0.003315
-0.007789
-0.006368
-0.007542
-0.005591
-0.015671
-0.023399
-0.049442
-0.049684
-0.047677
-0.004890
-0.004405
-0.048091
-0.063078
-0.012791
-0.011675
-0.013795
-0.061189
-0.010854
-0.024042
-0.023339
-0.006200
-0.003224
-0.052356
-0.050441
-0.051947
-0.050881
-0.012232
-0.021227
-0.012737
-0.047330
-0.049327
-0.047858
-0.025545
-0.026192
-0.001642
-0.024649
-0.042249
-0.042669
-0.040356
-0.040763
-0.013810
-0.054485
-0.005832
-0.014624
-0.010302
-0.056775
-0.051793
-0.013638
-0.020294
-0.020117
-0.021586
-0.055603
-0.038669
-0.036877
-0.037300
-0.039065
-0.048668
-0.049705
-0.047539
-0.048793
-0.035388
-0.001926
-0.035112
-0.023152
-0.025074
-0.009163
-0.046334
-0.046699
-0.010879
-0.022276
-0.048482
-0.044053
-0.044491
-0.026763
-0.025617
-0.027613
-0.013606
-0.055400
-0.035930
-0.034763
-0.036140
-0.035442
-0.034182
-0.039359
-0.037573
-0.038886
-0.038009
-0.037361
-0.041028
-0.040735
-0.039925
-0.018670
-0.017180
-0.045921
-0.044660
-0.044742
-0.045914
-0.047106
-0.049921
-0.042939
-0.042635
-0.041838
-0.043701
-0.057648
-0.058344
-0.054080
-0.052784
-0.024999
-0.022880
-0.024467
-0.023503
-0.023544
-0.024314
-0.049853
-0.048279
-0.050118
-0.047901
-0.046366
-0.046673
-0.026003
-0.025541
-0.046897
-0.046424
-0.047435
-0.048589
-0.046735
-0.045932
-0.044793
-0.049867
-0.053621
-0.027663
-0.028253
-0.026719
-0.027861
-0.029803
-0.028931
-0.048238
-0.046291
-0.021026
-0.045329
-0.045760
-0.027117
-0.018016
-0.019444
-0.024153
-0.027061
-0.025735
-0.052900
-0.027001
-0.026485
-0.025551
-0.044405
-0.044845
-0.027994
-0.027551
-0.042938
-0.044004
-0.042886
-0.031999
-0.030256
-0.031874
-0.030616
-0.044312
-0.044874
-0.033298
-0.033735
-0.031874
-0.046328
-0.045562
-0.028958
-0.028452
-0.027520
-0.029086
-0.028687
-0.026112
-0.052529
-0.042097
-0.040975
-0.029946
-0.029499
-0.001738
-0.003825
-0.007670
-0.007434
-0.030894
-0.030405
-0.029455
-0.051692
-0.009363
-0.032822
-0.032329
-0.002379
-0.031389
-0.028042
-0.041028
-0.042447
-0.051056
-0.031881
-0.008641
-0.031435
-0.034747
-0.034271
-0.043388
-0.043839
-0.019339
-0.033806
-0.033358
-0.053500
-0.029961
-0.029665
-0.035731
-0.035271
-0.036193
-0.037652
-0.037193
-0.021015
-0.040185
-0.039060
-0.042391
-0.042849
-0.013212
-0.006880
-0.039112
-0.040535
-0.043296
-0.045213
-0.044419
-0.038112
-0.039568
-0.039832
-0.037917
-0.004413
-0.019284
-0.036004
-0.037142
-0.032923
-0.034075
-0.032211
-0.033308
-0.041743
-0.040603
-0.040484
-0.038574
-0.040026
-0.041480
-0.009200
-0.043652
-0.041933
-0.051330
-0.014492
-0.033365
-0.033518
-0.042512
-0.036668
-0.035222
-0.038269
-0.032363
-0.032470
-0.030966
-0.032877
-0.001419
-0.035363
-0.023657
-0.024543
-0.041582
-0.047129
-0.038618
-0.048980
-0.036351
-0.036700
-0.034433
-0.034785
-0.032606
-0.028090
-0.026591
-0.027175
-0.040055
-0.032343
-0.033831
-0.032705
-0.030918
-0.030659
-0.031384
-0.031118
-0.045453
-0.012701
-0.014084
-0.044902
-0.024200
-0.025126
-0.027963
-0.028914
-0.029218
-0.043846
-0.026846
-0.011750
-0.030060
-0.052615
-0.042826
-0.025504
-0.025884
-0.033847
-0.034518
-0.024728
-0.031335
-0.041786
-0.023749
-0.029563
-0.022507
-0.010474
SCALARS UY float 1
LOOKUP_TABLE default
-0.000000
-0.000000
-0.151000
-0.151000
-0.060400
-0.090600
-0.000000
-0.000000
-0.000000
-0.000000
-0.000000
-0.000000
-0.000000
-0.000000
-0.000000
-0.000000
-0.000000
-0.000000
-0.000000
-0.000000
-0.000000
-0.000000
-0.000000
-0.000000
-0.000000
-0.000000
-0.000000
-0.000000
-0.000000
-0.000000
-0.000000
-0.000000
-0.000000
-0.000000
-0.000000
-0.000000
-0.000000
-0.000000
-0.000000
-0.004530
-0.009060
-0.013590
-0.018120
-0.022650
-0.027180
-0.031710
-0.036240
-0.040770
-0.045300
-0.049830
-0.054360
-0.058890
-0.063420
-0.067950
-0.072480
-0.077010
-0.081540
-0.086070
-0.094914
-0.099229
-0.103543
-0.107857
-0.112171
-0.116486
-0.120800
-0.125114
-0.129429
-0.133743
-0.138057
-0.142371
-0.146686
-0.151000
-0.151000
-0.151000
-0.151000
-0.151000
-0.151000
-0.151000
-0.151000
-0.151000
-0.151000
-0.151000
-0.151000
-0.151000
-0.151000
-0.151000
-0.151000
-0.151000
-0.151000
-0.151000
-0.151000
-0.151000
-0.151000
-0.151000
-0.151000
-0.151000
-0.151000
-0.151000
-0.151000
-0.151000
-0.151000
-0.151000
-0.151000
-0.151000
-0.146470
-0.141940
-0.137410
-0.132880
-0.128350
-0.123820
-0.119290
-0.114760
-0.110230
-0.105700
-0.101170
-0.096640
-0.092110
-0.087580
-0.083050
-0.078520
-0.073990
-0.069460
-0.064930
-0.056086
-0.051771
-0.047457
-0.043143
-0.038829
-0.034514
-0.030200
-0.025886
-0.021571
-0.017257
-0.012943
-0.008629
-0.004314
-0.061288
-0.062176
-0.063065
-0.063953
-0.064841
-0.065729
-0.066618
-0.067506
-0.068394
-0.069282
-0.070171
-0.071059
-0.071947
-0.072835
-0.073724
-0.074612
-0.075500
-0.076388
-0.077276
-0.078165
-0.079053
-0.079941
-0.080829
-0.081718
-0.082606
-0.083494
-0.084382
-0.085271
-0.086159
-0.087047
-0.087935
-0.088824
-0.089712
-0.093255
-0.092090
-0.068682
-0.070272
-0.066759
-0.072583
-0.135233
-0.138623
-0.139876
-0.135775
-0.105093
-0.107924
-0.111155
-0.082958
-0.083020
-0.080606
-0.146766
-0.144610
-0.147408
-0.142638
-0.139621
-0.135711
-0.147012
-0.147140
-0.105498
-0.109199
-0.105927
-0.108813
-0.102034
-0.104903
-0.101582
-0.143105
-0.146925
-0.147573
-0.142547
-0.143261
-0.146908
-0.129257
-0.129024
-0.125757
-0.139281
-0.122645
-0.123409
-0.126522
-0.119558
-0.116243
-0.119558
-0.116687
-0.119471
-0.122140
-0.093797
-0.093786
-0.090326
-0.145336
-0.091024
-0.112950
-0.112507
-0.112339
-0.115204
-0.115521
-0.112584
-0.109689
-0.108664
-0.142696
-0.133368
-0.133429
-0.130172
-0.137083
-0.080781
-0.083452
-0.085381
-0.081936
-0.085435
-0.146685
-0.147254
-0.142889
-0.111401
-0.116020
-0.099177
-0.097858
-0.095268
-0.066593
-0.070853
-0.067012
-0.102139
-0.069969
-0.145987
-0.143089
-0.141856
-0.144357
-0.143309
-0.140190
-0.143948
-0.147128
-0.071203
-0.067847
-0.065813
-0.142859
-0.143780
-0.147109
-0.075748
-0.073600
-0.096624
-0.095213
-0.093360
-0.101724
-0.100386
-0.097022
-0.147522
-0.143654
-0.143670
-0.134472
-0.131002
-0.133209
-0.147221
-0.137043
-0.073872
-0.077598
-0.148302
-0.079370
-0.146916
-0.104629
-0.129473
-0.126897
-0.125956
-0.141022
-0.128097
-0.073717
-0.131551
-0.139206
-0.091133
-0.099187
-0.096182
-0.140487
-0.137627
-0.077142
-0.087000
-0.126109
-0.129820
-0.126129
-0.069234
-0.071924
-0.074913
-0.076232
-0.129761
-0.147192
-0.130743
-0.131612
-0.126976
-0.128188
-0.123554
-0.127160
-0.108342
-0.103482
-0.144287
-0.140322
-0.138661
-0.123788
-0.132674
-0.132927
-0.136654
-0.148074
-0.083067
-0.080039
-0.086323
-0.145231
-0.146912
-0.142078
-0.080602
-0.133541
-0.137648
-0.135275
-0.139828
-0.143564
-0.137961
-0.135868
-0.134398
-0.127531
-0.073166
-0.070678
-0.077140
-0.078882
-0.110678
-0.114519
-0.110240
-0.143428
-0.147298
-0.129533
-0.125777
-0.139723
-0.114164
-0.129299
-0.133541
-0.147659
-0.110468
-0.113640
-0.113078
-0.089255
-0.087527
-0.083009
-0.116534
-0.078882
-0.083092
-0.082169
-0.077853
-0.137645
-0.134394
-0.140079
-0.140666
-0.075028
-0.071832
-0.080323
-0.081955
-0.122369
-0.120531
-0.118870
-0.125777
-0.121879
-0.125455
-0.131141
-0.083441
-0.082758
-0.080234
-0.090663
-0.094362
-0.079426
-0.086506
-0.090921
-0.083989
-0.087426
-0.088679
-0.093940
-0.097023
-0.093376
-0.098854
-0.146461
-0.092979
-0.089838
-0.134305
-0.118277
-0.122631
-0.117936
-0.122105
-0.077048
-0.117804
-0.114569
-0.106342
-0.110680
-0.109215
-0.084219
-0.085970
-0.074801
-0.109911
-0.106898
-0.106324
-0.113447
-0.109256
-0.095520
-0.113212
-0.099173
-0.127614
-0.130390
-0.126353
-0.126491
-0.126670
-0.122607
-0.091803
-0.091263
-0.087148
-0.095427
-0.097545
-0.096132
-0.119894
-0.076533
-0.118793
-0.117052
-0.124127
-0.126250
-0.128470
-0.130139
-0.100823
-0.100737
-0.104824
-0.108982
-0.080967
-0.085641
-0.079092
-0.083367
-0.078592
-0.103847
-0.101282
-0.104538
-0.100569
-0.109252
-0.113420
-0.105040
-0.138614
-0.139855
-0.134829
-0.101006
-0.096252
-0.132625
-0.132418
-0.114543
-0.116858
-0.113426
-0.105344
-0.112647
-0.116959
-0.115061
-0.120378
-0.118673
-0.122233
-0.144250
-0.141106
-0.136336
-0.148047
-0.105352
-0.101762
-0.104734
-0.107843
-0.142768
-0.146019
-0.140065
-0.121313
-0.120246
-0.117174
-0.122002
-0.093858
-0.094709
-0.097425
-0.091901
-0.070882
-0.123651
-0.114205
-0.118314
-0.117075
-0.122279
-0.117510
-0.121045
-0.114870
-0.129557
-0.125575
-0.125958
-0.116898
-0.130014
-0.111333
-0.107081
-0.120653
-0.097928
-0.096608
-0.095244
-0.092640
-0.099281
-0.087439
-0.100956
-0.091119
-0.131937
-0.132684
-0.135561
-0.107854
-0.112059
-0.063733
-0.115685
-0.084168
-0.088557
-0.087770
-0.082743
-0.087166
-0.130924
-0.098003
-0.083540
-0.133707
-0.118469
-0.144183
-0.080880
-0.076573