# vtk DataFile Version 2.0
Test
ASCII
DATASET POLYDATA
POINTS 1445 float
0.000000 0.000000 0.000000
1.000000 0.000000 0.000000
1.000000 1.000000 0.000000
0.000000 1.000000 0.000000
0.000000 0.400000 0.000000
1.000000 0.600000 0.000000
0.029412 0.000000 0.000000
0.058824 0.000000 0.000000
0.088235 0.000000 0.000000
0.117647 0.000000 0.000000
0.147059 0.000000 0.000000
0.176471 0.000000 0.000000
0.205882 0.000000 0.000000
0.235294 0.000000 0.000000
0.264706 0.000000 0.000000
0.294118 0.000000 0.000000
0.323529 0.000000 0.000000
0.352941 0.000000 0.000000
0.382353 0.000000 0.000000
0.411765 0.000000 0.000000
0.441176 0.000000 0.000000
0.470588 0.000000 0.000000
0.500000 0.000000 0.000000
0.529412 0.000000 0.000000
0.558824 0.000000 0.000000
0.588235 0.000000 0.000000
0.617647 0.000000 0.000000
0.647059 0.000000 0.000000
0.676471 0.000000 0.000000
0.705882 0.000000 0.000000
0.735294 0.000000 0.000000
0.764706 0.000000 0.000000
0.794118 0.000000 0.000000
0.823529 0.000000 0.000000
0.852941 0.000000 0.000000
0.882353 0.000000 0.000000
0.911765 0.000000 0.000000
0.941176 0.000000 0.000000
0.970588 0.000000 0.000000
1.000000 0.030000 0.000000
1.000000 0.060000 0.000000
1.000000 0.090000 0.000000
1.000000 0.120000 0.000000
1.000000 0.150000 0.000000
1.000000 0.180000 0.000000
1.000000 0.210000 0.000000
1.000000 0.240000 0.000000
1.000000 0.270000 0.000000
1.000000 0.300000 0.000000
1.000000 0.330000 0.000000
1.000000 0.360000 0.000000
1.000000 0.390000 0.000000
1.000000 0.420000 0.000000
1.000000 0.450000 0.000000
1.000000 0.480000 0.000000
1.000000 0.510000 0.000000
1.000000 0.540000 0.000000
1.000000 0.570000 0.000000
1.000000 0.628571 0.000000
1.000000 0.657143 0.000000
1.000000 0.685714 0.000000
1.000000 0.714286 0.000000
1.000000 0.742857 0.000000
1.000000 0.771429 0.000000
1.000000 0.800000 0.000000
1.000000 0.828571 0.000000
1.000000 0.857143 0.000000
1.000000 0.885714 0.000000
1.000000 0.914286 0.000000
1.000000 0.942857 0.000000
1.000000 0.971429 0.000000
0.970588 1.000000 0.000000
0.941176 1.000000 0.000000
0.911765 1.000000 0.000000
0.882353 1.000000 0.000000
0.852941 1.000000 0.000000
0.823529 1.000000 0.000000
0.794118 1.000000 0.000000
0.764706 1.000000 0.000000
0.735294 1.000000 0.000000
0.705882 1.000000 0.000000
0.676471 1.000000 0.000000
0.647059 1.000000 0.000000
0.617647 1.000000 0.000000
0.588235 1.000000 0.000000
0.558824 1.000000 0.000000
0.529412 1.000000 0.000000
0.500000 1.000000 0.000000
0.470588 1.000000 0.000000
0.441176 1.000000 0.000000
0.411765 1.000000 0.000000
0.382353 1.000000 0.000000
0.352941 1.000000 0.000000
0.323529 1.000000 0.000000
0.294118 1.000000 0.000000
0.264706 1.000000 0.000000
0.235294 1.000000 0.000000
0.205882 1.000000 0.000000
0.176471 1.000000 0.000000
0.147059 1.000000 0.000000
0.117647 1.000000 0.000000
0.088235 1.000000 0.000000
0.058824 1.000000 0.000000
0.029412 1.000000 0.000000
0.000000 0.970000 0.000000
0.000000 0.940000 0.000000
0.000000 0.910000 0.000000
0.000000 0.880000 0.000000
0.000000 0.850000 0.000000
0.000000 0.820000 0.000000
0.000000 0.790000 0.000000
0.000000 0.760000 0.000000
0.000000 0.730000 0.000000
0.000000 0.700000 0.000000
0.000000 0.670000 0.000000
0.000000 0.640000 0.000000
0.000000 0.610000 0.000000
0.000000 0.580000 0.000000
0.000000 0.550000 0.000000
0.000000 0.520000 0.000000
0.000000 0.490000 0.000000
0.000000 0.460000 0.000000
0.000000 0.430000 0.000000
0.000000 0.371429 0.000000
0.000000 0.342857 0.000000
0.000000 0.314286 0.000000
0.000000 0.285714 0.000000
0.000000 0.257143 0.000000
0.000000 0.228571 0.000000
0.000000 0.200000 0.000000
0.000000 0.171429 0.000000
0.000000 0.142857 0.000000
0.000000 0.114286 0.000000
0.000000 0.085714 0.000000
0.000000 0.057143 0.000000
0.000000 0.028571 0.000000
0.029412 0.405882 0.000000
0.058824 0.411765 0.000000
0.088235 0.417647 0.000000
0.117647 0.423529 0.000000
0.147059 0.429412 0.000000
0.176471 0.435294 0.000000
0.205882 0.441176 0.000000
0.235294 0.447059 0.000000
0.264706 0.452941 0.000000
0.294118 0.458824 0.000000
0.323529 0.464706 0.000000
0.352941 0.470588 0.000000
0.382353 0.476471 0.000000
0.411765 0.482353 0.000000
0.441176 0.488235 0.000000
0.470588 0.494118 0.000000
0.500000 0.500000 0.000000
0.529412 0.505882 0.000000
0.558824 0.511765 0.000000
0.588235 0.517647 0.000000
0.617647 0.523529 0.000000
0.647059 0.529412 0.000000
0.676471 0.535294 0.000000
0.705882 0.541176 0.000000
0.735294 0.547059 0.000000
0.764706 0.552941 0.000000
0.794118 0.558824 0.000000
0.823529 0.564706 0.000000
0.852941 0.570588 0.000000
0.882353 0.576471 0.000000
0.911765 0.582353 0.000000
0.941176 0.588235 0.000000
0.970588 0.594118 0.000000
0.948492 0.617586 0.000000
0.918239 0.609871 0.000000
0.126115 0.454845 0.000000
0.100318 0.465379 0.000000
0.103006 0.442114 0.000000
0.117916 0.480680 0.000000
0.029145 0.895585 0.000000
0.046774 0.918032 0.000000
0.024990 0.926329 0.000000
0.056315 0.899171 0.000000
0.977770 0.695981 0.000000
0.963577 0.714729 0.000000
0.973827 0.736127 0.000000
0.605253 0.549394 0.000000
0.579370 0.549801 0.000000
0.570019 0.533816 0.000000
0.896809 0.971959 0.000000
0.919426 0.957680 0.000000
0.927686 0.976215 0.000000
0.899487 0.944624 0.000000
0.974081 0.924646 0.000000
0.977161 0.898750 0.000000
0.076578 0.973587 0.000000
0.102577 0.974440 0.000000
0.861693 0.698664 0.000000
0.848870 0.723174 0.000000
0.839521 0.701504 0.000000
0.820447 0.720618 0.000000
0.872237 0.675719 0.000000
0.882611 0.694724 0.000000
0.895344 0.672729 0.000000
0.606326 0.947716 0.000000
0.624868 0.973015 0.000000
0.599776 0.977307 0.000000
0.167986 0.944019 0.000000
0.199183 0.948746 0.000000
0.187884 0.972901 0.000000
0.787752 0.856005 0.000000
0.754801 0.854462 0.000000
0.778588 0.832828 0.000000
0.191471 0.922393 0.000000
0.801312 0.812216 0.000000
0.829867 0.817276 0.000000
0.805526 0.837896 0.000000
0.812775 0.791772 0.000000
0.822869 0.769821 0.000000
0.833826 0.791773 0.000000
0.849982 0.772760 0.000000
0.791421 0.791198 0.000000
0.772962 0.808877 0.000000
0.180049 0.621172 0.000000
0.160680 0.621098 0.000000
0.172158 0.598185 0.000000
0.588124 0.962489 0.000000
0.142171 0.602810 0.000000
0.827587 0.748015 0.000000
0.859778 0.745080 0.000000
0.882413 0.743965 0.000000
0.872759 0.762938 0.000000
0.894601 0.765041 0.000000
0.910115 0.745588 0.000000
0.901004 0.726420 0.000000
0.877058 0.719626 0.000000
0.632694 0.945006 0.000000
0.818411 0.883232 0.000000
0.787667 0.883633 0.000000
0.812018 0.862064 0.000000
0.808649 0.907835 0.000000
0.066636 0.534974 0.000000
0.083909 0.552665 0.000000
0.058224 0.565435 0.000000
0.037551 0.542621 0.000000
0.025720 0.565794 0.000000
0.304619 0.971425 0.000000
0.276072 0.975195 0.000000
0.284125 0.946285 0.000000
0.795087 0.737757 0.000000
0.797357 0.768346 0.000000
0.869843 0.656802 0.000000
0.840870 0.648068 0.000000
0.865462 0.630915 0.000000
0.043233 0.441011 0.000000
0.028792 0.469222 0.000000
0.020751 0.443790 0.000000
0.846918 0.676414 0.000000
0.058991 0.463368 0.000000
0.051906 0.966804 0.000000
0.071758 0.947609 0.000000
0.048298 0.939447 0.000000
0.026398 0.956010 0.000000
0.967109 0.949068 0.000000
0.946807 0.928411 0.000000
0.940173 0.953295 0.000000
0.956764 0.974357 0.000000
0.076722 0.471546 0.000000
0.082324 0.449317 0.000000
0.066669 0.435847 0.000000
0.114035 0.946088 0.000000
0.091278 0.952186 0.000000
0.128453 0.974235 0.000000
0.027019 0.501643 0.000000
0.047138 0.487417 0.000000
0.943388 0.639892 0.000000
0.923239 0.630552 0.000000
0.974491 0.618278 0.000000
0.972785 0.673666 0.000000
0.943930 0.664809 0.000000
0.968693 0.642530 0.000000
0.780685 0.976970 0.000000
0.756289 0.951349 0.000000
0.776857 0.951460 0.000000
0.935276 0.890540 0.000000
0.927168 0.867561 0.000000
0.954227 0.882176 0.000000
0.745760 0.974977 0.000000
0.952002 0.907568 0.000000
0.068063 0.489215 0.000000
0.051512 0.513895 0.000000
0.027757 0.982136 0.000000
0.023217 0.525632 0.000000
0.982410 0.972952 0.000000
0.951072 0.692907 0.000000
0.957020 0.857438 0.000000
0.937630 0.840379 0.000000
0.966912 0.834149 0.000000
0.923427 0.933924 0.000000
0.982257 0.848323 0.000000
0.092881 0.488189 0.000000
0.976737 0.871201 0.000000
0.067960 0.921895 0.000000
0.886538 0.603532 0.000000
0.918896 0.656866 0.000000
0.898227 0.636966 0.000000
0.092880 0.930380 0.000000
0.929071 0.911440 0.000000
0.081137 0.510877 0.000000
0.592772 0.576158 0.000000
0.150419 0.835159 0.000000
0.138607 0.859733 0.000000
0.125762 0.835294 0.000000
0.155304 0.458505 0.000000
0.139466 0.476317 0.000000
0.134858 0.496115 0.000000
0.109061 0.504849 0.000000
0.112238 0.859343 0.000000
0.866826 0.974780 0.000000
0.026919 0.865848 0.000000
0.348411 0.871602 0.000000
0.339654 0.840899 0.000000
0.369544 0.848927 0.000000
0.925986 0.818235 0.000000
0.909684 0.842117 0.000000
0.929360 0.717495 0.000000
0.924028 0.685311 0.000000
0.879688 0.955544 0.000000
0.875200 0.929284 0.000000
0.903901 0.918287 0.000000
0.950764 0.819790 0.000000
0.047492 0.878635 0.000000
0.069665 0.880314 0.000000
0.081712 0.904992 0.000000
0.573454 0.980624 0.000000
0.556694 0.550113 0.000000
0.094318 0.530060 0.000000
0.563246 0.571677 0.000000
0.563825 0.961795 0.000000
0.155902 0.972929 0.000000
0.577162 0.940912 0.000000
0.545227 0.533787 0.000000
0.864670 0.884377 0.000000
0.860690 0.911575 0.000000
0.840756 0.895862 0.000000
0.137227 0.926016 0.000000
0.139814 0.950758 0.000000
0.109156 0.913646 0.000000
0.884976 0.899786 0.000000
0.910807 0.890052 0.000000
0.830819 0.844574 0.000000
0.157710 0.484545 0.000000
0.180718 0.468069 0.000000
0.154331 0.510861 0.000000
0.124262 0.522394 0.000000
0.341085 0.732964 0.000000
0.323736 0.758404 0.000000
0.312899 0.730066 0.000000
0.857321 0.949854 0.000000
0.839840 0.975483 0.000000
0.053549 0.857833 0.000000
0.031143 0.832960 0.000000
0.840338 0.925315 0.000000
0.300796 0.756054 0.000000
0.080783 0.856286 0.000000
0.096939 0.884378 0.000000
0.544800 0.977874 0.000000
0.949430 0.731579 0.000000
0.955247 0.752582 0.000000
0.934712 0.748859 0.000000
0.030153 0.591093 0.000000
[...]
POINT_DATA 1445
SCALARS UX float 1
LOOKUP_TABLE default
-0.055157
0.000507
-0.000000
-0.055705
-0.055448
0.000000
-0.053520
-0.051883
-0.050246
-0.048609
-0.046972
-0.045335
-0.043698
-0.042061
-0.040424
-0.038787
-0.037150
-0.035513
-0.033876
-0.032239
-0.030602
-0.028965
-0.027328
-0.025691
-0.024054
-0.022416
-0.020779
-0.019142
-0.017505
-0.015867
-0.014230
-0.012592
-0.010955
-0.009318
-0.007680
-0.006043
-0.004405
-0.002768
-0.001131
0.000507
0.000507
0.000506
0.000506
0.000506
0.000506
0.000505
0.000505
0.000504
0.000503
0.000502
0.000500
0.000498
0.000495
0.000492
0.000487
0.000480
0.000466
0.000423
-0.000000
0.000000
-0.000000
-0.000000
-0.000000
-0.000000
-0.000000
-0.000000
-0.000000
-0.000000
-0.000000
-0.000000
-0.000000
-0.001639
-0.003278
-0.004916
-0.006555
-0.008194
-0.009833
-0.011472
-0.013112
-0.014751
-0.016390
-0.018029
-0.019668
-0.021307
-0.022946
-0.024585
-0.026223
-0.027862
-0.029500
-0.031138
-0.032776
-0.034414
-0.036052
-0.037690
-0.039328
-0.040966
-0.042604
-0.044241
-0.045879
-0.047517
-0.049154
-0.050792
-0.052429
-0.054067
-0.055705
-0.055705
-0.055705
-0.055706
-0.055707
-0.055708
-0.055709
-0.055710
-0.055711
-0.055712
-0.055714
-0.055715
-0.055717
-0.055719
-0.055721
-0.055723
-0.055725
-0.055724
-0.055703
-0.055168
-0.055153
-0.055150
-0.055151
-0.055152
-0.055153
-0.055154
-0.055155
-0.055155
-0.055156
-0.055156
-0.055156
-0.055157
-0.053805
-0.052185
-0.050550
-0.048904
-0.047261
-0.045625
-0.043987
-0.042350
-0.040711
-0.039074
-0.037428
-0.035790
-0.034149
-0.032503
-0.030873
-0.029232
-0.027605
-0.025979
-0.024339
-0.022709
-0.021064
-0.019425
-0.017789
-0.016145
-0.014511
-0.012876
-0.011245
-0.009615
-0.007989
-0.006360
-0.004735
-0.003132
-0.001563
-0.002915
-0.004590
-0.048684
-0.050134
-0.049915
-0.049156
-0.054083
-0.053101
-0.054314
-0.052570
-0.001242
-0.002034
-0.001461
-0.022001
-0.023461
-0.023897
-0.005750
-0.004490
-0.004029
-0.005601
-0.001444
-0.001273
-0.051441
-0.049993
-0.007728
-0.008438
-0.008964
-0.010024
-0.007147
-0.006563
-0.005859
-0.021938
-0.020905
-0.022303
-0.046352
-0.044615
-0.045244
-0.011831
-0.013668
-0.012343
-0.045044
-0.011078
-0.009486
-0.010841
-0.010441
-0.009881
-0.009267
-0.008368
-0.011632
-0.012659
-0.045693
-0.046772
-0.046134
-0.022952
-0.047803
-0.009621
-0.007826
-0.006563
-0.007099
-0.005880
-0.005017
-0.005528
-0.006866
-0.020469
-0.010121
-0.011834
-0.010478
-0.010664
-0.052012
-0.051050
-0.052479
-0.053631
-0.054288
-0.038744
-0.040333
-0.039885
-0.011434
-0.011303
-0.007287
-0.008904
-0.007538
-0.053296
-0.054122
-0.054557
-0.008558
-0.052440
-0.052815
-0.051709
-0.053016
-0.054235
-0.001833
-0.002964
-0.003333
-0.002409
-0.051452
-0.051120
-0.051941
-0.049356
-0.050623
-0.048553
-0.054220
-0.053101
-0.003186
-0.004317
-0.001453
-0.001525
-0.003146
-0.001765
-0.012221
-0.013581
-0.012435
-0.003607
-0.004059
-0.002551
-0.014168
-0.002675
-0.051936
-0.052856
-0.054159
-0.054430
-0.000980
-0.002737
-0.002395
-0.003477
-0.001844
-0.004267
-0.000989
-0.050553
-0.001296
-0.051921
-0.006355
-0.004550
-0.005712
-0.050534
-0.003952
-0.051207
-0.022719
-0.047332
-0.047989
-0.048705
-0.047049
-0.047951
-0.048215
-0.049652
-0.049457
-0.007421
-0.054207
-0.036307
-0.036796
-0.035131
-0.004126
-0.005034
-0.003946
-0.004252
-0.006704
-0.006954
-0.005355
-0.002745
-0.053062
-0.051827
-0.051156
-0.023769
-0.024716
-0.050472
-0.024366
-0.024306
-0.047024
-0.023563
-0.025320
-0.007542
-0.007763
-0.008875
-0.048065
-0.047920
-0.049628
-0.006410
-0.004971
-0.009431
-0.046941
-0.045654
-0.047132
-0.048805
-0.036722
-0.037686
-0.038291
-0.007950
-0.008924
-0.052725
-0.053973
-0.008897
-0.038964
-0.051209
-0.050308
-0.025366
-0.002823
-0.002497
-0.003643
-0.054040
-0.050636
-0.049599
-0.004541
-0.029252
-0.029130
-0.030887
-0.030401
-0.046786
-0.048347
-0.011762
-0.012961
-0.045525
-0.043813
-0.045667
-0.047758
-0.001461
-0.003014
-0.001468
-0.052072
-0.054454
-0.050284
-0.005953
-0.040849
-0.041981
-0.041186
-0.052273
-0.053763
-0.042481
-0.048735
-0.049556
-0.039370
-0.040639
-0.039201
-0.036119
-0.037161
-0.037602
-0.035890
-0.043294
-0.038963
-0.037975
-0.045320
-0.038258
-0.038868
-0.039696
-0.040651
-0.043985
-0.037043
-0.036194
-0.049347
-0.049008
-0.050652
-0.044735
-0.046576
-0.042423
-0.039679
-0.038922
-0.037498
-0.040415
-0.041269
-0.051809
-0.042084
-0.054244
-0.006481
-0.007443
-0.007966
-0.039754
-0.038265
-0.037289
-0.041529
-0.040171
-0.042248
-0.040522
-0.038834
-0.042283
-0.004401
-0.040978
-0.005596
-0.041119
-0.042285
-0.041050
-0.042195
-0.040621
-0.043128
-0.040826
-0.042124
-0.043155
-0.038057
-0.037842
-0.039665
-0.036527
-0.036630
-0.054089
-0.052967
-0.052467
-0.051630
-0.045405
-0.043798
-0.044038
-0.039099
-0.041160
-0.040480
-0.044998
-0.044444
-0.041886
-0.043435
-0.048815
-0.050122
-0.050489
-0.050731
-0.047091
-0.047018
-0.045542
-0.047056
-0.048006
-0.048030
-0.041584
-0.043139
-0.042351
-0.041840
-0.045419
-0.046295
-0.046809
-0.053296
-0.038345
-0.036662
-0.037204
-0.043657
-0.041916
-0.042827
-0.052856
-0.049016
-0.050239
-0.049228
-0.050907
-0.042172
-0.035576
-0.013164
-0.012952
-0.014682
-0.051501
-0.051919
-0.014322
-0.001411
-0.044702
-0.045662
-0.043839
-0.003039
-0.046368
-0.035027
-0.035634
-0.050375
-0.052941
-0.010679
-0.012328
-0.011033
-0.011944
-0.045197
-0.037454
-0.044761
-0.014972
-0.013253
-0.014517
-0.033736
-0.033178
-0.054214
-0.034504
-0.019351
-0.019012
-0.021003
-0.020605
-0.043840
-0.008810
-0.050698
-0.043141
-0.046843
-0.006843
-0.011127
-0.043990
-0.038255
-0.038329
-0.037098
-0.007889
-0.022455
-0.023998
-0.023631
-0.022112
-0.013850
-0.012951
-0.014816
-0.013731
-0.025281
-0.054052
-0.025514
-0.035790
-0.034137
-0.047834
-0.015828
-0.015514
-0.046357
-0.036557
-0.013983
-0.017802
-0.017447
-0.032699
-0.033677
-0.031949
-0.044000
-0.008026
-0.024795
-0.025801
-0.024616
-0.025219
-0.026299
-0.021845
-0.023382
-0.022255
-0.023005
-0.023568
-0.020408
-0.020663
-0.021355
-0.039650
-0.040901
-0.016195
-0.017280
-0.017212
-0.016198
-0.015178
-0.012740
-0.018762
-0.019027
-0.019708
-0.018104
-0.006088
-0.005502
-0.009199
-0.010303
-0.034196
-0.036019
-0.034655
-0.035483
-0.035452
-0.034807
-0.012833
-0.014170
-0.012543
-0.014514
-0.015835
-0.015513
-0.033334
-0.033733
-0.015348
-0.015756
-0.014897
-0.013902
-0.015503
-0.016191
-0.017176
-0.012803
-0.009581
-0.031914
-0.031404
-0.032722
-0.031754
-0.030084
-0.030832
-0.014188
-0.015865
-0.037615
-0.016697
-0.016324
-0.032378
-0.040214
-0.038987
-0.034923
-0.032440
-0.033583
-0.010197
-0.032473
-0.032918
-0.033720
-0.017495
-0.017115
-0.031621
-0.032003
-0.018757
-0.017852
-0.018817
-0.028180
-0.029680
-0.028290
-0.029369
-0.017570
-0.017085
-0.027052
-0.026676
-0.028278
-0.015863
-0.016518
-0.030789
-0.031225
-0.032026
-0.030683
-0.031028
-0.033237
-0.010492
-0.019493
-0.020462
-0.029940
-0.030326
-0.054215
-0.052420
-0.049110
-0.049312
-0.029123
-0.029544
-0.030360
-0.011232
-0.047657
-0.027463
-0.027888
-0.053663
-0.028696
-0.031576
-0.020402
-0.019182
-0.011782
-0.028275
-0.048280
-0.028660
-0.025806
-0.026216
-0.018368
-0.017978
-0.039068
-0.026618
-0.027005
-0.009656
-0.029924
-0.030190
-0.024961
-0.025358
-0.024561
-0.023307
-0.023703
-0.037626
-0.021139
-0.022110
-0.019224
-0.018829
-0.044342
-0.049796
-0.022051
-0.020828
-0.018476
-0.016826
-0.017505
-0.022910
-0.021657
-0.021449
-0.023097
-0.051915
-0.039114
-0.024743
-0.023760
-0.027396
-0.026403
-0.028006
-0.027060
-0.019804
-0.020788
-0.020866
-0.022510
-0.021262
-0.020011
-0.047800
-0.018162
-0.019619
-0.011552
-0.043251
-0.027004
-0.026874
-0.019146
-0.024152
-0.025413
-0.022789
-0.027864
-0.027771
-0.029066
-0.027421
-0.054491
-0.025274
-0.035371
-0.034606
-0.019949
-0.015178
-0.022478
-0.013586
-0.024439
-0.024130
-0.026090
-0.025778
-0.027662
-0.031553
-0.032842
-0.032338
-0.021263
-0.027899
-0.026618
-0.027590
-0.029122
-0.029342
-0.028716
-0.028942
-0.016608
-0.044781
-0.043589
-0.017060
-0.034899
-0.034101
-0.031658
-0.030839
-0.030580
-0.017970
-0.032618
-0.045599
-0.029853
-0.010419
-0.018848
-0.033777
-0.033447
-0.026599
-0.026032
-0.034440
-0.028767
-0.019744
-0.035284
-0.030286
-0.036352
-0.046697
-0.052300
-0.050627
-0.006568
-0.005119
-0.005347
-0.006090
-0.001116
-0.002097
-0.000885
-0.002629
-0.053914
-0.053124
-0.053696
-0.033207
-0.031747
-0.031313
-0.049414
-0.050672
-0.051132
-0.049563
-0.053714
-0.053885
-0.003756
-0.005204
-0.047453
-0.046741
-0.046220
-0.045159
-0.048039
-0.048617
-0.049324
-0.033246
-0.034278
-0.032882
-0.008845
-0.010582
-0.009953
-0.043343
-0.041509
-0.042832
-0.010153
-0.044097
-0.045686
-0.044332
-0.044734
-0.045295
-0.045906
-0.046804
-0.043546
-0.042519
-0.009524
-0.008446
-0.009086
-0.032233
-0.007417
-0.045557
-0.047349
-0.048608
-0.048072
-0.049287
-0.050150
-0.049642
-0.048309
-0.034714
-0.045050
-0.043339
-0.044694
-0.044507
-0.003220
-0.004179
-0.002747
-0.001600
-0.000938
-0.016452
-0.014863
-0.015311
-0.043748
-0.043875
-0.047905
-0.046292
-0.047663
-0.001980
-0.001133
-0.000713
-0.046630
-0.002819
-0.002383
-0.003488
-0.002182
-0.000963
-0.053326
-0.052196
-0.051827
-0.052750
-0.003801
-0.004143
-0.003336
-0.005842
-0.004575
-0.006644
-0.001021
-0.002146
-0.052004
-0.050885
-0.053775
-0.053636
-0.052030
-0.053414
-0.042951
-0.041593
-0.042738
-0.051554
-0.051102
-0.052608
-0.041007
-0.052485
-0.003310
-0.002382
-0.001039
-0.000804
-0.054178
-0.052428
-0.052763
-0.051684
-0.053313
-0.050895
-0.054168
-0.004692
-0.053861
-0.003277
-0.048862
-0.050636
-0.049486
-0.004664
-0.051209
-0.004032
-0.032487
-0.007868
-0.007210
-0.006495
-0.008195
-0.007292
-0.007025
-0.005588
-0.005742
-0.047745
-0.000992
-0.018890
-0.018402
-0.020066
-0.051035
-0.050129
-0.051220
-0.050922
-0.048461
-0.048211
-0.049808
-0.052414
-0.002138
-0.003372
-0.004042
-0.031416
-0.030492
-0.004762
-0.030841
-0.030880
-0.008172
-0.031623
-0.029889
-0.047624
-0.047403
-0.046293
-0.007133
-0.007277
-0.005570
-0.048755
-0.050192
-0.045740
-0.008298
-0.009584
-0.008103
-0.006430
-0.018482
-0.017517
-0.016914
-0.047216
-0.046243
-0.002475
-0.001228
-0.046271
-0.016240
-0.003991
-0.004890
-0.029822
-0.052338
-0.052662
-0.051519
-0.001182
-0.004588
-0.005630
-0.050623
-0.025958
-0.026080
-0.024324
-0.024810
-0.008412
-0.006852
-0.043410
-0.042212
-0.009709
-0.011419
-0.009562
-0.007471
-0.053696
-0.052146
-0.053688
-0.003129
-0.000748
-0.004917
-0.049211
-0.014372
-0.013241
-0.014037
-0.002948
-0.001454
-0.012744
-0.006490
-0.005664
-0.015848
-0.014579
-0.016015
-0.019092
-0.018049
-0.017611
-0.019319
-0.011902
-0.016251
-0.017239
-0.009879
-0.016944
-0.016333
-0.015506
-0.014549
-0.011244
-0.018158
-0.019009
-0.005862
-0.006198
-0.004555
-0.010490
-0.008649
-0.012804
-0.015527
-0.016285
-0.017709
-0.014789
-0.013938
-0.003407
-0.013121
-0.000969
-0.048684
-0.047724
-0.047202
-0.015445
-0.016934
-0.017911
-0.013688
-0.015045
-0.012972
-0.014692
-0.016377
-0.012931
-0.050762
-0.014246
-0.049569
-0.014084
-0.012915
-0.014149
-0.013004
-0.014578
-0.012084
-0.014385
-0.013085
-0.012052
-0.017161
-0.017374
-0.015555
-0.018689
-0.018586
-0.001121
-0.002244
-0.002743
-0.003582
-0.009802
-0.011407
-0.011171
-0.016097
-0.014037
-0.014717
-0.010214
-0.010771
-0.013312
-0.011764
-0.006390
-0.005082
-0.004716
-0.004478
-0.008115
-0.008186
-0.009662
-0.008147
-0.007197
-0.007172
-0.013612
-0.012057
-0.012846
-0.013356
-0.009790
-0.008916
-0.008401
-0.001912
-0.016851
-0.018532
-0.017992
-0.011545
-0.013286
-0.012376
-0.002346
-0.006202
-0.004978
-0.005987
-0.004312
-0.013055
-0.019623
-0.042019
-0.042228
-0.040501
-0.003701
-0.003285
-0.040858
-0.053746
-0.010497
-0.009538
-0.011361
-0.052121
-0.008831
-0.020176
-0.019571
-0.004828
-0.002273
-0.044519
-0.042873
-0.044172
-0.043252
-0.010025
-0.017755
-0.010458
-0.040205
-0.041923
-0.040659
-0.021468
-0.022024
-0.001099
-0.020697
-0.035857
-0.036194
-0.034203
-0.034605
-0.011382
-0.046359
-0.004516
-0.012082
-0.008356
-0.048326
-0.044044
-0.011237
-0.016964
-0.016890
-0.018120
-0.047323
-0.032749
-0.031207
-0.031573
-0.033090
-0.041348
-0.042242
-0.040379
-0.041459
-0.029926
-0.001152
-0.029691
-0.019410
-0.021063
-0.007382
-0.039349
-0.039663
-0.008858
-0.018657
-0.041195
-0.037407
-0.037758
-0.022513
-0.021537
-0.023263
-0.011198
-0.047144
-0.030399
-0.029395
-0.030579
-0.029979
-0.028896
-0.033348
-0.031812
-0.032940
-0.032187
-0.031628
-0.034783
-0.034530
-0.033835
-0.015572
-0.014324
-0.038991
-0.037907
-0.037977
-0.038985
-0.040009
-0.042434
-0.036426
-0.036164
-0.035480
-0.037082
-0.049077
-0.049673
-0.046005
-0.044890
-0.020999
-0.019176
-0.020541
-0.019712
-0.019764
-0.020407
-0.042373
-0.041040
-0.042672
-0.040691
-0.039371
-0.039698
-0.021862
-0.021465
-0.039832
-0.039425
-0.040292
-0.041284
-0.039689
-0.038999
-0.038018
-0.042383
-0.045631
-0.023289
-0.023797
-0.022477
-0.023456
-0.025125
-0.024377
-0.040987
-0.039312
-0.017581
-0.038484
-0.038855
-0.022820
-0.014994
-0.016222
-0.020271
-0.022770
-0.021629
-0.044991
-0.022721
-0.022277
-0.021473
-0.037689
-0.038067
-0.023574
-0.023194
-0.036427
-0.037340
-0.036378
-0.027018
-0.025519
-0.026910
-0.025829
-0.037610
-0.038094
-0.028137
-0.028513
-0.026912
-0.039336
-0.038678
-0.024404
-0.023969
-0.023167
-0.024514
-0.024171
-0.021956
-0.044677
-0.035701
-0.034735
-0.025254
-0.024869
-0.000991
-0.002786
-0.006093
-0.005889
-0.026069
-0.025649
-0.024831
-0.043980
-0.007551
-0.027728
-0.027303
-0.001542
-0.026495
-0.023616
-0.034784
-0.036004
-0.043405
-0.026917
-0.006931
-0.026534
-0.029383
-0.028974
-0.036814
-0.037203
-0.016130
-0.028573
-0.028188
-0.045513
-0.025267
-0.025011
-0.030229
-0.029833
-0.030627
-0.031881
-0.031486
-0.017572
-0.034056
-0.033088
-0.035958
-0.036352
-0.010861
-0.005416
-0.033137
-0.034360
-0.036727
-0.038376
-0.037694
-0.032277
-0.033529
-0.033751
-0.032104
-0.003293
-0.016083
-0.030459
-0.031439
-0.027809
-0.028800
-0.027198
-0.028142
-0.035394
-0.034413
-0.034318
-0.032675
-0.033923
-0.035174
-0.007413
-0.037036
-0.035564
-0.043640
-0.011966
-0.028193
-0.028324
-0.036054
-0.031035
-0.029788
-0.032408
-0.027332
-0.027439
-0.026130
-0.027774
-0.000718
-0.029913
-0.019843
-0.020605
-0.035254
-0.040024
-0.032712
-0.041616
-0.030759
-0.031062
-0.029110
-0.029415
-0.027539
-0.023654
-0.022366
-0.022868
-0.033941
-0.027308
-0.028588
-0.027619
-0.026085
-0.025863
-0.026488
-0.026259
-0.038600
-0.010420
-0.011610
-0.038118
-0.020311
-0.021107
-0.023547
-0.024364
-0.024625
-0.037209
-0.022586
-0.009603
-0.025349
-0.044751
-0.036333
-0.021432
-0.021759
-0.028610
-0.029176
-0.020766
-0.026442
-0.035438
-0.019924
-0.024921
-0.018855
-0.008505
SCALARS UY float 1
LOOKUP_TABLE default
-0.000000
-0.000000
-0.130000
-0.130000
-0.052000
-0.078007
-0.000000
-0.000000
-0.000000
-0.000000
-0.000000
-0.000000
-0.000000
-0.000000
-0.000000
-0.000000
-0.000000
-0.000000
-0.000000
-0.000000
-0.000000
-0.000000
-0.000000
-0.000000
-0.000000
-0.000000
-0.000000
-0.000000
-0.000000
-0.000000
-0.000000
-0.000000
-0.000000
-0.000000
-0.000000
-0.000000
-0.000000
-0.000000
-0.000000
-0.003897
-0.007794
-0.011690
-0.015587
-0.019484
-0.023380
-0.027277
-0.031174
-0.035070
-0.038967
-0.042863
-0.046760
-0.050656
-0.054552
-0.058448
-0.062344
-0.066240
-0.070138
-0.074041
-0.081757
-0.085475
-0.089185
-0.092895
-0.096605
-0.100316
-0.104026
-0.107737
-0.111447
-0.115158
-0.118868
-0.122579
-0.126289
-0.130000
-0.130000
-0.130000
-0.130000
-0.130000
-0.130000
-0.130000
-0.130000
-0.130000
-0.130000
-0.130000
-0.130000
-0.130000
-0.130000
-0.130000
-0.130000
-0.130000
-0.130000
-0.130000
-0.130000
-0.130000
-0.130000
-0.130000
-0.130000
-0.130000
-0.130000
-0.130000
-0.130000
-0.130000
-0.130000
-0.130000
-0.130000
-0.130000
-0.126102
-0.122204
-0.118307
-0.114409
-0.110511
-0.106614
-0.102716
-0.098819
-0.094922
-0.091024
-0.087127
-0.083230
-0.079333
-0.075436
-0.071539
-0.067642
-0.063746
-0.059848
-0.055944
-0.048235
-0.044522
-0.040811
-0.037101
-0.033390
-0.029680
-0.025970
-0.022260
-0.018550
-0.014840
-0.011130
-0.007420
-0.003710
-0.052762
-0.053536
-0.054301
-0.055056
-0.055833
-0.056590
-0.057363
-0.058120
-0.058886
-0.059648
-0.060412
-0.061176
-0.061932
-0.062706
-0.063471
-0.064225
-0.064996
-0.065768
-0.066522
-0.067287
-0.068060
-0.068817
-0.069581
-0.070345
-0.071108
-0.071874
-0.072633
-0.073406
-0.074165
-0.074943
-0.075701
-0.076471
-0.077250
-0.080308
-0.079312
-0.059181
-0.060549
-0.057516
-0.062541
-0.116434
-0.119351
-0.120429
-0.116901
-0.090515
-0.092949
-0.095730
-0.071460
-0.071514
-0.069421
-0.126358
-0.124504
-0.126911
-0.122808
-0.120214
-0.116851
-0.126568
-0.126679
-0.090854
-0.094038
-0.091222
-0.093705
-0.087873
-0.090342
-0.087484
-0.123207
-0.126494
-0.127052
-0.122728
-0.123342
-0.126479
-0.111294
-0.111093
-0.108283
-0.119918
-0.105606
-0.106264
-0.108942
-0.102950
-0.100098
-0.102951
-0.100481
-0.102875
-0.105171
-0.080791
-0.080781
-0.077805
-0.125127
-0.078405
-0.097265
-0.096885
-0.096741
-0.099206
-0.099481
-0.096954
-0.094462
-0.093578
-0.122855
-0.114832
-0.114883
-0.112082
-0.118028
-0.069591
-0.071890
-0.073548
-0.070583
-0.073592
-0.126288
-0.126778
-0.123022
-0.095932
-0.099906
-0.085416
-0.084281
-0.082054
-0.057386
-0.061050
-0.057742
-0.087963
-0.060290
-0.125687
-0.123194
-0.122133
-0.124285
-0.123385
-0.120703
-0.123934
-0.126670
-0.061352
-0.058460
-0.056699
-0.122996
-0.123788
-0.126653
-0.065260
-0.063414
-0.083211
-0.081998
-0.080395
-0.087613
-0.086455
-0.083558
-0.127008
-0.123680
-0.123694
-0.115784
-0.112799
-0.114698
-0.126749
-0.117996
-0.063648
-0.066853
-0.127679
-0.068376
-0.126487
-0.090111
-0.111485
-0.109269
-0.108461
-0.121418
-0.110302
-0.063515
-0.113273
-0.119853
-0.078493
-0.085421
-0.082836
-0.120955
-0.118498
-0.066462
-0.074944
-0.108586
-0.111778
-0.108603
-0.059658
-0.061975
-0.064547
-0.065680
-0.111727
-0.126724
-0.112571
-0.113321
-0.109332
-0.110375
-0.106393
-0.109494
-0.093305
-0.089120
-0.124226
-0.120815
-0.119387
-0.106596
-0.114233
-0.114451
-0.117657
-0.127483
-0.071556
-0.068954
-0.074359
-0.125037
-0.126483
-0.122324
-0.069429
-0.114982
-0.118514
-0.116473
-0.120389
-0.123603
-0.118782
-0.116984
-0.115720
-0.109810
-0.063043
-0.060906
-0.066462
-0.067960
-0.095312
-0.098616
-0.094935
-0.123487
-0.126815
-0.111530
-0.108298
-0.120299
-0.098311
-0.111330
-0.114979
-0.127125
-0.095137
-0.097866
-0.097381
-0.076879
-0.075395
-0.071510
-0.100354
-0.067955
-0.071581
-0.070789
-0.067069
-0.118510
-0.115714
-0.120605
-0.121110
-0.064647
-0.061897
-0.069201
-0.070604
-0.105376
-0.103794
-0.102366
-0.108299
-0.104945
-0.108023
-0.112918
-0.071884
-0.071296
-0.069125
-0.078091
-0.081273
-0.068430
-0.074518
-0.078315
-0.072355
-0.075312
-0.076389
-0.080915
-0.083566
-0.080429
-0.085141
-0.126095
-0.080088
-0.077386
-0.115637
-0.101849
-0.105594
-0.101556
-0.105143
-0.066386
-0.101442
-0.098659
-0.091581
-0.095313
-0.094052
-0.072553
-0.074059
-0.064452
-0.094652
-0.092061
-0.091567
-0.097694
-0.094089
-0.082270
-0.097492
-0.085410
-0.109884
-0.112271
-0.108798
-0.108916
-0.109069
-0.105574
-0.079076
-0.078612
-0.075073
-0.082194
-0.084016
-0.082800
-0.103244
-0.065940
-0.102296
-0.100795
-0.106882
-0.108708
-0.110618
-0.112054
-0.086835
-0.086761
-0.090277
-0.093853
-0.069756
-0.073776
-0.068144
-0.071819
-0.067710
-0.089431
-0.087226
-0.090027
-0.086613
-0.094085
-0.097670
-0.090462
-0.119344
-0.120412
-0.116088
-0.086992
-0.082903
-0.114192
-0.114014
-0.098635
-0.100627
-0.097675
-0.090722
-0.097005
-0.100715
-0.099082
-0.103656
-0.102189
-0.105252
-0.124193
-0.121488
-0.117384
-0.127459
-0.090731
-0.087642
-0.090199
-0.092870
-0.122918
-0.125714
-0.120592
-0.104461
-0.103543
-0.100900
-0.105051
-0.080842
-0.081573
-0.083910
-0.079158
-0.061061
-0.106472
-0.098343
-0.101879
-0.100812
-0.105290
-0.101187
-0.104228
-0.098925
-0.111553
-0.108127
-0.108457
-0.100669
-0.111945
-0.095875
-0.092218
-0.103891
-0.084340
-0.083205
-0.082031
-0.079791
-0.085503
-0.075322
-0.086949
-0.078488
-0.113599
-0.114243
-0.116717
-0.092883
-0.096500
-0.054900
-0.099619
-0.072505
-0.076282
-0.075606
-0.071274
-0.075088
-0.112730
-0.084407
-0.071969
-0.115123
-0.102016
-0.124136
-0.069681
-0.065976
-0.062584