# vtk DataFile Version 2.0
Test
ASCII
DATASET POLYDATA
POINTS 1445 float
0.000000 0.000000 0.000000
1.000000 0.000000 0.000000
1.000000 1.000000 0.000000
0.000000 1.000000 0.000000
0.000000 0.400000 0.000000
1.000000 0.600000 0.000000
0.029412 0.000000 0.000000
0.058824 0.000000 0.000000
0.088235 0.000000 0.000000
0.117647 0.000000 0.000000
0.147059 0.000000 0.000000
0.176471 0.000000 0.000000
0.205882 0.000000 0.000000
0.235294 0.000000 0.000000
0.264706 0.000000 0.000000
0.294118 0.000000 0.000000
0.323529 0.000000 0.000000
0.352941 0.000000 0.000000
0.382353 0.000000 0.000000
0.411765 0.000000 0.000000
0.441176 0.000000 0.000000
0.470588 0.000000 0.000000
0.500000 0.000000 0.000000
0.529412 0.000000 0.000000
0.558824 0.000000 0.000000
0.588235 0.000000 0.000000
0.617647 0.000000 0.000000
0.647059 0.000000 0.000000
0.676471 0.000000 0.000000
0.705882 0.000000 0.000000
0.735294 0.000000 0.000000
0.764706 0.000000 0.000000
0.794118 0.000000 0.000000
0.823529 0.000000 0.000000
0.852941 0.000000 0.000000
0.882353 0.000000 0.000000
0.911765 0.000000 0.000000
0.941176 0.000000 0.000000
0.970588 0.000000 0.000000
1.000000 0.030000 0.000000
1.000000 0.060000 0.000000
1.000000 0.090000 0.000000
1.000000 0.120000 0.000000
1.000000 0.150000 0.000000
1.000000 0.180000 0.000000
1.000000 0.210000 0.000000
1.000000 0.240000 0.000000
1.000000 0.270000 0.000000
1.000000 0.300000 0.000000
1.000000 0.330000 0.000000
1.000000 0.360000 0.000000
1.000000 0.390000 0.000000
1.000000 0.420000 0.000000
1.000000 0.450000 0.000000
1.000000 0.480000 0.000000
1.000000 0.510000 0.000000
1.000000 0.540000 0.000000
1.000000 0.570000 0.000000
1.000000 0.628571 0.000000
1.000000 0.657143 0.000000
1.000000 0.685714 0.000000
1.000000 0.714286 0.000000
1.000000 0.742857 0.000000
1.000000 0.771429 0.000000
1.000000 0.800000 0.000000
1.000000 0.828571 0.000000
1.000000 0.857143 0.000000
1.000000 0.885714 0.000000
1.000000 0.914286 0.000000
1.000000 0.942857 0.000000
1.000000 0.971429 0.000000
0.970588 1.000000 0.000000
0.941176 1.000000 0.000000
0.911765 1.000000 0.000000
0.882353 1.000000 0.000000
0.852941 1.000000 0.000000
0.823529 1.000000 0.000000
0.794118 1.000000 0.000000
0.764706 1.000000 0.000000
0.735294 1.000000 0.000000
0.705882 1.000000 0.000000
0.676471 1.000000 0.000000
0.647059 1.000000 0.000000
0.617647 1.000000 0.000000
0.588235 1.000000 0.000000
0.558824 1.000000 0.000000
0.529412 1.000000 0.000000
0.500000 1.000000 0.000000
0.470588 1.000000 0.000000
0.441176 1.000000 0.000000
0.411765 1.000000 0.000000
0.382353 1.000000 0.000000
0.352941 1.000000 0.000000
0.323529 1.000000 0.000000
0.294118 1.000000 0.000000
0.264706 1.000000 0.000000
0.235294 1.000000 0.000000
0.205882 1.000000 0.000000
0.176471 1.000000 0.000000
0.147059 1.000000 0.000000
0.117647 1.000000 0.000000
0.088235 1.000000 0.000000
0.058824 1.000000 0.000000
0.029412 1.000000 0.000000
0.000000 0.970000 0.000000
0.000000 0.940000 0.000000
0.000000 0.910000 0.000000
0.000000 0.880000 0.000000
0.000000 0.850000 0.000000
0.000000 0.820000 0.000000
0.000000 0.790000 0.000000
0.000000 0.760000 0.000000
0.000000 0.730000 0.000000
0.000000 0.700000 0.000000
0.000000 0.670000 0.000000
0.000000 0.640000 0.000000
0.000000 0.610000 0.000000
0.000000 0.580000 0.000000
0.000000 0.550000 0.000000
0.000000 0.520000 0.000000
0.000000 0.490000 0.000000
0.000000 0.460000 0.000000
0.000000 0.430000 0.000000
0.000000 0.371429 0.000000
0.000000 0.342857 0.000000
0.000000 0.314286 0.000000
0.000000 0.285714 0.000000
0.000000 0.257143 0.000000
0.000000 0.228571 0.000000
0.000000 0.200000 0.000000
0.000000 0.171429 0.000000
0.000000 0.142857 0.000000
0.000000 0.114286 0.000000
0.000000 0.085714 0.000000
0.000000 0.057143 0.000000
0.000000 0.028571 0.000000
0.029412 0.405882 0.000000
0.058824 0.411765 0.000000
0.088235 0.417647 0.000000
0.117647 0.423529 0.000000
0.147059 0.429412 0.000000
0.176471 0.435294 0.000000
0.205882 0.441176 0.000000
0.235294 0.447059 0.000000
0.264706 0.452941 0.000000
0.294118 0.458824 0.000000
0.323529 0.464706 0.000000
0.352941 0.470588 0.000000
0.382353 0.476471 0.000000
0.411765 0.482353 0.000000
0.441176 0.488235 0.000000
0.470588 0.494118 0.000000
0.500000 0.500000 0.000000
0.529412 0.505882 0.000000
0.558824 0.511765 0.000000
0.588235 0.517647 0.000000
0.617647 0.523529 0.000000
0.647059 0.529412 0.000000
0.676471 0.535294 0.000000
0.705882 0.541176 0.000000
0.735294 0.547059 0.000000
0.764706 0.552941 0.000000
0.794118 0.558824 0.000000
0.823529 0.564706 0.000000
0.852941 0.570588 0.000000
0.882353 0.576471 0.000000
0.911765 0.582353 0.000000
0.941176 0.588235 0.000000
0.970588 0.594118 0.000000
0.948492 0.617586 0.000000
0.918239 0.609871 0.000000
0.126115 0.454845 0.000000
0.100318 0.465379 0.000000
0.103006 0.442114 0.000000
0.117916 0.480680 0.000000
0.029145 0.895585 0.000000
0.046774 0.918032 0.000000
0.024990 0.926329 0.000000
0.056315 0.899171 0.000000
0.977770 0.695981 0.000000
0.963577 0.714729 0.000000
0.973827 0.736127 0.000000
0.605253 0.549394 0.000000
0.579370 0.549801 0.000000
0.570019 0.533816 0.000000
0.896809 0.971959 0.000000
0.919426 0.957680 0.000000
0.927686 0.976215 0.000000
0.899487 0.944624 0.000000
0.974081 0.924646 0.000000
0.977161 0.898750 0.000000
0.076578 0.973587 0.000000
0.102577 0.974440 0.000000
0.861693 0.698664 0.000000
0.848870 0.723174 0.000000
0.839521 0.701504 0.000000
0.820447 0.720618 0.000000
0.872237 0.675719 0.000000
0.882611 0.694724 0.000000
0.895344 0.672729 0.000000
0.606326 0.947716 0.000000
0.624868 0.973015 0.000000
0.599776 0.977307 0.000000
0.167986 0.944019 0.000000
0.199183 0.948746 0.000000
0.187884 0.972901 0.000000
0.787752 0.856005 0.000000
0.754801 0.854462 0.000000
0.778588 0.832828 0.000000
0.191471 0.922393 0.000000
0.801312 0.812216 0.000000
0.829867 0.817276 0.000000
0.805526 0.837896 0.000000
0.812775 0.791772 0.000000
0.822869 0.769821 0.000000
0.833826 0.791773 0.000000
0.849982 0.772760 0.000000
0.791421 0.791198 0.000000
0.772962 0.808877 0.000000
0.180049 0.621172 0.000000
0.160680 0.621098 0.000000
0.172158 0.598185 0.000000
0.588124 0.962489 0.000000
0.142171 0.602810 0.000000
0.827587 0.748015 0.000000
0.859778 0.745080 0.000000
0.882413 0.743965 0.000000
0.872759 0.762938 0.000000
0.894601 0.765041 0.000000
0.910115 0.745588 0.000000
0.901004 0.726420 0.000000
0.877058 0.719626 0.000000
0.632694 0.945006 0.000000
0.818411 0.883232 0.000000
0.787667 0.883633 0.000000
0.812018 0.862064 0.000000
0.808649 0.907835 0.000000
0.066636 0.534974 0.000000
0.083909 0.552665 0.000000
0.058224 0.565435 0.000000
0.037551 0.542621 0.000000
0.025720 0.565794 0.000000
0.304619 0.971425 0.000000
0.276072 0.975195 0.000000
0.284125 0.946285 0.000000
0.795087 0.737757 0.000000
0.797357 0.768346 0.000000
0.869843 0.656802 0.000000
0.840870 0.648068 0.000000
0.865462 0.630915 0.000000
0.043233 0.441011 0.000000
0.028792 0.469222 0.000000
0.020751 0.443790 0.000000
0.846918 0.676414 0.000000
0.058991 0.463368 0.000000
0.051906 0.966804 0.000000
0.071758 0.947609 0.000000
0.048298 0.939447 0.000000
0.026398 0.956010 0.000000
0.967109 0.949068 0.000000
0.946807 0.928411 0.000000
0.940173 0.953295 0.000000
0.956764 0.974357 0.000000
0.076722 0.471546 0.000000
0.082324 0.449317 0.000000
0.066669 0.435847 0.000000
0.114035 0.946088 0.000000
0.091278 0.952186 0.000000
0.128453 0.974235 0.000000
0.027019 0.501643 0.000000
0.047138 0.487417 0.000000
0.943388 0.639892 0.000000
0.923239 0.630552 0.000000
0.974491 0.618278 0.000000
0.972785 0.673666 0.000000
0.943930 0.664809 0.000000
0.968693 0.642530 0.000000
0.780685 0.976970 0.000000
0.756289 0.951349 0.000000
0.776857 0.951460 0.000000
0.935276 0.890540 0.000000
0.927168 0.867561 0.000000
0.954227 0.882176 0.000000
0.745760 0.974977 0.000000
0.952002 0.907568 0.000000
0.068063 0.489215 0.000000
0.051512 0.513895 0.000000
0.027757 0.982136 0.000000
0.023217 0.525632 0.000000
0.982410 0.972952 0.000000
0.951072 0.692907 0.000000
0.957020 0.857438 0.000000
0.937630 0.840379 0.000000
0.966912 0.834149 0.000000
0.923427 0.933924 0.000000
0.982257 0.848323 0.000000
0.092881 0.488189 0.000000
0.976737 0.871201 0.000000
0.067960 0.921895 0.000000
0.886538 0.603532 0.000000
0.918896 0.656866 0.000000
0.898227 0.636966 0.000000
0.092880 0.930380 0.000000
0.929071 0.911440 0.000000
0.081137 0.510877 0.000000
0.592772 0.576158 0.000000
0.150419 0.835159 0.000000
0.138607 0.859733 0.000000
0.125762 0.835294 0.000000
0.155304 0.458505 0.000000
0.139466 0.476317 0.000000
0.134858 0.496115 0.000000
0.109061 0.504849 0.000000
0.112238 0.859343 0.000000
0.866826 0.974780 0.000000
0.026919 0.865848 0.000000
0.348411 0.871602 0.000000
0.339654 0.840899 0.000000
0.369544 0.848927 0.000000
0.925986 0.818235 0.000000
0.909684 0.842117 0.000000
0.929360 0.717495 0.000000
0.924028 0.685311 0.000000
0.879688 0.955544 0.000000
0.875200 0.929284 0.000000
0.903901 0.918287 0.000000
0.950764 0.819790 0.000000
0.047492 0.878635 0.000000
0.069665 0.880314 0.000000
0.081712 0.904992 0.000000
0.573454 0.980624 0.000000
0.556694 0.550113 0.000000
0.094318 0.530060 0.000000
0.563246 0.571677 0.000000
0.563825 0.961795 0.000000
0.155902 0.972929 0.000000
0.577162 0.940912 0.000000
0.545227 0.533787 0.000000
0.864670 0.884377 0.000000
0.860690 0.911575 0.000000
0.840756 0.895862 0.000000
0.137227 0.926016 0.000000
0.139814 0.950758 0.000000
0.109156 0.913646 0.000000
0.884976 0.899786 0.000000
0.910807 0.890052 0.000000
0.830819 0.844574 0.000000
0.157710 0.484545 0.000000
0.180718 0.468069 0.000000
0.154331 0.510861 0.000000
0.124262 0.522394 0.000000
0.341085 0.732964 0.000000
0.323736 0.758404 0.000000
0.312899 0.730066 0.000000
0.857321 0.949854 0.000000
0.839840 0.975483 0.000000
0.053549 0.857833 0.000000
0.031143 0.832960 0.000000
0.840338 0.925315 0.000000
0.300796 0.756054 0.000000
0.080783 0.856286 0.000000
0.096939 0.884378 0.000000
0.544800 0.977874 0.000000
0.949430 0.731579 0.000000
0.955247 0.752582 0.000000
0.934712 0.748859 0.000000
0.030153 0.591093 0.000000
[...]
POINT_DATA 1445
SCALARS UX float 1
LOOKUP_TABLE default
-0.231857
-0.000000
0.000000
-0.231857
-0.231857
0.000000
-0.225038
-0.218218
-0.211399
-0.204580
-0.197760
-0.190941
-0.184122
-0.177302
-0.170483
-0.163664
-0.156844
-0.150025
-0.143206
-0.136386
-0.129567
-0.122748
-0.115928
-0.109109
-0.102290
-0.095470
-0.088651
-0.081832
-0.075013
-0.068193
-0.061374
-0.054555
-0.047735
-0.040916
-0.034097
-0.027277
-0.020458
-0.013639
-0.006819
-0.000000
-0.000000
-0.000000
-0.000000
-0.000000
-0.000000
-0.000000
-0.000000
-0.000000
-0.000000
-0.000000
-0.000000
-0.000000
-0.000000
-0.000000
-0.000000
-0.000000
0.000000
0.000000
-0.000000
-0.000000
0.000000
-0.000000
-0.000000
-0.000000
-0.000000
0.000000
-0.000000
0.000000
-0.000000
0.000000
-0.000000
-0.006819
-0.013639
-0.020458
-0.027277
-0.034097
-0.040916
-0.047735
-0.054555
-0.061374
-0.068193
-0.075013
-0.081832
-0.088651
-0.095470
-0.102290
-0.109109
-0.115928
-0.122748
-0.129567
-0.136386
-0.143206
-0.150025
-0.156844
-0.163664
-0.170483
-0.177302
-0.184122
-0.190941
-0.197760
-0.204580
-0.211399
-0.218218
-0.225038
-0.231857
-0.231857
-0.231857
-0.231857
-0.231857
-0.231857
-0.231857
-0.231857
-0.231857
-0.231857
-0.231857
-0.231857
-0.231857
-0.231857
-0.231857
-0.231857
-0.231857
-0.231857
-0.231857
-0.231857
-0.231857
-0.231857
-0.231857
-0.231857
-0.231857
-0.231857
-0.231857
-0.231857
-0.231857
-0.231857
-0.231857
-0.231857
-0.225038
-0.218218
-0.211399
-0.204580
-0.197760
-0.190941
-0.184122
-0.177302
-0.170483
-0.163664
-0.156844
-0.150025
-0.143206
-0.136386
-0.129567
-0.122748
-0.115928
-0.109109
-0.102290
-0.095470
-0.088651
-0.081832
-0.075013
-0.068193
-0.061374
-0.054555
-0.047735
-0.040916
-0.034097
-0.027277
-0.020458
-0.013639
-0.006819
-0.011943
-0.018957
-0.202616
-0.208597
-0.207974
-0.204517
-0.225100
-0.221012
-0.226063
-0.218800
-0.005154
-0.008445
-0.006068
-0.091525
-0.097526
-0.099694
-0.023925
-0.018682
-0.016767
-0.023305
-0.006010
-0.005295
-0.214102
-0.208074
-0.032067
-0.035041
-0.037208
-0.041631
-0.029623
-0.027217
-0.024265
-0.091276
-0.086977
-0.092795
-0.192908
-0.185675
-0.188295
-0.049211
-0.056851
-0.051336
-0.187463
-0.046067
-0.039447
-0.045090
-0.043409
-0.041069
-0.038529
-0.034783
-0.048361
-0.052640
-0.190111
-0.194602
-0.191941
-0.095496
-0.198894
-0.039975
-0.032511
-0.027263
-0.029502
-0.024438
-0.020840
-0.022953
-0.028505
-0.085162
-0.042103
-0.049231
-0.043585
-0.044366
-0.216407
-0.212402
-0.218357
-0.223150
-0.225894
-0.161229
-0.167848
-0.165981
-0.047510
-0.046984
-0.030178
-0.036895
-0.031194
-0.221833
-0.225181
-0.227046
-0.035493
-0.218179
-0.219822
-0.215219
-0.220659
-0.225736
-0.007626
-0.012333
-0.013871
-0.010025
-0.214068
-0.212770
-0.216399
-0.205417
-0.210693
-0.202074
-0.225592
-0.220928
-0.013126
-0.017798
-0.005914
-0.006310
-0.013000
-0.007259
-0.050850
-0.056506
-0.051737
-0.015007
-0.016887
-0.010613
-0.058947
-0.011129
-0.216076
-0.219913
-0.225421
-0.226474
-0.004078
-0.011344
-0.009965
-0.014461
-0.007672
-0.017754
-0.004114
-0.210322
-0.005394
-0.216100
-0.026307
-0.018804
-0.023597
-0.210322
-0.016445
-0.213045
-0.094419
-0.196981
-0.199720
-0.202698
-0.195849
-0.199521
-0.200589
-0.206570
-0.205834
-0.030877
-0.225616
-0.151075
-0.153106
-0.146175
-0.017161
-0.020940
-0.016378
-0.017615
-0.027895
-0.028936
-0.022281
-0.011416
-0.220846
-0.215704
-0.212911
-0.098898
-0.102783
-0.209989
-0.101264
-0.101130
-0.195710
-0.098038
-0.105442
-0.031377
-0.032300
-0.036922
-0.200040
-0.199440
-0.206548
-0.026669
-0.020680
-0.039226
-0.195291
-0.189956
-0.196074
-0.203046
-0.152774
-0.156796
-0.159309
-0.033081
-0.037134
-0.219441
-0.224636
-0.037019
-0.162115
-0.213127
-0.209381
-0.105541
-0.011725
-0.010376
-0.015137
-0.224866
-0.210687
-0.206362
-0.018873
-0.121718
-0.121121
-0.128436
-0.126553
-0.194712
-0.201213
-0.048936
-0.053926
-0.189386
-0.182273
-0.189979
-0.198692
-0.006074
-0.012532
-0.006105
-0.216719
-0.226635
-0.209272
-0.024764
-0.169913
-0.174628
-0.171313
-0.217509
-0.223721
-0.176706
-0.202767
-0.206194
-0.163754
-0.169046
-0.163060
-0.150233
-0.154579
-0.156406
-0.149289
-0.180177
-0.162076
-0.157955
-0.188606
-0.159181
-0.161728
-0.165171
-0.169155
-0.182971
-0.154124
-0.150581
-0.205348
-0.203943
-0.210787
-0.186103
-0.193772
-0.176490
-0.165088
-0.161930
-0.155999
-0.168160
-0.171707
-0.215587
-0.175108
-0.225733
-0.026960
-0.030960
-0.033133
-0.165422
-0.159223
-0.155154
-0.172761
-0.167103
-0.175747
-0.168574
-0.161548
-0.175911
-0.018297
-0.170459
-0.023265
-0.171095
-0.175960
-0.170820
-0.175591
-0.169036
-0.179437
-0.169849
-0.175263
-0.179563
-0.158283
-0.157393
-0.164987
-0.151906
-0.152355
-0.225096
-0.220419
-0.218339
-0.214848
-0.188933
-0.182249
-0.183235
-0.162706
-0.171287
-0.168454
-0.187226
-0.184913
-0.174308
-0.180756
-0.203142
-0.208588
-0.210115
-0.211112
-0.195959
-0.195662
-0.189514
-0.195823
-0.199777
-0.199882
-0.173057
-0.179531
-0.176245
-0.174122
-0.188987
-0.192632
-0.194776
-0.221798
-0.159567
-0.152564
-0.154816
-0.181669
-0.174419
-0.178210
-0.219980
-0.203950
-0.209043
-0.204837
-0.211824
-0.175712
-0.148023
-0.054717
-0.053849
-0.061041
-0.214338
-0.216074
-0.059556
-0.005864
-0.186031
-0.190027
-0.182433
-0.012631
-0.192970
-0.145719
-0.148240
-0.209645
-0.220304
-0.044278
-0.051137
-0.045741
-0.049562
-0.188032
-0.155805
-0.186221
-0.062283
-0.055129
-0.060392
-0.140336
-0.138018
-0.225975
-0.143547
-0.080489
-0.078982
-0.087271
-0.085812
-0.182379
-0.036649
-0.210964
-0.179463
-0.194948
-0.028446
-0.046295
-0.182993
-0.159148
-0.159783
-0.154517
-0.032642
-0.093315
-0.099735
-0.098220
-0.091897
-0.057490
-0.053775
-0.061537
-0.057042
-0.105068
-0.224956
-0.106058
-0.148909
-0.142024
-0.199029
-0.065854
-0.064546
-0.192879
-0.152047
-0.058155
-0.074023
-0.072455
-0.135970
-0.140077
-0.132925
-0.183111
-0.033371
-0.103128
-0.107309
-0.102374
-0.104875
-0.109390
-0.090841
-0.097241
-0.092537
-0.095681
-0.098002
-0.084863
-0.085912
-0.088815
-0.164965
-0.170306
-0.067332
-0.071849
-0.071555
-0.067358
-0.063088
-0.053001
-0.078016
-0.079106
-0.081959
-0.075287
-0.025318
-0.022822
-0.038099
-0.042742
-0.142292
-0.149882
-0.144199
-0.147650
-0.147503
-0.144745
-0.053245
-0.058883
-0.052295
-0.060237
-0.065736
-0.064639
-0.138694
-0.140348
-0.063837
-0.065529
-0.061907
-0.057772
-0.064414
-0.067293
-0.071374
-0.053195
-0.039743
-0.132748
-0.130633
-0.136130
-0.132037
-0.125079
-0.128203
-0.059029
-0.066005
-0.156526
-0.069454
-0.067909
-0.134704
-0.167308
-0.162193
-0.145320
-0.134902
-0.139655
-0.042327
-0.135119
-0.136966
-0.140314
-0.072762
-0.071188
-0.131562
-0.133148
-0.078018
-0.074202
-0.078207
-0.117213
-0.123457
-0.117661
-0.122168
-0.073097
-0.071083
-0.112558
-0.110993
-0.117661
-0.065875
-0.068620
-0.128107
-0.129918
-0.133258
-0.127647
-0.129077
-0.138303
-0.043657
-0.081032
-0.085052
-0.124567
-0.126167
-0.225628
-0.218154
-0.204376
-0.205223
-0.121172
-0.122922
-0.126327
-0.046655
-0.198310
-0.114263
-0.116029
-0.223334
-0.119398
-0.131390
-0.084862
-0.079779
-0.048934
-0.117636
-0.200899
-0.119233
-0.107367
-0.109071
-0.076408
-0.074791
-0.162570
-0.110738
-0.112344
-0.040177
-0.124514
-0.125574
-0.103840
-0.105488
-0.102184
-0.096960
-0.098601
-0.156565
-0.087884
-0.091913
-0.079978
-0.078339
-0.184520
-0.207209
-0.091725
-0.086630
-0.076737
-0.069868
-0.072714
-0.095312
-0.090093
-0.089148
-0.096009
-0.216047
-0.162767
-0.102862
-0.098784
-0.113900
-0.109775
-0.116452
-0.112522
-0.082301
-0.086384
-0.086810
-0.093653
-0.088453
-0.083242
-0.198894
-0.075462
-0.081619
-0.047952
-0.179935
-0.112318
-0.111768
-0.079546
-0.100484
-0.105665
-0.094749
-0.115908
-0.115525
-0.120914
-0.114067
-0.226772
-0.105159
-0.147099
-0.143924
-0.082878
-0.063003
-0.093495
-0.056373
-0.101620
-0.100369
-0.108491
-0.107229
-0.115038
-0.131217
-0.136586
-0.134496
-0.088349
-0.115981
-0.110646
-0.114683
-0.121085
-0.122013
-0.119415
-0.120370
-0.069009
-0.186352
-0.181396
-0.070982
-0.145153
-0.141837
-0.131672
-0.128266
-0.127176
-0.074767
-0.135675
-0.189759
-0.124160
-0.043350
-0.078419
-0.140481
-0.139121
-0.110589
-0.108188
-0.143261
-0.119590
-0.082146
-0.146769
-0.125939
-0.151220
-0.194331
-0.219914
-0.212900
-0.029241
-0.023259
-0.023883
-0.027340
-0.006757
-0.010845
-0.005794
-0.013057
-0.226703
-0.223412
-0.225789
-0.140332
-0.134331
-0.132163
-0.207931
-0.213175
-0.215090
-0.208552
-0.225847
-0.226561
-0.017755
-0.023783
-0.199789
-0.196816
-0.194649
-0.190226
-0.202234
-0.204639
-0.207592
-0.140581
-0.144880
-0.139062
-0.038949
-0.046182
-0.043562
-0.182646
-0.175006
-0.180521
-0.044394
-0.185790
-0.192410
-0.186767
-0.188448
-0.190788
-0.193328
-0.197074
-0.183496
-0.179216
-0.041746
-0.037255
-0.039916
-0.136361
-0.032963
-0.191882
-0.199345
-0.204593
-0.202355
-0.207419
-0.211016
-0.208904
-0.203352
-0.146695
-0.189754
-0.182626
-0.188272
-0.187491
-0.015450
-0.019455
-0.013500
-0.008707
-0.005963
-0.070628
-0.064009
-0.065876
-0.184346
-0.184873
-0.201679
-0.194962
-0.200663
-0.010024
-0.006676
-0.004811
-0.196364
-0.013678
-0.012035
-0.016638
-0.011198
-0.006121
-0.224231
-0.219524
-0.217986
-0.221832
-0.017788
-0.019087
-0.015458
-0.026440
-0.021163
-0.029783
-0.006265
-0.010929
-0.218731
-0.214059
-0.225942
-0.225547
-0.218857
-0.224598
-0.181007
-0.175351
-0.180120
-0.216850
-0.214970
-0.221244
-0.172909
-0.220728
-0.015781
-0.011943
-0.006436
-0.005383
-0.227779
-0.220513
-0.221892
-0.217396
-0.224185
-0.214103
-0.227743
-0.021535
-0.226463
-0.015757
-0.205550
-0.213052
-0.208260
-0.021535
-0.215412
-0.018812
-0.137438
-0.034876
-0.032137
-0.029159
-0.036008
-0.032336
-0.031268
-0.025287
-0.026023
-0.200980
-0.006241
-0.080781
-0.078751
-0.085681
-0.214696
-0.210917
-0.215479
-0.214242
-0.203962
-0.202921
-0.209576
-0.220441
-0.011011
-0.016152
-0.018945
-0.132959
-0.129073
-0.021868
-0.130592
-0.130727
-0.036147
-0.133819
-0.126415
-0.200480
-0.199557
-0.194935
-0.031817
-0.032417
-0.025308
-0.205188
-0.211177
-0.192631
-0.036566
-0.041901
-0.035783
-0.028811
-0.079083
-0.075060
-0.072548
-0.198776
-0.194723
-0.012416
-0.007221
-0.194838
-0.069742
-0.018730
-0.022476
-0.126316
-0.220132
-0.221480
-0.216719
-0.006991
-0.021170
-0.025495
-0.212984
-0.110138
-0.110736
-0.103421
-0.105304
-0.037144
-0.030644
-0.182921
-0.177931
-0.042471
-0.049584
-0.041878
-0.033165
-0.225783
-0.219325
-0.225751
-0.015138
-0.005221
-0.022585
-0.207093
-0.061944
-0.057229
-0.060544
-0.014348
-0.008135
-0.055151
-0.029090
-0.025663
-0.068103
-0.062811
-0.068797
-0.081624
-0.077278
-0.075451
-0.082567
-0.051680
-0.069781
-0.073902
-0.043251
-0.072675
-0.070129
-0.066685
-0.062702
-0.048886
-0.077733
-0.081276
-0.026508
-0.027914
-0.021070
-0.045754
-0.038084
-0.055367
-0.066768
-0.069927
-0.075858
-0.063697
-0.060149
-0.016270
-0.056749
-0.006124
-0.204897
-0.200897
-0.198724
-0.066435
-0.072634
-0.076703
-0.059096
-0.064753
-0.056110
-0.063282
-0.070309
-0.055945
-0.213560
-0.061398
-0.208591
-0.060761
-0.055897
-0.061037
-0.056266
-0.062821
-0.052420
-0.062008
-0.056594
-0.052294
-0.073574
-0.074464
-0.066870
-0.079950
-0.079502
-0.006761
-0.011438
-0.013518
-0.017009
-0.042924
-0.049608
-0.048622
-0.069151
-0.060570
-0.063403
-0.044631
-0.046944
-0.057549
-0.051101
-0.028715
-0.023269
-0.021742
-0.020745
-0.035898
-0.036195
-0.042343
-0.036034
-0.032080
-0.031975
-0.058800
-0.052326
-0.055611
-0.057735
-0.042870
-0.039225
-0.037081
-0.010059
-0.072290
-0.079293
-0.077041
-0.050188
-0.057438
-0.053647
-0.011877
-0.027907
-0.022813
-0.027020
-0.020033
-0.056145
-0.083834
-0.177140
-0.178008
-0.170815
-0.017519
-0.015783
-0.172301
-0.225993
-0.045826
-0.041830
-0.049424
-0.219226
-0.038887
-0.086138
-0.083617
-0.022212
-0.011552
-0.187579
-0.180720
-0.186116
-0.182295
-0.043825
-0.076052
-0.045636
-0.169574
-0.176728
-0.171465
-0.091521
-0.093839
-0.005882
-0.088310
-0.151368
-0.152875
-0.144586
-0.146045
-0.049478
-0.195208
-0.020893
-0.052394
-0.036909
-0.203411
-0.185562
-0.048863
-0.072708
-0.072074
-0.077340
-0.199215
-0.138542
-0.132122
-0.133637
-0.139960
-0.174367
-0.178082
-0.170320
-0.174815
-0.126789
-0.006901
-0.125799
-0.082948
-0.089833
-0.032828
-0.166003
-0.167311
-0.038978
-0.079810
-0.173702
-0.157834
-0.159402
-0.095887
-0.091780
-0.098932
-0.048746
-0.198486
-0.128729
-0.124548
-0.129483
-0.126982
-0.122467
-0.141015
-0.134616
-0.139320
-0.136176
-0.133855
-0.146994
-0.145945
-0.143042
-0.066891
-0.061551
-0.164524
-0.160008
-0.160302
-0.164499
-0.168769
-0.178855
-0.153841
-0.152751
-0.149898
-0.156570
-0.206539
-0.209035
-0.193758
-0.189115
-0.089565
-0.081975
-0.087658
-0.084207
-0.084354
-0.087112
-0.178612
-0.172974
-0.179562
-0.171620
-0.166120
-0.167218
-0.093163
-0.091509
-0.168020
-0.166328
-0.169950
-0.174085
-0.167443
-0.164564
-0.160483
-0.178662
-0.192114
-0.099109
-0.101224
-0.095727
-0.099819
-0.106778
-0.103654
-0.172827
-0.165852
-0.075331
-0.162403
-0.163948
-0.097153
-0.064548
-0.069664
-0.086537
-0.096955
-0.092202
-0.189530
-0.096738
-0.094891
-0.091543
-0.159095
-0.160669
-0.100295
-0.098709
-0.153839
-0.157655
-0.153650
-0.114644
-0.108400
-0.114196
-0.109689
-0.158760
-0.160774
-0.119299
-0.120864
-0.114196
-0.165982
-0.163237
-0.103750
-0.101939
-0.098599
-0.104210
-0.102780
-0.093554
-0.188199
-0.150825
-0.146805
-0.107290
-0.105689
-0.006228
-0.013703
-0.027481
-0.026634
-0.110685
-0.108934
-0.105530
-0.185202
-0.033547
-0.117594
-0.115828
-0.008523
-0.112459
-0.100467
-0.146995
-0.152078
-0.182923
-0.114221
-0.030958
-0.112624
-0.124490
-0.122786
-0.155449
-0.157066
-0.069287
-0.121119
-0.119513
-0.191680
-0.107343
-0.106283
-0.128016
-0.126368
-0.129673
-0.134897
-0.133255
-0.075292
-0.143973
-0.139944
-0.151879
-0.153518
-0.047336
-0.024648
-0.140131
-0.145227
-0.155120
-0.161989
-0.159143
-0.136545
-0.141764
-0.142709
-0.135848
-0.015810
-0.069090
-0.128995
-0.133073
-0.117957
-0.122082
-0.115405
-0.119335
-0.149556
-0.145473
-0.145047
-0.138203
-0.143404
-0.148615
-0.032963
-0.156395
-0.150238
-0.183905
-0.051922
-0.119539
-0.120088
-0.152311
-0.131373
-0.126192
-0.137108
-0.115949
-0.116332
-0.110943
-0.117790
-0.005085
-0.126698
-0.084758
-0.087933
-0.148979
-0.168854
-0.138361
-0.175483
-0.130237
-0.131488
-0.123365
-0.124628
-0.116819
-0.100640
-0.095270
-0.097361
-0.143508
-0.115876
-0.121211
-0.117174
-0.110772
-0.109844
-0.112442
-0.111487
-0.162848
-0.045504
-0.050460
-0.160875
-0.086704
-0.090020
-0.100185
-0.103591
-0.104681
-0.157090
-0.096182
-0.042098
-0.107697
-0.188507
-0.153438
-0.091376
-0.092736
-0.121267
-0.123669
-0.088596
-0.112267
-0.149711
-0.085087
-0.105918
-0.080636
-0.037526
SCALARS UY float 1
LOOKUP_TABLE default
-0.000000
-0.000000
-0.541000
-0.541000
-0.216400
-0.324600
-0.000000
-0.000000
-0.000000
-0.000000
-0.000000
-0.000000
-0.000000
-0.000000
-0.000000
-0.000000
-0.000000
-0.000000
-0.000000
-0.000000
-0.000000
-0.000000
-0.000000
-0.000000
-0.000000
-0.000000
-0.000000
-0.000000
-0.000000
-0.000000
-0.000000
-0.000000
-0.000000
-0.000000
-0.000000
-0.000000
-0.000000
-0.000000
-0.000000
-0.016230
-0.032460
-0.048690
-0.064920
-0.081150
-0.097380
-0.113610
-0.129840
-0.146070
-0.162300
-0.178530
-0.194760
-0.210990
-0.227220
-0.243450
-0.259680
-0.275910
-0.292140
-0.308370
-0.340057
-0.355514
-0.370971
-0.386428
-0.401886
-0.417343
-0.432800
-0.448257
-0.463714
-0.479171
-0.494628
-0.510085
-0.525543
-0.541000
-0.541000
-0.541000
-0.541000
-0.541000
-0.541000
-0.541000
-0.541000
-0.541000
-0.541000
-0.541000
-0.541000
-0.541000
-0.541000
-0.541000
-0.541000
-0.541000
-0.541000
-0.541000
-0.541000
-0.541000
-0.541000
-0.541000
-0.541000
-0.541000
-0.541000
-0.541000
-0.541000
-0.541000
-0.541000
-0.541000
-0.541000
-0.541000
-0.524770
-0.508540
-0.492310
-0.476080
-0.459850
-0.443620
-0.427390
-0.411160
-0.394930
-0.378700
-0.362470
-0.346240
-0.330010
-0.313780
-0.297550
-0.281320
-0.265090
-0.248860
-0.232630
-0.200943
-0.185486
-0.170029
-0.154572
-0.139114
-0.123657
-0.108200
-0.092743
-0.077286
-0.061829
-0.046372
-0.030915
-0.015457
-0.219582
-0.222765
-0.225947
-0.229129
-0.232312
-0.235494
-0.238677
-0.241859
-0.245041
-0.248224
-0.251406
-0.254588
-0.257771
-0.260953
-0.264135
-0.267318
-0.270500
-0.273682
-0.276865
-0.280047
-0.283229
-0.286412
-0.289594
-0.292776
-0.295959
-0.299141
-0.302323
-0.305506
-0.308688
-0.311871
-0.315053
-0.318235
-0.321418
-0.334114
-0.329940
-0.246071
-0.251770
-0.239184
-0.260048
-0.484511
-0.496655
-0.501144
-0.486451
-0.376526
-0.386668
-0.398245
-0.297222
-0.297442
-0.288795
-0.525830
-0.518105
-0.528132
-0.511041
-0.500233
-0.486223
-0.526710
-0.527172
-0.377977
-0.391237
-0.379514
-0.389854
-0.365564
-0.375846
-0.363946
-0.512714
-0.526401
-0.528723
-0.510714
-0.513271
-0.526339
-0.463099
-0.462264
-0.450560
-0.499015
-0.439408
-0.442146
-0.453301
-0.428348
-0.416473
-0.428349
-0.418063
-0.428038
-0.437602
-0.336054
-0.336014
-0.323618
-0.520706
-0.326120
-0.404676
-0.403088
-0.402485
-0.412749
-0.413887
-0.403363
-0.392993
-0.389318
-0.511248
-0.477828
-0.478045
-0.466377
-0.491138
-0.289421
-0.298992
-0.305900
-0.293558
-0.306094
-0.525541
-0.527580
-0.511940
-0.399127
-0.415675
-0.355330
-0.350605
-0.341325
-0.238587
-0.253849
-0.240090
-0.365940
-0.250682
-0.523041
-0.512656
-0.508240
-0.517201
-0.513446
-0.502270
-0.515732
-0.527127
-0.255106
-0.243080
-0.235793
-0.511833
-0.515132
-0.527061
-0.271389
-0.263693
-0.346182
-0.341128
-0.334488
-0.364453
-0.359661
-0.347609
-0.528541
-0.514679
-0.514740
-0.481782
-0.469350
-0.477257
-0.527462
-0.490994
-0.264666
-0.278017
-0.531335
-0.284367
-0.526367
-0.374863
-0.463874
-0.454645
-0.451274
-0.505253
-0.458943
-0.264111
-0.471319
-0.498745
-0.326511
-0.355364
-0.344598
-0.503335
-0.493089
-0.276385
-0.311701
-0.451821
-0.465115
-0.451894
-0.248051
-0.257687
-0.268398
-0.273123
-0.464904
-0.527356
-0.468423
-0.471536
-0.454926
-0.459269
-0.442665
-0.455585
-0.388165
-0.370753
-0.516949
-0.502742
-0.496793
-0.443506
-0.475341
-0.476250
-0.489601
-0.530517
-0.297611
-0.286763
-0.309277
-0.520331
-0.526354
-0.509033
-0.288779
-0.478448
-0.493162
-0.484661
-0.500974
-0.514360
-0.494282
-0.486784
-0.481518
-0.456914
-0.262139
-0.253225
-0.276376
-0.282615
-0.396534
-0.410297
-0.394966
-0.513871
-0.527736
-0.464088
-0.450631
-0.500595
-0.409025
-0.463250
-0.478448
-0.529030
-0.395784
-0.407147
-0.405132
-0.319781
-0.313590
-0.297404
-0.417516
-0.282618
-0.297701
-0.294394
-0.278930
-0.493150
-0.481506
-0.501873
-0.503976
-0.268809
-0.257357
-0.287779
-0.293627
-0.438422
-0.431836
-0.425886
-0.450630
-0.436667
-0.449479
-0.469849
-0.298952
-0.296504
-0.287463
-0.324825
-0.338080
-0.284565
-0.309931
-0.325749
-0.300914
-0.313230
-0.317718
-0.336568
-0.347612
-0.334546
-0.354171
-0.524738
-0.333125
-0.321870
-0.481186
-0.423759
-0.439359
-0.422539
-0.437477
-0.276047
-0.422064
-0.410474
-0.381001
-0.396543
-0.391295
-0.301740
-0.308013
-0.267996
-0.393786
-0.382992
-0.380937
-0.406454
-0.391441
-0.342226
-0.405615
-0.355314
-0.457211
-0.467158
-0.452697
-0.453190
-0.453829
-0.439273
-0.328910
-0.326976
-0.312234
-0.341895
-0.349483
-0.344419
-0.429552
-0.274200
-0.425610
-0.419370
-0.444721
-0.452327
-0.460280
-0.466261
-0.361227
-0.360919
-0.375562
-0.390458
-0.290086
-0.306832
-0.283368
-0.298687
-0.281576
-0.372060
-0.362871
-0.374536
-0.360316
-0.391426
-0.406357
-0.376335
-0.496623
-0.501070
-0.483063
-0.361882
-0.344849
-0.475165
-0.474424
-0.410381
-0.418676
-0.406382
-0.377424
-0.403590
-0.419038
-0.412239
-0.431287
-0.425180
-0.437935
-0.516816
-0.505551
-0.488460
-0.530419
-0.377455
-0.364592
-0.375240
-0.386379
-0.511507
-0.523152
-0.501820
-0.434639
-0.430817
-0.419810
-0.437107
-0.336273
-0.339320
-0.349053
-0.329263
-0.253956
-0.443013
-0.409171
-0.423893
-0.419453
-0.438100
-0.421012
-0.433678
-0.411554
-0.464176
-0.449908
-0.451279
-0.418820
-0.465811
-0.398882
-0.383647
-0.432272
-0.350853
-0.346127
-0.341239
-0.331908
-0.355700
-0.313274
-0.361702
-0.326460
-0.472700
-0.475379
-0.485686
-0.386417
-0.401484
-0.228342
-0.414475
-0.301557
-0.317279
-0.314462
-0.296450
-0.312296
-0.469072
-0.351124
-0.299304
-0.479042
-0.424447
-0.516576
-0.289774
-0.274346