# vtk DataFile Version 2.0
Test
ASCII
DATASET POLYDATA
POINTS 1445 float
0.000000 0.000000 0.000000
1.000000 0.000000 0.000000
1.000000 1.000000 0.000000
0.000000 1.000000 0.000000
0.000000 0.400000 0.000000
1.000000 0.600000 0.000000
0.029412 0.000000 0.000000
0.058824 0.000000 0.000000
0.088235 0.000000 0.000000
0.117647 0.000000 0.000000
0.147059 0.000000 0.000000
0.176471 0.000000 0.000000
0.205882 0.000000 0.000000
0.235294 0.000000 0.000000
0.264706 0.000000 0.000000
0.294118 0.000000 0.000000
0.323529 0.000000 0.000000
0.352941 0.000000 0.000000
0.382353 0.000000 0.000000
0.411765 0.000000 0.000000
0.441176 0.000000 0.000000
0.470588 0.000000 0.000000
0.500000 0.000000 0.000000
0.529412 0.000000 0.000000
0.558824 0.000000 0.000000
0.588235 0.000000 0.000000
0.617647 0.000000 0.000000
0.647059 0.000000 0.000000
0.676471 0.000000 0.000000
0.705882 0.000000 0.000000
0.735294 0.000000 0.000000
0.764706 0.000000 0.000000
0.794118 0.000000 0.000000
0.823529 0.000000 0.000000
0.852941 0.000000 0.000000
0.882353 0.000000 0.000000
0.911765 0.000000 0.000000
0.941176 0.000000 0.000000
0.970588 0.000000 0.000000
1.000000 0.030000 0.000000
1.000000 0.060000 0.000000
1.000000 0.090000 0.000000
1.000000 0.120000 0.000000
1.000000 0.150000 0.000000
1.000000 0.180000 0.000000
1.000000 0.210000 0.000000
1.000000 0.240000 0.000000
1.000000 0.270000 0.000000
1.000000 0.300000 0.000000
1.000000 0.330000 0.000000
1.000000 0.360000 0.000000
1.000000 0.390000 0.000000
1.000000 0.420000 0.000000
1.000000 0.450000 0.000000
1.000000 0.480000 0.000000
1.000000 0.510000 0.000000
1.000000 0.540000 0.000000
1.000000 0.570000 0.000000
1.000000 0.628571 0.000000
1.000000 0.657143 0.000000
1.000000 0.685714 0.000000
1.000000 0.714286 0.000000
1.000000 0.742857 0.000000
1.000000 0.771429 0.000000
1.000000 0.800000 0.000000
1.000000 0.828571 0.000000
1.000000 0.857143 0.000000
1.000000 0.885714 0.000000
1.000000 0.914286 0.000000
1.000000 0.942857 0.000000
1.000000 0.971429 0.000000
0.970588 1.000000 0.000000
0.941176 1.000000 0.000000
0.911765 1.000000 0.000000
0.882353 1.000000 0.000000
0.852941 1.000000 0.000000
0.823529 1.000000 0.000000
0.794118 1.000000 0.000000
0.764706 1.000000 0.000000
0.735294 1.000000 0.000000
0.705882 1.000000 0.000000
0.676471 1.000000 0.000000
0.647059 1.000000 0.000000
0.617647 1.000000 0.000000
0.588235 1.000000 0.000000
0.558824 1.000000 0.000000
0.529412 1.000000 0.000000
0.500000 1.000000 0.000000
0.470588 1.000000 0.000000
0.441176 1.000000 0.000000
0.411765 1.000000 0.000000
0.382353 1.000000 0.000000
0.352941 1.000000 0.000000
0.323529 1.000000 0.000000
0.294118 1.000000 0.000000
0.264706 1.000000 0.000000
0.235294 1.000000 0.000000
0.205882 1.000000 0.000000
0.176471 1.000000 0.000000
0.147059 1.000000 0.000000
0.117647 1.000000 0.000000
0.088235 1.000000 0.000000
0.058824 1.000000 0.000000
0.029412 1.000000 0.000000
0.000000 0.970000 0.000000
0.000000 0.940000 0.000000
0.000000 0.910000 0.000000
0.000000 0.880000 0.000000
0.000000 0.850000 0.000000
0.000000 0.820000 0.000000
0.000000 0.790000 0.000000
0.000000 0.760000 0.000000
0.000000 0.730000 0.000000
0.000000 0.700000 0.000000
0.000000 0.670000 0.000000
0.000000 0.640000 0.000000
0.000000 0.610000 0.000000
0.000000 0.580000 0.000000
0.000000 0.550000 0.000000
0.000000 0.520000 0.000000
0.000000 0.490000 0.000000
0.000000 0.460000 0.000000
0.000000 0.430000 0.000000
0.000000 0.371429 0.000000
0.000000 0.342857 0.000000
0.000000 0.314286 0.000000
0.000000 0.285714 0.000000
0.000000 0.257143 0.000000
0.000000 0.228571 0.000000
0.000000 0.200000 0.000000
0.000000 0.171429 0.000000
0.000000 0.142857 0.000000
0.000000 0.114286 0.000000
0.000000 0.085714 0.000000
0.000000 0.057143 0.000000
0.000000 0.028571 0.000000
0.029412 0.405882 0.000000
0.058824 0.411765 0.000000
0.088235 0.417647 0.000000
0.117647 0.423529 0.000000
0.147059 0.429412 0.000000
0.176471 0.435294 0.000000
0.205882 0.441176 0.000000
0.235294 0.447059 0.000000
0.264706 0.452941 0.000000
0.294118 0.458824 0.000000
0.323529 0.464706 0.000000
0.352941 0.470588 0.000000
0.382353 0.476471 0.000000
0.411765 0.482353 0.000000
0.441176 0.488235 0.000000
0.470588 0.494118 0.000000
0.500000 0.500000 0.000000
0.529412 0.505882 0.000000
0.558824 0.511765 0.000000
0.588235 0.517647 0.000000
0.617647 0.523529 0.000000
0.647059 0.529412 0.000000
0.676471 0.535294 0.000000
0.705882 0.541176 0.000000
0.735294 0.547059 0.000000
0.764706 0.552941 0.000000
0.794118 0.558824 0.000000
0.823529 0.564706 0.000000
0.852941 0.570588 0.000000
0.882353 0.576471 0.000000
0.911765 0.582353 0.000000
0.941176 0.588235 0.000000
0.970588 0.594118 0.000000
0.948492 0.617586 0.000000
0.918239 0.609871 0.000000
0.126115 0.454845 0.000000
0.100318 0.465379 0.000000
0.103006 0.442114 0.000000
0.117916 0.480680 0.000000
0.029145 0.895585 0.000000
0.046774 0.918032 0.000000
0.024990 0.926329 0.000000
0.056315 0.899171 0.000000
0.977770 0.695981 0.000000
0.963577 0.714729 0.000000
0.973827 0.736127 0.000000
0.605253 0.549394 0.000000
0.579370 0.549801 0.000000
0.570019 0.533816 0.000000
0.896809 0.971959 0.000000
0.919426 0.957680 0.000000
0.927686 0.976215 0.000000
0.899487 0.944624 0.000000
0.974081 0.924646 0.000000
0.977161 0.898750 0.000000
0.076578 0.973587 0.000000
0.102577 0.974440 0.000000
0.861693 0.698664 0.000000
0.848870 0.723174 0.000000
0.839521 0.701504 0.000000
0.820447 0.720618 0.000000
0.872237 0.675719 0.000000
0.882611 0.694724 0.000000
0.895344 0.672729 0.000000
0.606326 0.947716 0.000000
0.624868 0.973015 0.000000
0.599776 0.977307 0.000000
0.167986 0.944019 0.000000
0.199183 0.948746 0.000000
0.187884 0.972901 0.000000
0.787752 0.856005 0.000000
0.754801 0.854462 0.000000
0.778588 0.832828 0.000000
0.191471 0.922393 0.000000
0.801312 0.812216 0.000000
0.829867 0.817276 0.000000
0.805526 0.837896 0.000000
0.812775 0.791772 0.000000
0.822869 0.769821 0.000000
0.833826 0.791773 0.000000
0.849982 0.772760 0.000000
0.791421 0.791198 0.000000
0.772962 0.808877 0.000000
0.180049 0.621172 0.000000
0.160680 0.621098 0.000000
0.172158 0.598185 0.000000
0.588124 0.962489 0.000000
0.142171 0.602810 0.000000
0.827587 0.748015 0.000000
0.859778 0.745080 0.000000
0.882413 0.743965 0.000000
0.872759 0.762938 0.000000
0.894601 0.765041 0.000000
0.910115 0.745588 0.000000
0.901004 0.726420 0.000000
0.877058 0.719626 0.000000
0.632694 0.945006 0.000000
0.818411 0.883232 0.000000
0.787667 0.883633 0.000000
0.812018 0.862064 0.000000
0.808649 0.907835 0.000000
0.066636 0.534974 0.000000
0.083909 0.552665 0.000000
0.058224 0.565435 0.000000
0.037551 0.542621 0.000000
0.025720 0.565794 0.000000
0.304619 0.971425 0.000000
0.276072 0.975195 0.000000
0.284125 0.946285 0.000000
0.795087 0.737757 0.000000
0.797357 0.768346 0.000000
0.869843 0.656802 0.000000
0.840870 0.648068 0.000000
0.865462 0.630915 0.000000
0.043233 0.441011 0.000000
0.028792 0.469222 0.000000
0.020751 0.443790 0.000000
0.846918 0.676414 0.000000
0.058991 0.463368 0.000000
0.051906 0.966804 0.000000
0.071758 0.947609 0.000000
0.048298 0.939447 0.000000
0.026398 0.956010 0.000000
0.967109 0.949068 0.000000
0.946807 0.928411 0.000000
0.940173 0.953295 0.000000
0.956764 0.974357 0.000000
0.076722 0.471546 0.000000
0.082324 0.449317 0.000000
0.066669 0.435847 0.000000
0.114035 0.946088 0.000000
0.091278 0.952186 0.000000
0.128453 0.974235 0.000000
0.027019 0.501643 0.000000
0.047138 0.487417 0.000000
0.943388 0.639892 0.000000
0.923239 0.630552 0.000000
0.974491 0.618278 0.000000
0.972785 0.673666 0.000000
0.943930 0.664809 0.000000
0.968693 0.642530 0.000000
0.780685 0.976970 0.000000
0.756289 0.951349 0.000000
0.776857 0.951460 0.000000
0.935276 0.890540 0.000000
0.927168 0.867561 0.000000
0.954227 0.882176 0.000000
0.745760 0.974977 0.000000
0.952002 0.907568 0.000000
0.068063 0.489215 0.000000
0.051512 0.513895 0.000000
0.027757 0.982136 0.000000
0.023217 0.525632 0.000000
0.982410 0.972952 0.000000
0.951072 0.692907 0.000000
0.957020 0.857438 0.000000
0.937630 0.840379 0.000000
0.966912 0.834149 0.000000
0.923427 0.933924 0.000000
0.982257 0.848323 0.000000
0.092881 0.488189 0.000000
0.976737 0.871201 0.000000
0.067960 0.921895 0.000000
0.886538 0.603532 0.000000
0.918896 0.656866 0.000000
0.898227 0.636966 0.000000
0.092880 0.930380 0.000000
0.929071 0.911440 0.000000
0.081137 0.510877 0.000000
0.592772 0.576158 0.000000
0.150419 0.835159 0.000000
0.138607 0.859733 0.000000
0.125762 0.835294 0.000000
0.155304 0.458505 0.000000
0.139466 0.476317 0.000000
0.134858 0.496115 0.000000
0.109061 0.504849 0.000000
0.112238 0.859343 0.000000
0.866826 0.974780 0.000000
0.026919 0.865848 0.000000
0.348411 0.871602 0.000000
0.339654 0.840899 0.000000
0.369544 0.848927 0.000000
0.925986 0.818235 0.000000
0.909684 0.842117 0.000000
0.929360 0.717495 0.000000
0.924028 0.685311 0.000000
0.879688 0.955544 0.000000
0.875200 0.929284 0.000000
0.903901 0.918287 0.000000
0.950764 0.819790 0.000000
0.047492 0.878635 0.000000
0.069665 0.880314 0.000000
0.081712 0.904992 0.000000
0.573454 0.980624 0.000000
0.556694 0.550113 0.000000
0.094318 0.530060 0.000000
0.563246 0.571677 0.000000
0.563825 0.961795 0.000000
0.155902 0.972929 0.000000
0.577162 0.940912 0.000000
0.545227 0.533787 0.000000
0.864670 0.884377 0.000000
0.860690 0.911575 0.000000
0.840756 0.895862 0.000000
0.137227 0.926016 0.000000
0.139814 0.950758 0.000000
0.109156 0.913646 0.000000
0.884976 0.899786 0.000000
0.910807 0.890052 0.000000
0.830819 0.844574 0.000000
0.157710 0.484545 0.000000
0.180718 0.468069 0.000000
0.154331 0.510861 0.000000
0.124262 0.522394 0.000000
0.341085 0.732964 0.000000
0.323736 0.758404 0.000000
0.312899 0.730066 0.000000
0.857321 0.949854 0.000000
0.839840 0.975483 0.000000
0.053549 0.857833 0.000000
0.031143 0.832960 0.000000
0.840338 0.925315 0.000000
0.300796 0.756054 0.000000
0.080783 0.856286 0.000000
0.096939 0.884378 0.000000
0.544800 0.977874 0.000000
0.949430 0.731579 0.000000
0.955247 0.752582 0.000000
0.934712 0.748859 0.000000
0.030153 0.591093 0.000000
[...]
POINT_DATA 1445
SCALARS UX float 1
LOOKUP_TABLE default
-0.056852
0.000524
-0.000000
-0.057419
-0.057153
0.000000
-0.055165
-0.053478
-0.051790
-0.050103
-0.048416
-0.046728
-0.045041
-0.043354
-0.041666
-0.039979
-0.038292
-0.036604
-0.034917
-0.033229
-0.031542
-0.029854
-0.028167
-0.026479
-0.024792
-0.023104
-0.021417
-0.019729
-0.018041
-0.016354
-0.014666
-0.012978
-0.011290
-0.009602
-0.007915
-0.006227
-0.004539
-0.002851
-0.001164
0.000524
0.000524
0.000524
0.000524
0.000523
0.000523
0.000522
0.000522
0.000521
0.000520
0.000519
0.000517
0.000515
0.000512
0.000509
0.000504
0.000496
0.000481
0.000437
-0.000000
0.000000
-0.000000
-0.000000
-0.000000
-0.000000
-0.000000
-0.000000
-0.000000
-0.000000
-0.000000
-0.000000
-0.000000
-0.001689
-0.003378
-0.005068
-0.006757
-0.008446
-0.010136
-0.011826
-0.013515
-0.015205
-0.016894
-0.018584
-0.020273
-0.021963
-0.023652
-0.025341
-0.027030
-0.028719
-0.030408
-0.032096
-0.033785
-0.035473
-0.037162
-0.038850
-0.040538
-0.042227
-0.043915
-0.045603
-0.047291
-0.048979
-0.050667
-0.052355
-0.054043
-0.055731
-0.057419
-0.057419
-0.057419
-0.057420
-0.057421
-0.057422
-0.057423
-0.057424
-0.057425
-0.057427
-0.057428
-0.057430
-0.057431
-0.057433
-0.057435
-0.057438
-0.057440
-0.057439
-0.057416
-0.056864
-0.056849
-0.056845
-0.056846
-0.056847
-0.056848
-0.056849
-0.056850
-0.056850
-0.056851
-0.056851
-0.056852
-0.056852
-0.055460
-0.053790
-0.052105
-0.050408
-0.048714
-0.047028
-0.045340
-0.043652
-0.041963
-0.040275
-0.038579
-0.036890
-0.035199
-0.033502
-0.031822
-0.030131
-0.028454
-0.026778
-0.025087
-0.023407
-0.021712
-0.020022
-0.018335
-0.016641
-0.014957
-0.013272
-0.011591
-0.009910
-0.008235
-0.006555
-0.004881
-0.003228
-0.001611
-0.003004
-0.004732
-0.050181
-0.051676
-0.051451
-0.050668
-0.055747
-0.054735
-0.055985
-0.054188
-0.001281
-0.002097
-0.001506
-0.022678
-0.024182
-0.024632
-0.005927
-0.004628
-0.004153
-0.005773
-0.001489
-0.001312
-0.053024
-0.051532
-0.007966
-0.008698
-0.009240
-0.010332
-0.007367
-0.006765
-0.006040
-0.022613
-0.021548
-0.022989
-0.047778
-0.045987
-0.046636
-0.012195
-0.014089
-0.012723
-0.046431
-0.011419
-0.009778
-0.011175
-0.010762
-0.010185
-0.009553
-0.008626
-0.011990
-0.013049
-0.047100
-0.048211
-0.047554
-0.023659
-0.049274
-0.009917
-0.008067
-0.006765
-0.007318
-0.006061
-0.005171
-0.005698
-0.007078
-0.021099
-0.010432
-0.012199
-0.010800
-0.010992
-0.053613
-0.052620
-0.054093
-0.055281
-0.055958
-0.039936
-0.041574
-0.041112
-0.011786
-0.011651
-0.007512
-0.009178
-0.007770
-0.054936
-0.055787
-0.056235
-0.008822
-0.054053
-0.054440
-0.053301
-0.054647
-0.055904
-0.001889
-0.003055
-0.003436
-0.002483
-0.053035
-0.052693
-0.053538
-0.050874
-0.052180
-0.050047
-0.055889
-0.054735
-0.003284
-0.004450
-0.001497
-0.001572
-0.003243
-0.001820
-0.012597
-0.013999
-0.012818
-0.003718
-0.004184
-0.002629
-0.014604
-0.002757
-0.053534
-0.054482
-0.055826
-0.056105
-0.001010
-0.002821
-0.002469
-0.003583
-0.001901
-0.004398
-0.001019
-0.052109
-0.001336
-0.053519
-0.006550
-0.004690
-0.005888
-0.052089
-0.004074
-0.052783
-0.023418
-0.048789
-0.049466
-0.050204
-0.048496
-0.049427
-0.049698
-0.051180
-0.050979
-0.007649
-0.055875
-0.037424
-0.037928
-0.036212
-0.004253
-0.005189
-0.004067
-0.004383
-0.006910
-0.007168
-0.005520
-0.002829
-0.054694
-0.053422
-0.052730
-0.024501
-0.025476
-0.052025
-0.025115
-0.025054
-0.048471
-0.024289
-0.026098
-0.007774
-0.008002
-0.009148
-0.049544
-0.049395
-0.051155
-0.006607
-0.005124
-0.009721
-0.048385
-0.047058
-0.048582
-0.050307
-0.037852
-0.038846
-0.039469
-0.008195
-0.009199
-0.054347
-0.055634
-0.009171
-0.040162
-0.052784
-0.051856
-0.026146
-0.002910
-0.002574
-0.003755
-0.055702
-0.052194
-0.051126
-0.004680
-0.030152
-0.030026
-0.031837
-0.031336
-0.048225
-0.049835
-0.012124
-0.013360
-0.046926
-0.045161
-0.047072
-0.049228
-0.001505
-0.003107
-0.001514
-0.053674
-0.056130
-0.051831
-0.006136
-0.042106
-0.043273
-0.042453
-0.053881
-0.055417
-0.043788
-0.050235
-0.051081
-0.040582
-0.041889
-0.040408
-0.037231
-0.038305
-0.038759
-0.036995
-0.044626
-0.040162
-0.039144
-0.046714
-0.039435
-0.040064
-0.040918
-0.041902
-0.045338
-0.038183
-0.037307
-0.050866
-0.050516
-0.052210
-0.046112
-0.048009
-0.043728
-0.040900
-0.040120
-0.038652
-0.041659
-0.042539
-0.053404
-0.043379
-0.055913
-0.006681
-0.007672
-0.008211
-0.040977
-0.039442
-0.038436
-0.042807
-0.041407
-0.043548
-0.041769
-0.040029
-0.043585
-0.004536
-0.042239
-0.005769
-0.042384
-0.043586
-0.042313
-0.043494
-0.041871
-0.044455
-0.042082
-0.043420
-0.044483
-0.039228
-0.039007
-0.040886
-0.037650
-0.037757
-0.055754
-0.054597
-0.054081
-0.053219
-0.046802
-0.045146
-0.045393
-0.040302
-0.042426
-0.041726
-0.046382
-0.045812
-0.043175
-0.044771
-0.050317
-0.051664
-0.052043
-0.052292
-0.048540
-0.048465
-0.046944
-0.048504
-0.049483
-0.049508
-0.042864
-0.044467
-0.043654
-0.043128
-0.046817
-0.047720
-0.048250
-0.054936
-0.039525
-0.037790
-0.038349
-0.045000
-0.043206
-0.044145
-0.054482
-0.050524
-0.051784
-0.050742
-0.052474
-0.043469
-0.036671
-0.013569
-0.013351
-0.015134
-0.053086
-0.053517
-0.014763
-0.001454
-0.046078
-0.047068
-0.045188
-0.003132
-0.047795
-0.036105
-0.036731
-0.051925
-0.054570
-0.011008
-0.012707
-0.011372
-0.012312
-0.046588
-0.038606
-0.046138
-0.015433
-0.013660
-0.014964
-0.034774
-0.034198
-0.055881
-0.035566
-0.019946
-0.019596
-0.021649
-0.021238
-0.045189
-0.009081
-0.052258
-0.044469
-0.048284
-0.007053
-0.011469
-0.045343
-0.039432
-0.039508
-0.038239
-0.008132
-0.023147
-0.024737
-0.024358
-0.022793
-0.014276
-0.013350
-0.015272
-0.014154
-0.026059
-0.055715
-0.026299
-0.036892
-0.035187
-0.049306
-0.016315
-0.015991
-0.047783
-0.037682
-0.014414
-0.018349
-0.017984
-0.033705
-0.034713
-0.032932
-0.045354
-0.008273
-0.025558
-0.026595
-0.025373
-0.025995
-0.027108
-0.022517
-0.024102
-0.022939
-0.023713
-0.024293
-0.021036
-0.021299
-0.022013
-0.040870
-0.042159
-0.016694
-0.017812
-0.017742
-0.016697
-0.015645
-0.013132
-0.019340
-0.019613
-0.020314
-0.018661
-0.006275
-0.005671
-0.009482
-0.010621
-0.035248
-0.037128
-0.035721
-0.036574
-0.036542
-0.035878
-0.013228
-0.014606
-0.012928
-0.014961
-0.016322
-0.015990
-0.034360
-0.034771
-0.015820
-0.016241
-0.015356
-0.014330
-0.015980
-0.016690
-0.017704
-0.013197
-0.009876
-0.032896
-0.032370
-0.033729
-0.032732
-0.031010
-0.031781
-0.014625
-0.016353
-0.038773
-0.017210
-0.016826
-0.033375
-0.041451
-0.040186
-0.035997
-0.033438
-0.034617
-0.010511
-0.033472
-0.033931
-0.034758
-0.018034
-0.017642
-0.032594
-0.032988
-0.019334
-0.018401
-0.019397
-0.029047
-0.030593
-0.029160
-0.030272
-0.018111
-0.017611
-0.027885
-0.027497
-0.029148
-0.016351
-0.017026
-0.031736
-0.032185
-0.033011
-0.031627
-0.031983
-0.034260
-0.010815
-0.020093
-0.021092
-0.030862
-0.031259
-0.055883
-0.054033
-0.050621
-0.050830
-0.030019
-0.030453
-0.031295
-0.011577
-0.049123
-0.028308
-0.028746
-0.055314
-0.029579
-0.032548
-0.021030
-0.019772
-0.012145
-0.029145
-0.049765
-0.029542
-0.026600
-0.027023
-0.018933
-0.018531
-0.040270
-0.027437
-0.027836
-0.009953
-0.030845
-0.031120
-0.025729
-0.026139
-0.025317
-0.024025
-0.024433
-0.038783
-0.021790
-0.022790
-0.019815
-0.019408
-0.045707
-0.051328
-0.022730
-0.021469
-0.019044
-0.017344
-0.018044
-0.023615
-0.022324
-0.022109
-0.023808
-0.053513
-0.040318
-0.025504
-0.024492
-0.028239
-0.027216
-0.028868
-0.027893
-0.020414
-0.021428
-0.021508
-0.023203
-0.021916
-0.020627
-0.049270
-0.018721
-0.020223
-0.011908
-0.044582
-0.027835
-0.027701
-0.019736
-0.024895
-0.026195
-0.023490
-0.028722
-0.028625
-0.029960
-0.028264
-0.056167
-0.026052
-0.036459
-0.035671
-0.020563
-0.015645
-0.023170
-0.014004
-0.025191
-0.024872
-0.026892
-0.026571
-0.028513
-0.032524
-0.033852
-0.033333
-0.021917
-0.028758
-0.027438
-0.028438
-0.030019
-0.030245
-0.029599
-0.029833
-0.017119
-0.046159
-0.044931
-0.017585
-0.035973
-0.035150
-0.032632
-0.031788
-0.031521
-0.018523
-0.033622
-0.047003
-0.030772
-0.010740
-0.019428
-0.034817
-0.034476
-0.027417
-0.026832
-0.035500
-0.029652
-0.020351
-0.036369
-0.031218
-0.037471
-0.048134
-0.053908
-0.052183
-0.006769
-0.005276
-0.005510
-0.006276
-0.001149
-0.002160
-0.000910
-0.002708
-0.055571
-0.054757
-0.055346
-0.034228
-0.032723
-0.032275
-0.050932
-0.052230
-0.052704
-0.051086
-0.055365
-0.055541
-0.003870
-0.005362
-0.048912
-0.048177
-0.047640
-0.046546
-0.049515
-0.050111
-0.050840
-0.034267
-0.035331
-0.033891
-0.009116
-0.010906
-0.010257
-0.044675
-0.042784
-0.044148
-0.010463
-0.045452
-0.047090
-0.045694
-0.046109
-0.046687
-0.047316
-0.048243
-0.044884
-0.043825
-0.009815
-0.008704
-0.009364
-0.033223
-0.007644
-0.046957
-0.048804
-0.050102
-0.049549
-0.050802
-0.051691
-0.051168
-0.049794
-0.035780
-0.046434
-0.044670
-0.046067
-0.045874
-0.003318
-0.004306
-0.002830
-0.001647
-0.000965
-0.016956
-0.015318
-0.015780
-0.045092
-0.045223
-0.049377
-0.047715
-0.049128
-0.002040
-0.001166
-0.000734
-0.048063
-0.002904
-0.002454
-0.003594
-0.002247
-0.000991
-0.054965
-0.053800
-0.053420
-0.054372
-0.003917
-0.004270
-0.003438
-0.006020
-0.004714
-0.006847
-0.001051
-0.002210
-0.053603
-0.052449
-0.055428
-0.055284
-0.053629
-0.055056
-0.044270
-0.042871
-0.044051
-0.053138
-0.052673
-0.054225
-0.042267
-0.054098
-0.003411
-0.002454
-0.001069
-0.000827
-0.055843
-0.054039
-0.054385
-0.053272
-0.054952
-0.052459
-0.055832
-0.004835
-0.055516
-0.003376
-0.050364
-0.052192
-0.051007
-0.004806
-0.052783
-0.004155
-0.033485
-0.008108
-0.007430
-0.006693
-0.008446
-0.007515
-0.007239
-0.005758
-0.005917
-0.049212
-0.001021
-0.019469
-0.018967
-0.020682
-0.052604
-0.051669
-0.052794
-0.052487
-0.049950
-0.049692
-0.051339
-0.054025
-0.002202
-0.003474
-0.004165
-0.032381
-0.031429
-0.004907
-0.031789
-0.031829
-0.008422
-0.032594
-0.030808
-0.049088
-0.048860
-0.047716
-0.007351
-0.007499
-0.005740
-0.050253
-0.051735
-0.047145
-0.008552
-0.009877
-0.008351
-0.006626
-0.019049
-0.018054
-0.017432
-0.048667
-0.047664
-0.002549
-0.001264
-0.047692
-0.016738
-0.004112
-0.005039
-0.030737
-0.053946
-0.054280
-0.053102
-0.001217
-0.004727
-0.005802
-0.052179
-0.026756
-0.026881
-0.025071
-0.025572
-0.008669
-0.007061
-0.044744
-0.043509
-0.010006
-0.011769
-0.009855
-0.007700
-0.055347
-0.053748
-0.055338
-0.003223
-0.000769
-0.005066
-0.050724
-0.014813
-0.013647
-0.014467
-0.003037
-0.001497
-0.013134
-0.006688
-0.005837
-0.016334
-0.015026
-0.016506
-0.019678
-0.018603
-0.018151
-0.019911
-0.012266
-0.016749
-0.017768
-0.010181
-0.017464
-0.016833
-0.015981
-0.014995
-0.011589
-0.018715
-0.019592
-0.006040
-0.006387
-0.004694
-0.010811
-0.008913
-0.013197
-0.016003
-0.016784
-0.018252
-0.015242
-0.014365
-0.003510
-0.013523
-0.000997
-0.050180
-0.049191
-0.048652
-0.015919
-0.017453
-0.018460
-0.014107
-0.015506
-0.013370
-0.015142
-0.016879
-0.013327
-0.052322
-0.014682
-0.051093
-0.014515
-0.013311
-0.014583
-0.013402
-0.015024
-0.012454
-0.014826
-0.013486
-0.012421
-0.017687
-0.017907
-0.016033
-0.019262
-0.019157
-0.001154
-0.002312
-0.002826
-0.003691
-0.010102
-0.011756
-0.011513
-0.016591
-0.014467
-0.015168
-0.010527
-0.011100
-0.013720
-0.012124
-0.006585
-0.005237
-0.004859
-0.004614
-0.008363
-0.008436
-0.009958
-0.008395
-0.007417
-0.007391
-0.014029
-0.012426
-0.013240
-0.013765
-0.010090
-0.009189
-0.008657
-0.001969
-0.017367
-0.019101
-0.018543
-0.011898
-0.013693
-0.012755
-0.002417
-0.006391
-0.005130
-0.006170
-0.004443
-0.013456
-0.020225
-0.043310
-0.043525
-0.041745
-0.003813
-0.003384
-0.042114
-0.055397
-0.010818
-0.009830
-0.011709
-0.053723
-0.009101
-0.020795
-0.020171
-0.004974
-0.002341
-0.045887
-0.044190
-0.045530
-0.044581
-0.010332
-0.018300
-0.010778
-0.041441
-0.043211
-0.041909
-0.022126
-0.022700
-0.001132
-0.021332
-0.036959
-0.037307
-0.035254
-0.035668
-0.011730
-0.047783
-0.004653
-0.012452
-0.008611
-0.049811
-0.045397
-0.011581
-0.017485
-0.017409
-0.018676
-0.048777
-0.033755
-0.032166
-0.032542
-0.034106
-0.042619
-0.043540
-0.041619
-0.042733
-0.030845
-0.001185
-0.030603
-0.020005
-0.021709
-0.007608
-0.040558
-0.040881
-0.009129
-0.019229
-0.042461
-0.038557
-0.038919
-0.023205
-0.022198
-0.023977
-0.011541
-0.048593
-0.031332
-0.030298
-0.031519
-0.030899
-0.029783
-0.034372
-0.032789
-0.033952
-0.033175
-0.032600
-0.035851
-0.035591
-0.034874
-0.016049
-0.014763
-0.040189
-0.039071
-0.039143
-0.040183
-0.041238
-0.043738
-0.037545
-0.037275
-0.036570
-0.038221
-0.050586
-0.051199
-0.047419
-0.046269
-0.021643
-0.019764
-0.021171
-0.020317
-0.020371
-0.021034
-0.043676
-0.042301
-0.043984
-0.041941
-0.040580
-0.040918
-0.022533
-0.022124
-0.041055
-0.040636
-0.041529
-0.042553
-0.040908
-0.040197
-0.039186
-0.043685
-0.047034
-0.024004
-0.024527
-0.023167
-0.024176
-0.025896
-0.025125
-0.042246
-0.040520
-0.018120
-0.039666
-0.040049
-0.023520
-0.015454
-0.016719
-0.020893
-0.023468
-0.022292
-0.046373
-0.023418
-0.022961
-0.022132
-0.038846
-0.039236
-0.024298
-0.023905
-0.037546
-0.038487
-0.037495
-0.027847
-0.026303
-0.027736
-0.026622
-0.038765
-0.039264
-0.029001
-0.029388
-0.027738
-0.040544
-0.039866
-0.025153
-0.024705
-0.023878
-0.025266
-0.024912
-0.022630
-0.046050
-0.036797
-0.035802
-0.026029
-0.025633
-0.001020
-0.002870
-0.006279
-0.006069
-0.026869
-0.026436
-0.025594
-0.045332
-0.007782
-0.028579
-0.028142
-0.001587
-0.027308
-0.024341
-0.035853
-0.037110
-0.044739
-0.027744
-0.007142
-0.027349
-0.030285
-0.029863
-0.037945
-0.038346
-0.016625
-0.029451
-0.029053
-0.046911
-0.026042
-0.025778
-0.031157
-0.030749
-0.031568
-0.032860
-0.032453
-0.018111
-0.035102
-0.034105
-0.037062
-0.037468
-0.011193
-0.005581
-0.034155
-0.035415
-0.037855
-0.039555
-0.038852
-0.033268
-0.034559
-0.034788
-0.033090
-0.003392
-0.016576
-0.031395
-0.032405
-0.028663
-0.029685
-0.028033
-0.029006
-0.036481
-0.035470
-0.035372
-0.033679
-0.034965
-0.036254
-0.007639
-0.038174
-0.036656
-0.044980
-0.012333
-0.029059
-0.029194
-0.037162
-0.031988
-0.030703
-0.033404
-0.028171
-0.028282
-0.026932
-0.028626
-0.000738
-0.030832
-0.020452
-0.021237
-0.036337
-0.041253
-0.033716
-0.042895
-0.031704
-0.032016
-0.030004
-0.030318
-0.028384
-0.024380
-0.023053
-0.023570
-0.034983
-0.028147
-0.029466
-0.028467
-0.026885
-0.026657
-0.027301
-0.027065
-0.039786
-0.010739
-0.011965
-0.039289
-0.020934
-0.021755
-0.024269
-0.025112
-0.025381
-0.038352
-0.023279
-0.009896
-0.026128
-0.046126
-0.037449
-0.022090
-0.022427
-0.029489
-0.030073
-0.021403
-0.027254
-0.036526
-0.020535
-0.025686
-0.019434
-0.008765
SCALARS UY float 1
LOOKUP_TABLE default
-0.000000
-0.000000
-0.134000
-0.134000
-0.053600
-0.080407
-0.000000
-0.000000
-0.000000
-0.000000
-0.000000
-0.000000
-0.000000
-0.000000
-0.000000
-0.000000
-0.000000
-0.000000
-0.000000
-0.000000
-0.000000
-0.000000
-0.000000
-0.000000
-0.000000
-0.000000
-0.000000
-0.000000
-0.000000
-0.000000
-0.000000
-0.000000
-0.000000
-0.000000
-0.000000
-0.000000
-0.000000
-0.000000
-0.000000
-0.004017
-0.008033
-0.012050
-0.016067
-0.020083
-0.024100
-0.028116
-0.032133
-0.036149
-0.040166
-0.044182
-0.048198
-0.052214
-0.056231
-0.060246
-0.064262
-0.068278
-0.072296
-0.076319
-0.084273
-0.088105
-0.091929
-0.095753
-0.099578
-0.103403
-0.107227
-0.111052
-0.114877
-0.118701
-0.122526
-0.126351
-0.130175
-0.134000
-0.134000
-0.134000
-0.134000
-0.134000
-0.134000
-0.134000
-0.134000
-0.134000
-0.134000
-0.134000
-0.134000
-0.134000
-0.134000
-0.134000
-0.134000
-0.134000
-0.134000
-0.134000
-0.134000
-0.134000
-0.134000
-0.134000
-0.134000
-0.134000
-0.134000
-0.134000
-0.134000
-0.134000
-0.134000
-0.134000
-0.134000
-0.134000
-0.129982
-0.125965
-0.121947
-0.117929
-0.113912
-0.109894
-0.105877
-0.101860
-0.097842
-0.093825
-0.089808
-0.085791
-0.081774
-0.077757
-0.073741
-0.069724
-0.065707
-0.061689
-0.057665
-0.049719
-0.045891
-0.042066
-0.038242
-0.034418
-0.030593
-0.026769
-0.022945
-0.019121
-0.015297
-0.011473
-0.007648
-0.003824
-0.054385
-0.055183
-0.055972
-0.056750
-0.057551
-0.058331
-0.059128
-0.059909
-0.060698
-0.061483
-0.062270
-0.063058
-0.063838
-0.064635
-0.065424
-0.066201
-0.066996
-0.067791
-0.068568
-0.069357
-0.070154
-0.070934
-0.071722
-0.072510
-0.073296
-0.074085
-0.074868
-0.075664
-0.076447
-0.077249
-0.078030
-0.078824
-0.079627
-0.082779
-0.081752
-0.061002
-0.062412
-0.059286
-0.064465
-0.120017
-0.123023
-0.124134
-0.120498
-0.093300
-0.095809
-0.098676
-0.073659
-0.073714
-0.071557
-0.130246
-0.128335
-0.130816
-0.126586
-0.123913
-0.120446
-0.130463
-0.130577
-0.093649
-0.096932
-0.094029
-0.096589
-0.090577
-0.093122
-0.090176
-0.126998
-0.130386
-0.130961
-0.126504
-0.127137
-0.130371
-0.114719
-0.114511
-0.111615
-0.123608
-0.108855
-0.109534
-0.112294
-0.106118
-0.103178
-0.106118
-0.103573
-0.106040
-0.108407
-0.083277
-0.083267
-0.080199
-0.128977
-0.080818
-0.100258
-0.099866
-0.099718
-0.102259
-0.102542
-0.099937
-0.097369
-0.096458
-0.126636
-0.118365
-0.118418
-0.115531
-0.121659
-0.071733
-0.074102
-0.075811
-0.072755
-0.075857
-0.130174
-0.130678
-0.126807
-0.098883
-0.102980
-0.088044
-0.086874
-0.084579
-0.059152
-0.062929
-0.059519
-0.090669
-0.062145
-0.129554
-0.126984
-0.125891
-0.128109
-0.127182
-0.124417
-0.127748
-0.130567
-0.063240
-0.060259
-0.058444
-0.126781
-0.127597
-0.130550
-0.067268
-0.065365
-0.085772
-0.084521
-0.082868
-0.090309
-0.089115
-0.086129
-0.130916
-0.127485
-0.127500
-0.119347
-0.116270
-0.118227
-0.130649
-0.121626
-0.065606
-0.068910
-0.131607
-0.070480
-0.130379
-0.092884
-0.114916
-0.112631
-0.111798
-0.125154
-0.113696
-0.065469
-0.116758
-0.123541
-0.080908
-0.088049
-0.085385
-0.124677
-0.122144
-0.068507
-0.077250
-0.111927
-0.115218
-0.111945
-0.061494
-0.063882
-0.066533
-0.067701
-0.115165
-0.130623
-0.116035
-0.116807
-0.112696
-0.113771
-0.109666
-0.112863
-0.096176
-0.091862
-0.128048
-0.124532
-0.123061
-0.109875
-0.117747
-0.117973
-0.121277
-0.131405
-0.073758
-0.071076
-0.076647
-0.128884
-0.130375
-0.126087
-0.071565
-0.118520
-0.122161
-0.120057
-0.124093
-0.127406
-0.122436
-0.120583
-0.119281
-0.113189
-0.064982
-0.062780
-0.068507
-0.070051
-0.098245
-0.101651
-0.097857
-0.127286
-0.130717
-0.114962
-0.111631
-0.124000
-0.101336
-0.114755
-0.118517
-0.131037
-0.098065
-0.100878
-0.100377
-0.079245
-0.077715
-0.073710
-0.103442
-0.070046
-0.073783
-0.072967
-0.069132
-0.122157
-0.119274
-0.124316
-0.124836
-0.066637
-0.063802
-0.071331
-0.072777
-0.108618
-0.106987
-0.105516
-0.111631
-0.108174
-0.111347
-0.116393
-0.074096
-0.073490
-0.071252
-0.080494
-0.083773
-0.070536
-0.076811
-0.080725
-0.074582
-0.077629
-0.078740
-0.083404
-0.086138
-0.082904
-0.087761
-0.129975
-0.082552
-0.079767
-0.119196
-0.104983
-0.108843
-0.104681
-0.108378
-0.068429
-0.104563
-0.101695
-0.094399
-0.098246
-0.096946
-0.074786
-0.076337
-0.066435
-0.097565
-0.094893
-0.094385
-0.100700
-0.096984
-0.084801
-0.100492
-0.088038
-0.113265
-0.115726
-0.112146
-0.112267
-0.112425
-0.108822
-0.081510
-0.081031
-0.077383
-0.084723
-0.086601
-0.085347
-0.106421
-0.067969
-0.105444
-0.103897
-0.110171
-0.112053
-0.114022
-0.115502
-0.089507
-0.089431
-0.093055
-0.096741
-0.071902
-0.076046
-0.070241
-0.074029
-0.069793
-0.092183
-0.089910
-0.092797
-0.089278
-0.096980
-0.100676
-0.093246
-0.123016
-0.124117
-0.119660
-0.089669
-0.085454
-0.117705
-0.117522
-0.101670
-0.103723
-0.100680
-0.093513
-0.099990
-0.103814
-0.102131
-0.106845
-0.105333
-0.108490
-0.128014
-0.125226
-0.120996
-0.131381
-0.093523
-0.090339
-0.092974
-0.095728
-0.126700
-0.129582
-0.124303
-0.107675
-0.106729
-0.104005
-0.108284
-0.083330
-0.084083
-0.086492
-0.081594
-0.062940
-0.109748
-0.101369
-0.105014
-0.103914
-0.108530
-0.104301
-0.107435
-0.101969
-0.114985
-0.111454
-0.111794
-0.103766
-0.115390
-0.098826
-0.095055
-0.107088
-0.086935
-0.085765
-0.084555
-0.082246
-0.088134
-0.077640
-0.089625
-0.080903
-0.117094
-0.117758
-0.120309
-0.095741
-0.099469
-0.056589
-0.102685
-0.074736
-0.078630
-0.077932
-0.073467
-0.077398
-0.116199
-0.087004
-0.074183
-0.118665
-0.105155
-0.127955
-0.071825
-0.068006
-0.064510