# vtk DataFile Version 2.0
Test
ASCII
DATASET POLYDATA
POINTS 1445 float
0.000000 0.000000 0.000000
1.000000 0.000000 0.000000
1.000000 1.000000 0.000000
0.000000 1.000000 0.000000
0.000000 0.400000 0.000000
1.000000 0.600000 0.000000
0.029412 0.000000 0.000000
0.058824 0.000000 0.000000
0.088235 0.000000 0.000000
0.117647 0.000000 0.000000
0.147059 0.000000 0.000000
0.176471 0.000000 0.000000
0.205882 0.000000 0.000000
0.235294 0.000000 0.000000
0.264706 0.000000 0.000000
0.294118 0.000000 0.000000
0.323529 0.000000 0.000000
0.352941 0.000000 0.000000
0.382353 0.000000 0.000000
0.411765 0.000000 0.000000
0.441176 0.000000 0.000000
0.470588 0.000000 0.000000
0.500000 0.000000 0.000000
0.529412 0.000000 0.000000
0.558824 0.000000 0.000000
0.588235 0.000000 0.000000
0.617647 0.000000 0.000000
0.647059 0.000000 0.000000
0.676471 0.000000 0.000000
0.705882 0.000000 0.000000
0.735294 0.000000 0.000000
0.764706 0.000000 0.000000
0.794118 0.000000 0.000000
0.823529 0.000000 0.000000
0.852941 0.000000 0.000000
0.882353 0.000000 0.000000
0.911765 0.000000 0.000000
0.941176 0.000000 0.000000
0.970588 0.000000 0.000000
1.000000 0.030000 0.000000
1.000000 0.060000 0.000000
1.000000 0.090000 0.000000
1.000000 0.120000 0.000000
1.000000 0.150000 0.000000
1.000000 0.180000 0.000000
1.000000 0.210000 0.000000
1.000000 0.240000 0.000000
1.000000 0.270000 0.000000
1.000000 0.300000 0.000000
1.000000 0.330000 0.000000
1.000000 0.360000 0.000000
1.000000 0.390000 0.000000
1.000000 0.420000 0.000000
1.000000 0.450000 0.000000
1.000000 0.480000 0.000000
1.000000 0.510000 0.000000
1.000000 0.540000 0.000000
1.000000 0.570000 0.000000
1.000000 0.628571 0.000000
1.000000 0.657143 0.000000
1.000000 0.685714 0.000000
1.000000 0.714286 0.000000
1.000000 0.742857 0.000000
1.000000 0.771429 0.000000
1.000000 0.800000 0.000000
1.000000 0.828571 0.000000
1.000000 0.857143 0.000000
1.000000 0.885714 0.000000
1.000000 0.914286 0.000000
1.000000 0.942857 0.000000
1.000000 0.971429 0.000000
0.970588 1.000000 0.000000
0.941176 1.000000 0.000000
0.911765 1.000000 0.000000
0.882353 1.000000 0.000000
0.852941 1.000000 0.000000
0.823529 1.000000 0.000000
0.794118 1.000000 0.000000
0.764706 1.000000 0.000000
0.735294 1.000000 0.000000
0.705882 1.000000 0.000000
0.676471 1.000000 0.000000
0.647059 1.000000 0.000000
0.617647 1.000000 0.000000
0.588235 1.000000 0.000000
0.558824 1.000000 0.000000
0.529412 1.000000 0.000000
0.500000 1.000000 0.000000
0.470588 1.000000 0.000000
0.441176 1.000000 0.000000
0.411765 1.000000 0.000000
0.382353 1.000000 0.000000
0.352941 1.000000 0.000000
0.323529 1.000000 0.000000
0.294118 1.000000 0.000000
0.264706 1.000000 0.000000
0.235294 1.000000 0.000000
0.205882 1.000000 0.000000
0.176471 1.000000 0.000000
0.147059 1.000000 0.000000
0.117647 1.000000 0.000000
0.088235 1.000000 0.000000
0.058824 1.000000 0.000000
0.029412 1.000000 0.000000
0.000000 0.970000 0.000000
0.000000 0.940000 0.000000
0.000000 0.910000 0.000000
0.000000 0.880000 0.000000
0.000000 0.850000 0.000000
0.000000 0.820000 0.000000
0.000000 0.790000 0.000000
0.000000 0.760000 0.000000
0.000000 0.730000 0.000000
0.000000 0.700000 0.000000
0.000000 0.670000 0.000000
0.000000 0.640000 0.000000
0.000000 0.610000 0.000000
0.000000 0.580000 0.000000
0.000000 0.550000 0.000000
0.000000 0.520000 0.000000
0.000000 0.490000 0.000000
0.000000 0.460000 0.000000
0.000000 0.430000 0.000000
0.000000 0.371429 0.000000
0.000000 0.342857 0.000000
0.000000 0.314286 0.000000
0.000000 0.285714 0.000000
0.000000 0.257143 0.000000
0.000000 0.228571 0.000000
0.000000 0.200000 0.000000
0.000000 0.171429 0.000000
0.000000 0.142857 0.000000
0.000000 0.114286 0.000000
0.000000 0.085714 0.000000
0.000000 0.057143 0.000000
0.000000 0.028571 0.000000
0.029412 0.405882 0.000000
0.058824 0.411765 0.000000
0.088235 0.417647 0.000000
0.117647 0.423529 0.000000
0.147059 0.429412 0.000000
0.176471 0.435294 0.000000
0.205882 0.441176 0.000000
0.235294 0.447059 0.000000
0.264706 0.452941 0.000000
0.294118 0.458824 0.000000
0.323529 0.464706 0.000000
0.352941 0.470588 0.000000
0.382353 0.476471 0.000000
0.411765 0.482353 0.000000
0.441176 0.488235 0.000000
0.470588 0.494118 0.000000
0.500000 0.500000 0.000000
0.529412 0.505882 0.000000
0.558824 0.511765 0.000000
0.588235 0.517647 0.000000
0.617647 0.523529 0.000000
0.647059 0.529412 0.000000
0.676471 0.535294 0.000000
0.705882 0.541176 0.000000
0.735294 0.547059 0.000000
0.764706 0.552941 0.000000
0.794118 0.558824 0.000000
0.823529 0.564706 0.000000
0.852941 0.570588 0.000000
0.882353 0.576471 0.000000
0.911765 0.582353 0.000000
0.941176 0.588235 0.000000
0.970588 0.594118 0.000000
0.948492 0.617586 0.000000
0.918239 0.609871 0.000000
0.126115 0.454845 0.000000
0.100318 0.465379 0.000000
0.103006 0.442114 0.000000
0.117916 0.480680 0.000000
0.029145 0.895585 0.000000
0.046774 0.918032 0.000000
0.024990 0.926329 0.000000
0.056315 0.899171 0.000000
0.977770 0.695981 0.000000
0.963577 0.714729 0.000000
0.973827 0.736127 0.000000
0.605253 0.549394 0.000000
0.579370 0.549801 0.000000
0.570019 0.533816 0.000000
0.896809 0.971959 0.000000
0.919426 0.957680 0.000000
0.927686 0.976215 0.000000
0.899487 0.944624 0.000000
0.974081 0.924646 0.000000
0.977161 0.898750 0.000000
0.076578 0.973587 0.000000
0.102577 0.974440 0.000000
0.861693 0.698664 0.000000
0.848870 0.723174 0.000000
0.839521 0.701504 0.000000
0.820447 0.720618 0.000000
0.872237 0.675719 0.000000
0.882611 0.694724 0.000000
0.895344 0.672729 0.000000
0.606326 0.947716 0.000000
0.624868 0.973015 0.000000
0.599776 0.977307 0.000000
0.167986 0.944019 0.000000
0.199183 0.948746 0.000000
0.187884 0.972901 0.000000
0.787752 0.856005 0.000000
0.754801 0.854462 0.000000
0.778588 0.832828 0.000000
0.191471 0.922393 0.000000
0.801312 0.812216 0.000000
0.829867 0.817276 0.000000
0.805526 0.837896 0.000000
0.812775 0.791772 0.000000
0.822869 0.769821 0.000000
0.833826 0.791773 0.000000
0.849982 0.772760 0.000000
0.791421 0.791198 0.000000
0.772962 0.808877 0.000000
0.180049 0.621172 0.000000
0.160680 0.621098 0.000000
0.172158 0.598185 0.000000
0.588124 0.962489 0.000000
0.142171 0.602810 0.000000
0.827587 0.748015 0.000000
0.859778 0.745080 0.000000
0.882413 0.743965 0.000000
0.872759 0.762938 0.000000
0.894601 0.765041 0.000000
0.910115 0.745588 0.000000
0.901004 0.726420 0.000000
0.877058 0.719626 0.000000
0.632694 0.945006 0.000000
0.818411 0.883232 0.000000
0.787667 0.883633 0.000000
0.812018 0.862064 0.000000
0.808649 0.907835 0.000000
0.066636 0.534974 0.000000
0.083909 0.552665 0.000000
0.058224 0.565435 0.000000
0.037551 0.542621 0.000000
0.025720 0.565794 0.000000
0.304619 0.971425 0.000000
0.276072 0.975195 0.000000
0.284125 0.946285 0.000000
0.795087 0.737757 0.000000
0.797357 0.768346 0.000000
0.869843 0.656802 0.000000
0.840870 0.648068 0.000000
0.865462 0.630915 0.000000
0.043233 0.441011 0.000000
0.028792 0.469222 0.000000
0.020751 0.443790 0.000000
0.846918 0.676414 0.000000
0.058991 0.463368 0.000000
0.051906 0.966804 0.000000
0.071758 0.947609 0.000000
0.048298 0.939447 0.000000
0.026398 0.956010 0.000000
0.967109 0.949068 0.000000
0.946807 0.928411 0.000000
0.940173 0.953295 0.000000
0.956764 0.974357 0.000000
0.076722 0.471546 0.000000
0.082324 0.449317 0.000000
0.066669 0.435847 0.000000
0.114035 0.946088 0.000000
0.091278 0.952186 0.000000
0.128453 0.974235 0.000000
0.027019 0.501643 0.000000
0.047138 0.487417 0.000000
0.943388 0.639892 0.000000
0.923239 0.630552 0.000000
0.974491 0.618278 0.000000
0.972785 0.673666 0.000000
0.943930 0.664809 0.000000
0.968693 0.642530 0.000000
0.780685 0.976970 0.000000
0.756289 0.951349 0.000000
0.776857 0.951460 0.000000
0.935276 0.890540 0.000000
0.927168 0.867561 0.000000
0.954227 0.882176 0.000000
0.745760 0.974977 0.000000
0.952002 0.907568 0.000000
0.068063 0.489215 0.000000
0.051512 0.513895 0.000000
0.027757 0.982136 0.000000
0.023217 0.525632 0.000000
0.982410 0.972952 0.000000
0.951072 0.692907 0.000000
0.957020 0.857438 0.000000
0.937630 0.840379 0.000000
0.966912 0.834149 0.000000
0.923427 0.933924 0.000000
0.982257 0.848323 0.000000
0.092881 0.488189 0.000000
0.976737 0.871201 0.000000
0.067960 0.921895 0.000000
0.886538 0.603532 0.000000
0.918896 0.656866 0.000000
0.898227 0.636966 0.000000
0.092880 0.930380 0.000000
0.929071 0.911440 0.000000
0.081137 0.510877 0.000000
0.592772 0.576158 0.000000
0.150419 0.835159 0.000000
0.138607 0.859733 0.000000
0.125762 0.835294 0.000000
0.155304 0.458505 0.000000
0.139466 0.476317 0.000000
0.134858 0.496115 0.000000
0.109061 0.504849 0.000000
0.112238 0.859343 0.000000
0.866826 0.974780 0.000000
0.026919 0.865848 0.000000
0.348411 0.871602 0.000000
0.339654 0.840899 0.000000
0.369544 0.848927 0.000000
0.925986 0.818235 0.000000
0.909684 0.842117 0.000000
0.929360 0.717495 0.000000
0.924028 0.685311 0.000000
0.879688 0.955544 0.000000
0.875200 0.929284 0.000000
0.903901 0.918287 0.000000
0.950764 0.819790 0.000000
0.047492 0.878635 0.000000
0.069665 0.880314 0.000000
0.081712 0.904992 0.000000
0.573454 0.980624 0.000000
0.556694 0.550113 0.000000
0.094318 0.530060 0.000000
0.563246 0.571677 0.000000
0.563825 0.961795 0.000000
0.155902 0.972929 0.000000
0.577162 0.940912 0.000000
0.545227 0.533787 0.000000
0.864670 0.884377 0.000000
0.860690 0.911575 0.000000
0.840756 0.895862 0.000000
0.137227 0.926016 0.000000
0.139814 0.950758 0.000000
0.109156 0.913646 0.000000
0.884976 0.899786 0.000000
0.910807 0.890052 0.000000
0.830819 0.844574 0.000000
0.157710 0.484545 0.000000
0.180718 0.468069 0.000000
0.154331 0.510861 0.000000
0.124262 0.522394 0.000000
0.341085 0.732964 0.000000
0.323736 0.758404 0.000000
0.312899 0.730066 0.000000
0.857321 0.949854 0.000000
0.839840 0.975483 0.000000
0.053549 0.857833 0.000000
0.031143 0.832960 0.000000
0.840338 0.925315 0.000000
0.300796 0.756054 0.000000
0.080783 0.856286 0.000000
0.096939 0.884378 0.000000
0.544800 0.977874 0.000000
0.949430 0.731579 0.000000
0.955247 0.752582 0.000000
0.934712 0.748859 0.000000
0.030153 0.591093 0.000000
[...]
POINT_DATA 1445
SCALARS UX float 1
LOOKUP_TABLE default
-0.377571
-0.000000
0.000000
-0.377571
-0.377571
0.000000
-0.366466
-0.355361
-0.344256
-0.333151
-0.322046
-0.310941
-0.299836
-0.288731
-0.277626
-0.266520
-0.255415
-0.244310
-0.233205
-0.222100
-0.210995
-0.199890
-0.188785
-0.177680
-0.166575
-0.155470
-0.144365
-0.133260
-0.122155
-0.111050
-0.099945
-0.088840
-0.077735
-0.066630
-0.055525
-0.044420
-0.033315
-0.022210
-0.011105
-0.000000
-0.000000
-0.000000
-0.000000
-0.000000
-0.000000
-0.000000
-0.000000
-0.000000
-0.000000
-0.000000
-0.000000
-0.000000
-0.000000
-0.000000
-0.000000
-0.000000
0.000000
0.000000
-0.000000
-0.000000
0.000000
-0.000000
-0.000000
-0.000000
-0.000000
0.000000
-0.000000
0.000000
-0.000000
0.000000
-0.000000
-0.011105
-0.022210
-0.033315
-0.044420
-0.055525
-0.066630
-0.077735
-0.088840
-0.099945
-0.111050
-0.122155
-0.133260
-0.144365
-0.155470
-0.166575
-0.177680
-0.188785
-0.199890
-0.210995
-0.222100
-0.233205
-0.244310
-0.255415
-0.266520
-0.277626
-0.288731
-0.299836
-0.310941
-0.322046
-0.333151
-0.344256
-0.355361
-0.366466
-0.377571
-0.377571
-0.377571
-0.377571
-0.377571
-0.377571
-0.377571
-0.377571
-0.377571
-0.377571
-0.377571
-0.377571
-0.377571
-0.377571
-0.377571
-0.377571
-0.377571
-0.377571
-0.377571
-0.377571
-0.377571
-0.377571
-0.377571
-0.377571
-0.377571
-0.377571
-0.377571
-0.377571
-0.377571
-0.377571
-0.377571
-0.377571
-0.366466
-0.355361
-0.344256
-0.333151
-0.322046
-0.310941
-0.299836
-0.288731
-0.277626
-0.266520
-0.255415
-0.244310
-0.233205
-0.222100
-0.210995
-0.199890
-0.188785
-0.177680
-0.166575
-0.155470
-0.144365
-0.133260
-0.122155
-0.111050
-0.099945
-0.088840
-0.077735
-0.066630
-0.055525
-0.044420
-0.033315
-0.022210
-0.011105
-0.019448
-0.030870
-0.329953
-0.339693
-0.338679
-0.333049
-0.366567
-0.359910
-0.368135
-0.356308
-0.008394
-0.013752
-0.009882
-0.149045
-0.158818
-0.162348
-0.038962
-0.030422
-0.027304
-0.037951
-0.009786
-0.008623
-0.348657
-0.338841
-0.052221
-0.057062
-0.060592
-0.067794
-0.048239
-0.044323
-0.039515
-0.148640
-0.141639
-0.151113
-0.314144
-0.302365
-0.306631
-0.080139
-0.092580
-0.083599
-0.305277
-0.075019
-0.064237
-0.073428
-0.070691
-0.066879
-0.062742
-0.056642
-0.078753
-0.085723
-0.309589
-0.316903
-0.312569
-0.155512
-0.323891
-0.065098
-0.052944
-0.044398
-0.048042
-0.039796
-0.033938
-0.037378
-0.046419
-0.138684
-0.068563
-0.080171
-0.070976
-0.072248
-0.352411
-0.345889
-0.355587
-0.363392
-0.367860
-0.262556
-0.273334
-0.270294
-0.077369
-0.076512
-0.049143
-0.060083
-0.050798
-0.361247
-0.366700
-0.369736
-0.057799
-0.355297
-0.357973
-0.350477
-0.359335
-0.367604
-0.012419
-0.020084
-0.022589
-0.016325
-0.348603
-0.346488
-0.352399
-0.334514
-0.343107
-0.329071
-0.367369
-0.359773
-0.021375
-0.028983
-0.009632
-0.010276
-0.021170
-0.011821
-0.082807
-0.092018
-0.084252
-0.024438
-0.027499
-0.017282
-0.095994
-0.018123
-0.351872
-0.358121
-0.367091
-0.368805
-0.006641
-0.018474
-0.016228
-0.023549
-0.012493
-0.028912
-0.006699
-0.342502
-0.008784
-0.351911
-0.042840
-0.030622
-0.038427
-0.342502
-0.026781
-0.346936
-0.153757
-0.320777
-0.325237
-0.330087
-0.318932
-0.324912
-0.326652
-0.336392
-0.335193
-0.050283
-0.367407
-0.246021
-0.249327
-0.238042
-0.027945
-0.034101
-0.026671
-0.028685
-0.045426
-0.047121
-0.036284
-0.018590
-0.359639
-0.351267
-0.346719
-0.161051
-0.167379
-0.341959
-0.164906
-0.164687
-0.318707
-0.159651
-0.171709
-0.051097
-0.052600
-0.060126
-0.325758
-0.324781
-0.336357
-0.043430
-0.033677
-0.063878
-0.318024
-0.309337
-0.319300
-0.330653
-0.248787
-0.255337
-0.259429
-0.053872
-0.060472
-0.357352
-0.365812
-0.060284
-0.263999
-0.347070
-0.340969
-0.171870
-0.019094
-0.016898
-0.024651
-0.366186
-0.343096
-0.336052
-0.030734
-0.198214
-0.197241
-0.209154
-0.206087
-0.317082
-0.327667
-0.079691
-0.087817
-0.308408
-0.296825
-0.309374
-0.323562
-0.009891
-0.020408
-0.009943
-0.352918
-0.369068
-0.340792
-0.040327
-0.276697
-0.284376
-0.278977
-0.354205
-0.364322
-0.287759
-0.330199
-0.335780
-0.266667
-0.275285
-0.265537
-0.244649
-0.251727
-0.254702
-0.243113
-0.293412
-0.263935
-0.257224
-0.307138
-0.259221
-0.263368
-0.268976
-0.275463
-0.297962
-0.250986
-0.245216
-0.334403
-0.332114
-0.343258
-0.303063
-0.315552
-0.287408
-0.268841
-0.263698
-0.254038
-0.273843
-0.279620
-0.351076
-0.285157
-0.367599
-0.043903
-0.050417
-0.053955
-0.269384
-0.259289
-0.252663
-0.281335
-0.272122
-0.286198
-0.274517
-0.263075
-0.286466
-0.029796
-0.277586
-0.037887
-0.278623
-0.286545
-0.278175
-0.285944
-0.275269
-0.292206
-0.276593
-0.285410
-0.292412
-0.257758
-0.256308
-0.268676
-0.247374
-0.248105
-0.366560
-0.358944
-0.355557
-0.349872
-0.307671
-0.296785
-0.298391
-0.264960
-0.278935
-0.274321
-0.304890
-0.301124
-0.283854
-0.294354
-0.330809
-0.339678
-0.342164
-0.343788
-0.319112
-0.318629
-0.308616
-0.318891
-0.325330
-0.325500
-0.281818
-0.292360
-0.287009
-0.283552
-0.307759
-0.313694
-0.317185
-0.361189
-0.259850
-0.248444
-0.252112
-0.295842
-0.284034
-0.290208
-0.358229
-0.332125
-0.340420
-0.333570
-0.344948
-0.286141
-0.241050
-0.089104
-0.087691
-0.099404
-0.349041
-0.351868
-0.096985
-0.009549
-0.302945
-0.309452
-0.297085
-0.020570
-0.314245
-0.237298
-0.241403
-0.341400
-0.358758
-0.072105
-0.083275
-0.074488
-0.080711
-0.306204
-0.253723
-0.303255
-0.101425
-0.089776
-0.098346
-0.228533
-0.224757
-0.367992
-0.233760
-0.131073
-0.128619
-0.142117
-0.139741
-0.296998
-0.059681
-0.343547
-0.292249
-0.317465
-0.046323
-0.075389
-0.297998
-0.259168
-0.260201
-0.251626
-0.053156
-0.151960
-0.162415
-0.159948
-0.149651
-0.093621
-0.087571
-0.100211
-0.092891
-0.171100
-0.366333
-0.172711
-0.242493
-0.231281
-0.324112
-0.107241
-0.105111
-0.314097
-0.247603
-0.094704
-0.120544
-0.117990
-0.221423
-0.228110
-0.216463
-0.298190
-0.054343
-0.167941
-0.174748
-0.166712
-0.170785
-0.178137
-0.147932
-0.158353
-0.150694
-0.155813
-0.159593
-0.138196
-0.139904
-0.144632
-0.268640
-0.277337
-0.109649
-0.117004
-0.116525
-0.109690
-0.102737
-0.086311
-0.127046
-0.128821
-0.133468
-0.122603
-0.041229
-0.037165
-0.062043
-0.069604
-0.231717
-0.244077
-0.234822
-0.240443
-0.240203
-0.235712
-0.086708
-0.095888
-0.085161
-0.098094
-0.107050
-0.105262
-0.225858
-0.228552
-0.103956
-0.106712
-0.100813
-0.094080
-0.104896
-0.109584
-0.116230
-0.086626
-0.064720
-0.216176
-0.212731
-0.221683
-0.215018
-0.203686
-0.208774
-0.096127
-0.107487
-0.254896
-0.113103
-0.110588
-0.219361
-0.272456
-0.264125
-0.236649
-0.219683
-0.227423
-0.068927
-0.220036
-0.223044
-0.228496
-0.118491
-0.115927
-0.214244
-0.216827
-0.127050
-0.120835
-0.127357
-0.190878
-0.201045
-0.191607
-0.198947
-0.119036
-0.115756
-0.183296
-0.180748
-0.191607
-0.107275
-0.111745
-0.208618
-0.211567
-0.217006
-0.207868
-0.210197
-0.225221
-0.071095
-0.131958
-0.138504
-0.202852
-0.205459
-0.367428
-0.355256
-0.332819
-0.334199
-0.197325
-0.200175
-0.205719
-0.075977
-0.322940
-0.186073
-0.188949
-0.363691
-0.194435
-0.213963
-0.138195
-0.129917
-0.079687
-0.191566
-0.327156
-0.194166
-0.174843
-0.177619
-0.124427
-0.121795
-0.264739
-0.180333
-0.182948
-0.065426
-0.202766
-0.204493
-0.169100
-0.171784
-0.166403
-0.157895
-0.160569
-0.254960
-0.143117
-0.149676
-0.130242
-0.127572
-0.300485
-0.337433
-0.149372
-0.141073
-0.124964
-0.113778
-0.118412
-0.155211
-0.146713
-0.145174
-0.156347
-0.351825
-0.265061
-0.167508
-0.160866
-0.185482
-0.178765
-0.189638
-0.183238
-0.134024
-0.140673
-0.141367
-0.152511
-0.144042
-0.135557
-0.323892
-0.122887
-0.132914
-0.078088
-0.293018
-0.182905
-0.182011
-0.129537
-0.163635
-0.172071
-0.154295
-0.188751
-0.188128
-0.196904
-0.185754
-0.369290
-0.171247
-0.239545
-0.234375
-0.134964
-0.102598
-0.152254
-0.091802
-0.165485
-0.163447
-0.176674
-0.174619
-0.187335
-0.213682
-0.222426
-0.219022
-0.143873
-0.188870
-0.180183
-0.186757
-0.197183
-0.198694
-0.194463
-0.196018
-0.112379
-0.303468
-0.295398
-0.115592
-0.236376
-0.230976
-0.214423
-0.208877
-0.207101
-0.121755
-0.220941
-0.309016
-0.202190
-0.070594
-0.127703
-0.228768
-0.226553
-0.180091
-0.176180
-0.233295
-0.194747
-0.133771
-0.239009
-0.205087
-0.246257
-0.316461
-0.358123
-0.346700
-0.047617
-0.037877
-0.038892
-0.044522
-0.011004
-0.017661
-0.009436
-0.021263
-0.369177
-0.363818
-0.367689
-0.228526
-0.218753
-0.215222
-0.338609
-0.347148
-0.350267
-0.339620
-0.367784
-0.368947
-0.028914
-0.038730
-0.325350
-0.320508
-0.316979
-0.309777
-0.329331
-0.333248
-0.338056
-0.228931
-0.235932
-0.226458
-0.063426
-0.075206
-0.070940
-0.297432
-0.284991
-0.293972
-0.072294
-0.302552
-0.313333
-0.304143
-0.306880
-0.310691
-0.314828
-0.320928
-0.298817
-0.291848
-0.067981
-0.060668
-0.065002
-0.222058
-0.053680
-0.312472
-0.324627
-0.333173
-0.329528
-0.337775
-0.343633
-0.340193
-0.331152
-0.238887
-0.309008
-0.297400
-0.306594
-0.305322
-0.025160
-0.031681
-0.021984
-0.014178
-0.009711
-0.115015
-0.104237
-0.107277
-0.300202
-0.301058
-0.328427
-0.317488
-0.326773
-0.016323
-0.010871
-0.007835
-0.319772
-0.022273
-0.019598
-0.027094
-0.018236
-0.009967
-0.365152
-0.357487
-0.354982
-0.361246
-0.028968
-0.031083
-0.025172
-0.043056
-0.034464
-0.048500
-0.010202
-0.017798
-0.356196
-0.348588
-0.367939
-0.367295
-0.356400
-0.365750
-0.294764
-0.285553
-0.293318
-0.353133
-0.350072
-0.360288
-0.281577
-0.359448
-0.025699
-0.019450
-0.010480
-0.008766
-0.370929
-0.359097
-0.361343
-0.354022
-0.365078
-0.348659
-0.370871
-0.035069
-0.368787
-0.025660
-0.334731
-0.346948
-0.339144
-0.035069
-0.350790
-0.030635
-0.223813
-0.056794
-0.052334
-0.047484
-0.058638
-0.052658
-0.050918
-0.041178
-0.042378
-0.327288
-0.010164
-0.131550
-0.128244
-0.139529
-0.349625
-0.343470
-0.350899
-0.348886
-0.332144
-0.330450
-0.341287
-0.358981
-0.017931
-0.026304
-0.030852
-0.216519
-0.210191
-0.035612
-0.212665
-0.212884
-0.058864
-0.217919
-0.205862
-0.326474
-0.324971
-0.317445
-0.051813
-0.052790
-0.041214
-0.334141
-0.343894
-0.313693
-0.059547
-0.068234
-0.058271
-0.046918
-0.128784
-0.122233
-0.118141
-0.323699
-0.317099
-0.020218
-0.011759
-0.317287
-0.113572
-0.030501
-0.036602
-0.205701
-0.358477
-0.360673
-0.352920
-0.011385
-0.034474
-0.041518
-0.346836
-0.179356
-0.180329
-0.168417
-0.171484
-0.060488
-0.049903
-0.297880
-0.289754
-0.069162
-0.080746
-0.068197
-0.054008
-0.367679
-0.357162
-0.367628
-0.024652
-0.008503
-0.036779
-0.337244
-0.100874
-0.093195
-0.098593
-0.023366
-0.013248
-0.089811
-0.047372
-0.041791
-0.110903
-0.102286
-0.112033
-0.132921
-0.125844
-0.122869
-0.134458
-0.084158
-0.113635
-0.120347
-0.070433
-0.118349
-0.114203
-0.108595
-0.102107
-0.079608
-0.126585
-0.132355
-0.043168
-0.045456
-0.034312
-0.074508
-0.062019
-0.090162
-0.108730
-0.113873
-0.123533
-0.103728
-0.097951
-0.026495
-0.092413
-0.009972
-0.333668
-0.327154
-0.323615
-0.108187
-0.118282
-0.124908
-0.096236
-0.105449
-0.091373
-0.103053
-0.114495
-0.091105
-0.347775
-0.099984
-0.339684
-0.098948
-0.091026
-0.099396
-0.091627
-0.102301
-0.085365
-0.100978
-0.092161
-0.085159
-0.119813
-0.121262
-0.108895
-0.130196
-0.129466
-0.011010
-0.018626
-0.022014
-0.027699
-0.069900
-0.080785
-0.079179
-0.112611
-0.098636
-0.103250
-0.072680
-0.076446
-0.093717
-0.083217
-0.046761
-0.037892
-0.035407
-0.033782
-0.058459
-0.058942
-0.068955
-0.058679
-0.052241
-0.052070
-0.095753
-0.085211
-0.090561
-0.094019
-0.069812
-0.063877
-0.060385
-0.016381
-0.117721
-0.129126
-0.125459
-0.081729
-0.093536
-0.087362
-0.019342
-0.045446
-0.037151
-0.044001
-0.032622
-0.091430
-0.136521
-0.288467
-0.289880
-0.278167
-0.028529
-0.025703
-0.280586
-0.368022
-0.074626
-0.068119
-0.080486
-0.357001
-0.063326
-0.140273
-0.136168
-0.036171
-0.018813
-0.305466
-0.294296
-0.303083
-0.296860
-0.071367
-0.123848
-0.074316
-0.276146
-0.287795
-0.279224
-0.149038
-0.152814
-0.009579
-0.143810
-0.246498
-0.248952
-0.235453
-0.237829
-0.080572
-0.317890
-0.034024
-0.085322
-0.060105
-0.331247
-0.302181
-0.079572
-0.118403
-0.117370
-0.125945
-0.324415
-0.225610
-0.215156
-0.217623
-0.227919
-0.283950
-0.290000
-0.277360
-0.284680
-0.206471
-0.011238
-0.204859
-0.135078
-0.146290
-0.053459
-0.270329
-0.272460
-0.063474
-0.129968
-0.282867
-0.257026
-0.259581
-0.156148
-0.149461
-0.161107
-0.079381
-0.323227
-0.209630
-0.202822
-0.210859
-0.206786
-0.199434
-0.229639
-0.219217
-0.226877
-0.221758
-0.217978
-0.239374
-0.237666
-0.232939
-0.108930
-0.100234
-0.267922
-0.260567
-0.261046
-0.267881
-0.274834
-0.291260
-0.250524
-0.248749
-0.244103
-0.254968
-0.336341
-0.340406
-0.315528
-0.307967
-0.145854
-0.133493
-0.142748
-0.137128
-0.137368
-0.141858
-0.290863
-0.281682
-0.292410
-0.279476
-0.270521
-0.272308
-0.151713
-0.149018
-0.273614
-0.270859
-0.276758
-0.283491
-0.272674
-0.267987
-0.261341
-0.290945
-0.312850
-0.161395
-0.164840
-0.155888
-0.162552
-0.173884
-0.168797
-0.281443
-0.270084
-0.122674
-0.264468
-0.266983
-0.158210
-0.105115
-0.113445
-0.140922
-0.157887
-0.150148
-0.308643
-0.157535
-0.154526
-0.149074
-0.259080
-0.261643
-0.163327
-0.160744
-0.250521
-0.256736
-0.250213
-0.186693
-0.176526
-0.185964
-0.178624
-0.258535
-0.261815
-0.194275
-0.196823
-0.185964
-0.270296
-0.265826
-0.168953
-0.166004
-0.160564
-0.169702
-0.167374
-0.152350
-0.306476
-0.245613
-0.239067
-0.174719
-0.172112
-0.010143
-0.022315
-0.044751
-0.043372
-0.180246
-0.177396
-0.171851
-0.301594
-0.054630
-0.191497
-0.188622
-0.013880
-0.183136
-0.163608
-0.239375
-0.247654
-0.297884
-0.186005
-0.050414
-0.183404
-0.202728
-0.199952
-0.253143
-0.255776
-0.112832
-0.197237
-0.194622
-0.312145
-0.174805
-0.173078
-0.208470
-0.205786
-0.211168
-0.219676
-0.217002
-0.122610
-0.234454
-0.227894
-0.247329
-0.249999
-0.077086
-0.040138
-0.228199
-0.236498
-0.252607
-0.263793
-0.259159
-0.222359
-0.230857
-0.232397
-0.221224
-0.025746
-0.112510
-0.210063
-0.216704
-0.192089
-0.198806
-0.187933
-0.194333
-0.243547
-0.236897
-0.236204
-0.225059
-0.233528
-0.242014
-0.053678
-0.254684
-0.244656
-0.299482
-0.084553
-0.194666
-0.195560
-0.248033
-0.213936
-0.205500
-0.223275
-0.188819
-0.189443
-0.180667
-0.191817
-0.008281
-0.206324
-0.138026
-0.143195
-0.242607
-0.274972
-0.225317
-0.285768
-0.212086
-0.214123
-0.200896
-0.202952
-0.190235
-0.163888
-0.155144
-0.158549
-0.233697
-0.188700
-0.197387
-0.190814
-0.180388
-0.178876
-0.183107
-0.181553
-0.265191
-0.074102
-0.082173
-0.261979
-0.141194
-0.146594
-0.163147
-0.168694
-0.170470
-0.255815
-0.156629
-0.068555
-0.175380
-0.306977
-0.249868
-0.148803
-0.151017
-0.197480
-0.201390
-0.144276
-0.182823
-0.243799
-0.138562
-0.172484
-0.131314
-0.061110
SCALARS UY float 1
LOOKUP_TABLE default
-0.000001
-0.000001
-0.880999
-0.880999
-0.352400
-0.528600
-0.000001
-0.000001
-0.000001
-0.000001
-0.000001
-0.000001
-0.000001
-0.000001
-0.000001
-0.000001
-0.000001
-0.000001
-0.000001
-0.000001
-0.000001
-0.000001
-0.000001
-0.000001
-0.000001
-0.000001
-0.000001
-0.000001
-0.000001
-0.000001
-0.000001
-0.000001
-0.000001
-0.000001
-0.000001
-0.000001
-0.000001
-0.000001
-0.000001
-0.026431
-0.052861
-0.079291
-0.105721
-0.132151
-0.158581
-0.185010
-0.211440
-0.237870
-0.264300
-0.290730
-0.317160
-0.343590
-0.370020
-0.396450
-0.422880
-0.449310
-0.475740
-0.502170
-0.553771
-0.578943
-0.604114
-0.629285
-0.654457
-0.679628
-0.704799
-0.729971
-0.755142
-0.780314
-0.805485
-0.830656
-0.855828
-0.880999
-0.880999
-0.880999
-0.880999
-0.880999
-0.880999
-0.880999
-0.880999
-0.880999
-0.880999
-0.880999
-0.880999
-0.880999
-0.880999
-0.880999
-0.880999
-0.880999
-0.880999
-0.880999
-0.880999
-0.880999
-0.880999
-0.880999
-0.880999
-0.880999
-0.880999
-0.880999
-0.880999
-0.880999
-0.880999
-0.880999
-0.880999
-0.880999
-0.854569
-0.828139
-0.801709
-0.775279
-0.748849
-0.722419
-0.695990
-0.669560
-0.643130
-0.616700
-0.590270
-0.563840
-0.537410
-0.510980
-0.484550
-0.458120
-0.431690
-0.405260
-0.378830
-0.327229
-0.302057
-0.276886
-0.251715
-0.226543
-0.201372
-0.176201
-0.151029
-0.125858
-0.100686
-0.075515
-0.050344
-0.025172
-0.357583
-0.362765
-0.367947
-0.373130
-0.378312
-0.383494
-0.388677
-0.393859
-0.399041
-0.404224
-0.409406
-0.414588
-0.419771
-0.424953
-0.430135
-0.435318
-0.440500
-0.445682
-0.450865
-0.456047
-0.461229
-0.466412
-0.471594
-0.476776
-0.481959
-0.487141
-0.492323
-0.497506
-0.502688
-0.507870
-0.513053
-0.518235
-0.523417
-0.544093
-0.537296
-0.400719
-0.409999
-0.389503
-0.423479
-0.789009
-0.808785
-0.816095
-0.792169
-0.613159
-0.629676
-0.648527
-0.484016
-0.484374
-0.470292
-0.856295
-0.843716
-0.860045
-0.832213
-0.814612
-0.791798
-0.857729
-0.858481
-0.615522
-0.637116
-0.618025
-0.634864
-0.595308
-0.612052
-0.592674
-0.834937
-0.857225
-0.861007
-0.831680
-0.835845
-0.857125
-0.754140
-0.752781
-0.733721
-0.812628
-0.715561
-0.720019
-0.738186
-0.697550
-0.678212
-0.697551
-0.680801
-0.697045
-0.712620
-0.547252
-0.547187
-0.527001
-0.847952
-0.531075
-0.659001
-0.656415
-0.655433
-0.672148
-0.674000
-0.656863
-0.639976
-0.633990
-0.832550
-0.778126
-0.778480
-0.759478
-0.799802
-0.471312
-0.486898
-0.498148
-0.478049
-0.498464
-0.855825
-0.859146
-0.833677
-0.649964
-0.676913
-0.578642
-0.570948
-0.555836
-0.388531
-0.413385
-0.390979
-0.595921
-0.408227
-0.851753
-0.834843
-0.827652
-0.842244
-0.836128
-0.817929
-0.839852
-0.858408
-0.415432
-0.395848
-0.383982
-0.833502
-0.838875
-0.858300
-0.441947
-0.429414
-0.563745
-0.555516
-0.544703
-0.593500
-0.585696
-0.566068
-0.860710
-0.838137
-0.838236
-0.784565
-0.764321
-0.777197
-0.858954
-0.799566
-0.430999
-0.452742
-0.865261
-0.463082
-0.857170
-0.610451
-0.755402
-0.740373
-0.734885
-0.822786
-0.747372
-0.430095
-0.767527
-0.812189
-0.531711
-0.578699
-0.561167
-0.819664
-0.802978
-0.450083
-0.507595
-0.735774
-0.757424
-0.735893
-0.403943
-0.419635
-0.437077
-0.444772
-0.757081
-0.858781
-0.762811
-0.767881
-0.740832
-0.747904
-0.720865
-0.741904
-0.632112
-0.603759
-0.841834
-0.818698
-0.809010
-0.722234
-0.774077
-0.775556
-0.797298
-0.863929
-0.484649
-0.466983
-0.503648
-0.847341
-0.857150
-0.828943
-0.470267
-0.779135
-0.803097
-0.789254
-0.815819
-0.837617
-0.804922
-0.792711
-0.784135
-0.744069
-0.426884
-0.412369
-0.450068
-0.460229
-0.645741
-0.668154
-0.643188
-0.836821
-0.859400
-0.755751
-0.733837
-0.815202
-0.666083
-0.754387
-0.779136
-0.861506
-0.644521
-0.663024
-0.659744
-0.520753
-0.510671
-0.484313
-0.679911
-0.460233
-0.484795
-0.479411
-0.454228
-0.803078
-0.784115
-0.817282
-0.820707
-0.437747
-0.419097
-0.468638
-0.478162
-0.713955
-0.703230
-0.693540
-0.733835
-0.711097
-0.731961
-0.765133
-0.486833
-0.482846
-0.468123
-0.528966
-0.550551
-0.463404
-0.504713
-0.530472
-0.490028
-0.510084
-0.517392
-0.548089
-0.566074
-0.544796
-0.576756
-0.854517
-0.542482
-0.524154
-0.783595
-0.690078
-0.715480
-0.688090
-0.712416
-0.449533
-0.687317
-0.668443
-0.620447
-0.645757
-0.637211
-0.491373
-0.501588
-0.436423
-0.641267
-0.623689
-0.620343
-0.661896
-0.637449
-0.557303
-0.660530
-0.578616
-0.744553
-0.760750
-0.737201
-0.738005
-0.739045
-0.715341
-0.535619
-0.532468
-0.508462
-0.556765
-0.569121
-0.560874
-0.699511
-0.446526
-0.693091
-0.682930
-0.724212
-0.736599
-0.749551
-0.759290
-0.588246
-0.587745
-0.611590
-0.635847
-0.472395
-0.499666
-0.461456
-0.486401
-0.458537
-0.605887
-0.590923
-0.609919
-0.586762
-0.637423
-0.661739
-0.612848
-0.808733
-0.815974
-0.786651
-0.589313
-0.561575
-0.773790
-0.772584
-0.668291
-0.681800
-0.661778
-0.614622
-0.657232
-0.682389
-0.671316
-0.702336
-0.692391
-0.713162
-0.841617
-0.823273
-0.795441
-0.863770
-0.614672
-0.593726
-0.611066
-0.629205
-0.832971
-0.851935
-0.817197
-0.707794
-0.701570
-0.683646
-0.711813
-0.547609
-0.552571
-0.568420
-0.536193
-0.413559
-0.721431
-0.666321
-0.690295
-0.683064
-0.713431
-0.685604
-0.706230
-0.670202
-0.755894
-0.732660
-0.734893
-0.682034
-0.758557
-0.649565
-0.624755
-0.703941
-0.571352
-0.563656
-0.555695
-0.540501
-0.579246
-0.510155
-0.589019
-0.531629
-0.769776
-0.774137
-0.790922
-0.629267
-0.653802
-0.371848
-0.674959
-0.491075
-0.516679
-0.512091
-0.482759
-0.508564
-0.763867
-0.571794
-0.487407
-0.780104
-0.691198
-0.841227
-0.471888
-0.446763