# vtk DataFile Version 2.0
Test
ASCII
DATASET POLYDATA
POINTS 1445 float
0.000000 0.000000 0.000000
1.000000 0.000000 0.000000
1.000000 1.000000 0.000000
0.000000 1.000000 0.000000
0.000000 0.400000 0.000000
1.000000 0.600000 0.000000
0.029412 0.000000 0.000000
0.058824 0.000000 0.000000
0.088235 0.000000 0.000000
0.117647 0.000000 0.000000
0.147059 0.000000 0.000000
0.176471 0.000000 0.000000
0.205882 0.000000 0.000000
0.235294 0.000000 0.000000
0.264706 0.000000 0.000000
0.294118 0.000000 0.000000
0.323529 0.000000 0.000000
0.352941 0.000000 0.000000
0.382353 0.000000 0.000000
0.411765 0.000000 0.000000
0.441176 0.000000 0.000000
0.470588 0.000000 0.000000
0.500000 0.000000 0.000000
0.529412 0.000000 0.000000
0.558824 0.000000 0.000000
0.588235 0.000000 0.000000
0.617647 0.000000 0.000000
0.647059 0.000000 0.000000
0.676471 0.000000 0.000000
0.705882 0.000000 0.000000
0.735294 0.000000 0.000000
0.764706 0.000000 0.000000
0.794118 0.000000 0.000000
0.823529 0.000000 0.000000
0.852941 0.000000 0.000000
0.882353 0.000000 0.000000
0.911765 0.000000 0.000000
0.941176 0.000000 0.000000
0.970588 0.000000 0.000000
1.000000 0.030000 0.000000
1.000000 0.060000 0.000000
1.000000 0.090000 0.000000
1.000000 0.120000 0.000000
1.000000 0.150000 0.000000
1.000000 0.180000 0.000000
1.000000 0.210000 0.000000
1.000000 0.240000 0.000000
1.000000 0.270000 0.000000
1.000000 0.300000 0.000000
1.000000 0.330000 0.000000
1.000000 0.360000 0.000000
1.000000 0.390000 0.000000
1.000000 0.420000 0.000000
1.000000 0.450000 0.000000
1.000000 0.480000 0.000000
1.000000 0.510000 0.000000
1.000000 0.540000 0.000000
1.000000 0.570000 0.000000
1.000000 0.628571 0.000000
1.000000 0.657143 0.000000
1.000000 0.685714 0.000000
1.000000 0.714286 0.000000
1.000000 0.742857 0.000000
1.000000 0.771429 0.000000
1.000000 0.800000 0.000000
1.000000 0.828571 0.000000
1.000000 0.857143 0.000000
1.000000 0.885714 0.000000
1.000000 0.914286 0.000000
1.000000 0.942857 0.000000
1.000000 0.971429 0.000000
0.970588 1.000000 0.000000
0.941176 1.000000 0.000000
0.911765 1.000000 0.000000
0.882353 1.000000 0.000000
0.852941 1.000000 0.000000
0.823529 1.000000 0.000000
0.794118 1.000000 0.000000
0.764706 1.000000 0.000000
0.735294 1.000000 0.000000
0.705882 1.000000 0.000000
0.676471 1.000000 0.000000
0.647059 1.000000 0.000000
0.617647 1.000000 0.000000
0.588235 1.000000 0.000000
0.558824 1.000000 0.000000
0.529412 1.000000 0.000000
0.500000 1.000000 0.000000
0.470588 1.000000 0.000000
0.441176 1.000000 0.000000
0.411765 1.000000 0.000000
0.382353 1.000000 0.000000
0.352941 1.000000 0.000000
0.323529 1.000000 0.000000
0.294118 1.000000 0.000000
0.264706 1.000000 0.000000
0.235294 1.000000 0.000000
0.205882 1.000000 0.000000
0.176471 1.000000 0.000000
0.147059 1.000000 0.000000
0.117647 1.000000 0.000000
0.088235 1.000000 0.000000
0.058824 1.000000 0.000000
0.029412 1.000000 0.000000
0.000000 0.970000 0.000000
0.000000 0.940000 0.000000
0.000000 0.910000 0.000000
0.000000 0.880000 0.000000
0.000000 0.850000 0.000000
0.000000 0.820000 0.000000
0.000000 0.790000 0.000000
0.000000 0.760000 0.000000
0.000000 0.730000 0.000000
0.000000 0.700000 0.000000
0.000000 0.670000 0.000000
0.000000 0.640000 0.000000
0.000000 0.610000 0.000000
0.000000 0.580000 0.000000
0.000000 0.550000 0.000000
0.000000 0.520000 0.000000
0.000000 0.490000 0.000000
0.000000 0.460000 0.000000
0.000000 0.430000 0.000000
0.000000 0.371429 0.000000
0.000000 0.342857 0.000000
0.000000 0.314286 0.000000
0.000000 0.285714 0.000000
0.000000 0.257143 0.000000
0.000000 0.228571 0.000000
0.000000 0.200000 0.000000
0.000000 0.171429 0.000000
0.000000 0.142857 0.000000
0.000000 0.114286 0.000000
0.000000 0.085714 0.000000
0.000000 0.057143 0.000000
0.000000 0.028571 0.000000
0.029412 0.405882 0.000000
0.058824 0.411765 0.000000
0.088235 0.417647 0.000000
0.117647 0.423529 0.000000
0.147059 0.429412 0.000000
0.176471 0.435294 0.000000
0.205882 0.441176 0.000000
0.235294 0.447059 0.000000
0.264706 0.452941 0.000000
0.294118 0.458824 0.000000
0.323529 0.464706 0.000000
0.352941 0.470588 0.000000
0.382353 0.476471 0.000000
0.411765 0.482353 0.000000
0.441176 0.488235 0.000000
0.470588 0.494118 0.000000
0.500000 0.500000 0.000000
0.529412 0.505882 0.000000
0.558824 0.511765 0.000000
0.588235 0.517647 0.000000
0.617647 0.523529 0.000000
0.647059 0.529412 0.000000
0.676471 0.535294 0.000000
0.705882 0.541176 0.000000
0.735294 0.547059 0.000000
0.764706 0.552941 0.000000
0.794118 0.558824 0.000000
0.823529 0.564706 0.000000
0.852941 0.570588 0.000000
0.882353 0.576471 0.000000
0.911765 0.582353 0.000000
0.941176 0.588235 0.000000
0.970588 0.594118 0.000000
0.948492 0.617586 0.000000
0.918239 0.609871 0.000000
0.126115 0.454845 0.000000
0.100318 0.465379 0.000000
0.103006 0.442114 0.000000
0.117916 0.480680 0.000000
0.029145 0.895585 0.000000
0.046774 0.918032 0.000000
0.024990 0.926329 0.000000
0.056315 0.899171 0.000000
0.977770 0.695981 0.000000
0.963577 0.714729 0.000000
0.973827 0.736127 0.000000
0.605253 0.549394 0.000000
0.579370 0.549801 0.000000
0.570019 0.533816 0.000000
0.896809 0.971959 0.000000
0.919426 0.957680 0.000000
0.927686 0.976215 0.000000
0.899487 0.944624 0.000000
0.974081 0.924646 0.000000
0.977161 0.898750 0.000000
0.076578 0.973587 0.000000
0.102577 0.974440 0.000000
0.861693 0.698664 0.000000
0.848870 0.723174 0.000000
0.839521 0.701504 0.000000
0.820447 0.720618 0.000000
0.872237 0.675719 0.000000
0.882611 0.694724 0.000000
0.895344 0.672729 0.000000
0.606326 0.947716 0.000000
0.624868 0.973015 0.000000
0.599776 0.977307 0.000000
0.167986 0.944019 0.000000
0.199183 0.948746 0.000000
0.187884 0.972901 0.000000
0.787752 0.856005 0.000000
0.754801 0.854462 0.000000
0.778588 0.832828 0.000000
0.191471 0.922393 0.000000
0.801312 0.812216 0.000000
0.829867 0.817276 0.000000
0.805526 0.837896 0.000000
0.812775 0.791772 0.000000
0.822869 0.769821 0.000000
0.833826 0.791773 0.000000
0.849982 0.772760 0.000000
0.791421 0.791198 0.000000
0.772962 0.808877 0.000000
0.180049 0.621172 0.000000
0.160680 0.621098 0.000000
0.172158 0.598185 0.000000
0.588124 0.962489 0.000000
0.142171 0.602810 0.000000
0.827587 0.748015 0.000000
0.859778 0.745080 0.000000
0.882413 0.743965 0.000000
0.872759 0.762938 0.000000
0.894601 0.765041 0.000000
0.910115 0.745588 0.000000
0.901004 0.726420 0.000000
0.877058 0.719626 0.000000
0.632694 0.945006 0.000000
0.818411 0.883232 0.000000
0.787667 0.883633 0.000000
0.812018 0.862064 0.000000
0.808649 0.907835 0.000000
0.066636 0.534974 0.000000
0.083909 0.552665 0.000000
0.058224 0.565435 0.000000
0.037551 0.542621 0.000000
0.025720 0.565794 0.000000
0.304619 0.971425 0.000000
0.276072 0.975195 0.000000
0.284125 0.946285 0.000000
0.795087 0.737757 0.000000
0.797357 0.768346 0.000000
0.869843 0.656802 0.000000
0.840870 0.648068 0.000000
0.865462 0.630915 0.000000
0.043233 0.441011 0.000000
0.028792 0.469222 0.000000
0.020751 0.443790 0.000000
0.846918 0.676414 0.000000
0.058991 0.463368 0.000000
0.051906 0.966804 0.000000
0.071758 0.947609 0.000000
0.048298 0.939447 0.000000
0.026398 0.956010 0.000000
0.967109 0.949068 0.000000
0.946807 0.928411 0.000000
0.940173 0.953295 0.000000
0.956764 0.974357 0.000000
0.076722 0.471546 0.000000
0.082324 0.449317 0.000000
0.066669 0.435847 0.000000
0.114035 0.946088 0.000000
0.091278 0.952186 0.000000
0.128453 0.974235 0.000000
0.027019 0.501643 0.000000
0.047138 0.487417 0.000000
0.943388 0.639892 0.000000
0.923239 0.630552 0.000000
0.974491 0.618278 0.000000
0.972785 0.673666 0.000000
0.943930 0.664809 0.000000
0.968693 0.642530 0.000000
0.780685 0.976970 0.000000
0.756289 0.951349 0.000000
0.776857 0.951460 0.000000
0.935276 0.890540 0.000000
0.927168 0.867561 0.000000
0.954227 0.882176 0.000000
0.745760 0.974977 0.000000
0.952002 0.907568 0.000000
0.068063 0.489215 0.000000
0.051512 0.513895 0.000000
0.027757 0.982136 0.000000
0.023217 0.525632 0.000000
0.982410 0.972952 0.000000
0.951072 0.692907 0.000000
0.957020 0.857438 0.000000
0.937630 0.840379 0.000000
0.966912 0.834149 0.000000
0.923427 0.933924 0.000000
0.982257 0.848323 0.000000
0.092881 0.488189 0.000000
0.976737 0.871201 0.000000
0.067960 0.921895 0.000000
0.886538 0.603532 0.000000
0.918896 0.656866 0.000000
0.898227 0.636966 0.000000
0.092880 0.930380 0.000000
0.929071 0.911440 0.000000
0.081137 0.510877 0.000000
0.592772 0.576158 0.000000
0.150419 0.835159 0.000000
0.138607 0.859733 0.000000
0.125762 0.835294 0.000000
0.155304 0.458505 0.000000
0.139466 0.476317 0.000000
0.134858 0.496115 0.000000
0.109061 0.504849 0.000000
0.112238 0.859343 0.000000
0.866826 0.974780 0.000000
0.026919 0.865848 0.000000
0.348411 0.871602 0.000000
0.339654 0.840899 0.000000
0.369544 0.848927 0.000000
0.925986 0.818235 0.000000
0.909684 0.842117 0.000000
0.929360 0.717495 0.000000
0.924028 0.685311 0.000000
0.879688 0.955544 0.000000
0.875200 0.929284 0.000000
0.903901 0.918287 0.000000
0.950764 0.819790 0.000000
0.047492 0.878635 0.000000
0.069665 0.880314 0.000000
0.081712 0.904992 0.000000
0.573454 0.980624 0.000000
0.556694 0.550113 0.000000
0.094318 0.530060 0.000000
0.563246 0.571677 0.000000
0.563825 0.961795 0.000000
0.155902 0.972929 0.000000
0.577162 0.940912 0.000000
0.545227 0.533787 0.000000
0.864670 0.884377 0.000000
0.860690 0.911575 0.000000
0.840756 0.895862 0.000000
0.137227 0.926016 0.000000
0.139814 0.950758 0.000000
0.109156 0.913646 0.000000
0.884976 0.899786 0.000000
0.910807 0.890052 0.000000
0.830819 0.844574 0.000000
0.157710 0.484545 0.000000
0.180718 0.468069 0.000000
0.154331 0.510861 0.000000
0.124262 0.522394 0.000000
0.341085 0.732964 0.000000
0.323736 0.758404 0.000000
0.312899 0.730066 0.000000
0.857321 0.949854 0.000000
0.839840 0.975483 0.000000
0.053549 0.857833 0.000000
0.031143 0.832960 0.000000
0.840338 0.925315 0.000000
0.300796 0.756054 0.000000
0.080783 0.856286 0.000000
0.096939 0.884378 0.000000
0.544800 0.977874 0.000000
0.949430 0.731579 0.000000
0.955247 0.752582 0.000000
0.934712 0.748859 0.000000
0.030153 0.591093 0.000000
[...]
POINT_DATA 1445
SCALARS UX float 1
LOOKUP_TABLE default
-0.059817
0.000555
-0.000000
-0.060418
-0.060137
0.000000
-0.058042
-0.056267
-0.054491
-0.052716
-0.050941
-0.049165
-0.047390
-0.045614
-0.043839
-0.042063
-0.040288
-0.038512
-0.036737
-0.034961
-0.033185
-0.031410
-0.029634
-0.027859
-0.026083
-0.024307
-0.022531
-0.020756
-0.018980
-0.017204
-0.015428
-0.013652
-0.011876
-0.010100
-0.008324
-0.006548
-0.004772
-0.002996
-0.001221
0.000555
0.000555
0.000555
0.000555
0.000555
0.000554
0.000554
0.000553
0.000552
0.000551
0.000550
0.000548
0.000546
0.000543
0.000539
0.000534
0.000526
0.000509
0.000461
-0.000000
0.000000
-0.000000
-0.000000
-0.000000
-0.000000
-0.000000
-0.000000
-0.000000
-0.000000
-0.000000
-0.000000
-0.000000
-0.001777
-0.003555
-0.005332
-0.007110
-0.008888
-0.010665
-0.012443
-0.014221
-0.015999
-0.017777
-0.019555
-0.021333
-0.023110
-0.024888
-0.026665
-0.028442
-0.030219
-0.031996
-0.033773
-0.035550
-0.037327
-0.039103
-0.040880
-0.042656
-0.044433
-0.046209
-0.047985
-0.049761
-0.051537
-0.053314
-0.055090
-0.056866
-0.058642
-0.060418
-0.060419
-0.060419
-0.060420
-0.060421
-0.060421
-0.060423
-0.060424
-0.060425
-0.060427
-0.060428
-0.060430
-0.060432
-0.060434
-0.060436
-0.060439
-0.060441
-0.060438
-0.060414
-0.059832
-0.059815
-0.059811
-0.059812
-0.059813
-0.059814
-0.059814
-0.059815
-0.059816
-0.059816
-0.059817
-0.059817
-0.059817
-0.058355
-0.056598
-0.054825
-0.053039
-0.051257
-0.049483
-0.047706
-0.045931
-0.044153
-0.042377
-0.040592
-0.038816
-0.037036
-0.035251
-0.033482
-0.031703
-0.029939
-0.028175
-0.026396
-0.024628
-0.022844
-0.021066
-0.019291
-0.017509
-0.015737
-0.013964
-0.012195
-0.010427
-0.008664
-0.006897
-0.005135
-0.003396
-0.001695
-0.003161
-0.004978
-0.052801
-0.054374
-0.054137
-0.053314
-0.058659
-0.057594
-0.058910
-0.057018
-0.001348
-0.002207
-0.001584
-0.023861
-0.025445
-0.025917
-0.006236
-0.004869
-0.004370
-0.006075
-0.001566
-0.001380
-0.055794
-0.054224
-0.008383
-0.009153
-0.009723
-0.010872
-0.007752
-0.007119
-0.006356
-0.023795
-0.022674
-0.024190
-0.050274
-0.048390
-0.049072
-0.012832
-0.014825
-0.013388
-0.048856
-0.012016
-0.010289
-0.011759
-0.011325
-0.010717
-0.010052
-0.009077
-0.012616
-0.013731
-0.049560
-0.050730
-0.050038
-0.024895
-0.051848
-0.010435
-0.008488
-0.007119
-0.007700
-0.006378
-0.005441
-0.005996
-0.007448
-0.022201
-0.010977
-0.012836
-0.011365
-0.011566
-0.056414
-0.055370
-0.056919
-0.058169
-0.058882
-0.042022
-0.043746
-0.043260
-0.012402
-0.012260
-0.007904
-0.009658
-0.008176
-0.057804
-0.058700
-0.059172
-0.009283
-0.056876
-0.057284
-0.056085
-0.057502
-0.058824
-0.001988
-0.003215
-0.003616
-0.002613
-0.055805
-0.055444
-0.056334
-0.053532
-0.054906
-0.052661
-0.058809
-0.057594
-0.003456
-0.004682
-0.001575
-0.001654
-0.003412
-0.001915
-0.013255
-0.014730
-0.013487
-0.003912
-0.004403
-0.002767
-0.015367
-0.002901
-0.056330
-0.057329
-0.058742
-0.059036
-0.001063
-0.002969
-0.002598
-0.003771
-0.002000
-0.004628
-0.001073
-0.054830
-0.001406
-0.056315
-0.006892
-0.004935
-0.006195
-0.054810
-0.004287
-0.055540
-0.024641
-0.051338
-0.052050
-0.052827
-0.051028
-0.052008
-0.052294
-0.053854
-0.053642
-0.008048
-0.058794
-0.039379
-0.039910
-0.038104
-0.004475
-0.005460
-0.004280
-0.004613
-0.007271
-0.007543
-0.005808
-0.002977
-0.057552
-0.056213
-0.055485
-0.025781
-0.026806
-0.054743
-0.026427
-0.026363
-0.051003
-0.025558
-0.027461
-0.008180
-0.008420
-0.009626
-0.052132
-0.051975
-0.053827
-0.006952
-0.005391
-0.010229
-0.050911
-0.049515
-0.051120
-0.052935
-0.039829
-0.040875
-0.041532
-0.008623
-0.009680
-0.057187
-0.058540
-0.009650
-0.042261
-0.055542
-0.054566
-0.027513
-0.003062
-0.002708
-0.003952
-0.058613
-0.054921
-0.053797
-0.004925
-0.031726
-0.031594
-0.033499
-0.032972
-0.050745
-0.052438
-0.012757
-0.014058
-0.049376
-0.047519
-0.049532
-0.051800
-0.001584
-0.003269
-0.001593
-0.056478
-0.059062
-0.054539
-0.006457
-0.044306
-0.045534
-0.044670
-0.056696
-0.058312
-0.046076
-0.052859
-0.053750
-0.042702
-0.044078
-0.042519
-0.039176
-0.040306
-0.040784
-0.038928
-0.046958
-0.042261
-0.041189
-0.049155
-0.041495
-0.042157
-0.043055
-0.044092
-0.047706
-0.040178
-0.039256
-0.053523
-0.053155
-0.054938
-0.048521
-0.050517
-0.046011
-0.043037
-0.042216
-0.040671
-0.043835
-0.044761
-0.056194
-0.045645
-0.058834
-0.007030
-0.008072
-0.008640
-0.043118
-0.041503
-0.040444
-0.045043
-0.043571
-0.045823
-0.043951
-0.042121
-0.045862
-0.004773
-0.044445
-0.006070
-0.044599
-0.045863
-0.044524
-0.045766
-0.044058
-0.046777
-0.044281
-0.045689
-0.046807
-0.041277
-0.041045
-0.043021
-0.039617
-0.039729
-0.058667
-0.057450
-0.056907
-0.055999
-0.049247
-0.047505
-0.047765
-0.042408
-0.044643
-0.043906
-0.048806
-0.048206
-0.045431
-0.047110
-0.052945
-0.054363
-0.054762
-0.055024
-0.051075
-0.050997
-0.049396
-0.051038
-0.052068
-0.052094
-0.045103
-0.046790
-0.045935
-0.045381
-0.049263
-0.050213
-0.050770
-0.057806
-0.041590
-0.039765
-0.040352
-0.047351
-0.045463
-0.046451
-0.057328
-0.053164
-0.054490
-0.053393
-0.055215
-0.045738
-0.038587
-0.014279
-0.014049
-0.015925
-0.055859
-0.056312
-0.015535
-0.001530
-0.048485
-0.049527
-0.047549
-0.003296
-0.050292
-0.037991
-0.038650
-0.054637
-0.057421
-0.011583
-0.013371
-0.011966
-0.012956
-0.049022
-0.040623
-0.048549
-0.016240
-0.014374
-0.015745
-0.036591
-0.035985
-0.058799
-0.037424
-0.020987
-0.020619
-0.022779
-0.022347
-0.047550
-0.009556
-0.054989
-0.046792
-0.050806
-0.007422
-0.012068
-0.047713
-0.041491
-0.041571
-0.040235
-0.008556
-0.024356
-0.026029
-0.025631
-0.023984
-0.015022
-0.014048
-0.016070
-0.014893
-0.027420
-0.058626
-0.027673
-0.038819
-0.037025
-0.051882
-0.017167
-0.016827
-0.050279
-0.039651
-0.015167
-0.019307
-0.018923
-0.035465
-0.036525
-0.034651
-0.047723
-0.008705
-0.026893
-0.027985
-0.026699
-0.027353
-0.028525
-0.023693
-0.025361
-0.024138
-0.024952
-0.025562
-0.022135
-0.022412
-0.023163
-0.043004
-0.044360
-0.017566
-0.018743
-0.018669
-0.017569
-0.016463
-0.013818
-0.020350
-0.020638
-0.021376
-0.019637
-0.006603
-0.005968
-0.009977
-0.011176
-0.037090
-0.039067
-0.037588
-0.038485
-0.038450
-0.037752
-0.013918
-0.015368
-0.013603
-0.015742
-0.017175
-0.016825
-0.036155
-0.036587
-0.016647
-0.017090
-0.016159
-0.015079
-0.016816
-0.017562
-0.018630
-0.013887
-0.010391
-0.034615
-0.034061
-0.035492
-0.034442
-0.032630
-0.033441
-0.015389
-0.017208
-0.040799
-0.018110
-0.017705
-0.035118
-0.043617
-0.042286
-0.037878
-0.035185
-0.036426
-0.011061
-0.035221
-0.035703
-0.036574
-0.018976
-0.018564
-0.034297
-0.034711
-0.020344
-0.019363
-0.020410
-0.030565
-0.032192
-0.030684
-0.031854
-0.019057
-0.018531
-0.029342
-0.028933
-0.030671
-0.017205
-0.017916
-0.033394
-0.033867
-0.034736
-0.033280
-0.033654
-0.036049
-0.011380
-0.021143
-0.022194
-0.032474
-0.032893
-0.058803
-0.056856
-0.053265
-0.053485
-0.031587
-0.032044
-0.032930
-0.012181
-0.051689
-0.029787
-0.030248
-0.058204
-0.031124
-0.034248
-0.022128
-0.020805
-0.012780
-0.030668
-0.052365
-0.031086
-0.027990
-0.028435
-0.019923
-0.019500
-0.042374
-0.028871
-0.029291
-0.010473
-0.032457
-0.032746
-0.027073
-0.027504
-0.026640
-0.025280
-0.025709
-0.040810
-0.022929
-0.023981
-0.020851
-0.020423
-0.048095
-0.054009
-0.023917
-0.022591
-0.020039
-0.018250
-0.018987
-0.024849
-0.023490
-0.023264
-0.025052
-0.056309
-0.042424
-0.026837
-0.025772
-0.029715
-0.028638
-0.030377
-0.029350
-0.021481
-0.022548
-0.022632
-0.024415
-0.023061
-0.021704
-0.051845
-0.019699
-0.021280
-0.012530
-0.046912
-0.029289
-0.029149
-0.020767
-0.026196
-0.027564
-0.024717
-0.030223
-0.030120
-0.031525
-0.029741
-0.059102
-0.027413
-0.038364
-0.037535
-0.021638
-0.016462
-0.024381
-0.014736
-0.026508
-0.026172
-0.028298
-0.027960
-0.030003
-0.034223
-0.035621
-0.035075
-0.023063
-0.030260
-0.028871
-0.029924
-0.031587
-0.031825
-0.031146
-0.031392
-0.018013
-0.048570
-0.047278
-0.018504
-0.037852
-0.036987
-0.034337
-0.033449
-0.033168
-0.019491
-0.035379
-0.049458
-0.032380
-0.011301
-0.020443
-0.036636
-0.036277
-0.028849
-0.028234
-0.037355
-0.031201
-0.021415
-0.038270
-0.032849
-0.039428
-0.050648
-0.056721
-0.054906
-0.007120
-0.005549
-0.005797
-0.006601
-0.001205
-0.002269
-0.000954
-0.002845
-0.058469
-0.057613
-0.058233
-0.036013
-0.034429
-0.033958
-0.053589
-0.054954
-0.055452
-0.053750
-0.058253
-0.058438
-0.004068
-0.005638
-0.051462
-0.050689
-0.050124
-0.048974
-0.052097
-0.052724
-0.053492
-0.036053
-0.037172
-0.035658
-0.009588
-0.011472
-0.010789
-0.047004
-0.045015
-0.046450
-0.011006
-0.047822
-0.049545
-0.048077
-0.048513
-0.049122
-0.049784
-0.050758
-0.047224
-0.046110
-0.010324
-0.009155
-0.009849
-0.034954
-0.008039
-0.049406
-0.051349
-0.052715
-0.052133
-0.053451
-0.054387
-0.053836
-0.052391
-0.037645
-0.048855
-0.046999
-0.048469
-0.048266
-0.003487
-0.004527
-0.002974
-0.001729
-0.001011
-0.017838
-0.016114
-0.016600
-0.047443
-0.047582
-0.051952
-0.050204
-0.051691
-0.002144
-0.001225
-0.000771
-0.050570
-0.003054
-0.002579
-0.003777
-0.002361
-0.001039
-0.057832
-0.056606
-0.056206
-0.057208
-0.004119
-0.004491
-0.003616
-0.006330
-0.004956
-0.007201
-0.001102
-0.002323
-0.056400
-0.055186
-0.058321
-0.058168
-0.056427
-0.057928
-0.046579
-0.045106
-0.046348
-0.055910
-0.055420
-0.057054
-0.044470
-0.056920
-0.003586
-0.002578
-0.001121
-0.000867
-0.058756
-0.056857
-0.057222
-0.056051
-0.057818
-0.055195
-0.058745
-0.005085
-0.058412
-0.003548
-0.052992
-0.054915
-0.053669
-0.005053
-0.055536
-0.004368
-0.035231
-0.008528
-0.007814
-0.007039
-0.008885
-0.007905
-0.007615
-0.006055
-0.006222
-0.051779
-0.001071
-0.020482
-0.019954
-0.021758
-0.055348
-0.054364
-0.055548
-0.055224
-0.052555
-0.052284
-0.054016
-0.056843
-0.002313
-0.003651
-0.004379
-0.034069
-0.033068
-0.005160
-0.033446
-0.033487
-0.008858
-0.034292
-0.032415
-0.051648
-0.051408
-0.050204
-0.007731
-0.007887
-0.006036
-0.052874
-0.054433
-0.049604
-0.008997
-0.010391
-0.008784
-0.006968
-0.020040
-0.018993
-0.018339
-0.051205
-0.050150
-0.002679
-0.001326
-0.050180
-0.017608
-0.004323
-0.005298
-0.032339
-0.056760
-0.057112
-0.055872
-0.001276
-0.004970
-0.006101
-0.054900
-0.028151
-0.028282
-0.026378
-0.026906
-0.009118
-0.007425
-0.047077
-0.045778
-0.010526
-0.012381
-0.010366
-0.008098
-0.058234
-0.056552
-0.058225
-0.003388
-0.000806
-0.005327
-0.053369
-0.015582
-0.014356
-0.015220
-0.003191
-0.001571
-0.013817
-0.007033
-0.006138
-0.017184
-0.015807
-0.017364
-0.020702
-0.019571
-0.019095
-0.020947
-0.012903
-0.017620
-0.018692
-0.010709
-0.018372
-0.017709
-0.016812
-0.015775
-0.012192
-0.019689
-0.020611
-0.006352
-0.006717
-0.004935
-0.011371
-0.009375
-0.013884
-0.016834
-0.017657
-0.019201
-0.016034
-0.015111
-0.003689
-0.014225
-0.001045
-0.052797
-0.051756
-0.051190
-0.016746
-0.018361
-0.019420
-0.014840
-0.016312
-0.014064
-0.015929
-0.017757
-0.014019
-0.055051
-0.015447
-0.053757
-0.015270
-0.014002
-0.015341
-0.014098
-0.015805
-0.013101
-0.015596
-0.014186
-0.013066
-0.018608
-0.018838
-0.016867
-0.020265
-0.020155
-0.001210
-0.002429
-0.002969
-0.003880
-0.010626
-0.012366
-0.012111
-0.017453
-0.015219
-0.015957
-0.011073
-0.011676
-0.014432
-0.012753
-0.006925
-0.005506
-0.005109
-0.004851
-0.008796
-0.008872
-0.010474
-0.008830
-0.007801
-0.007773
-0.014758
-0.013072
-0.013927
-0.014480
-0.010613
-0.009665
-0.009106
-0.002068
-0.018271
-0.020095
-0.019508
-0.012516
-0.014404
-0.013417
-0.002539
-0.006721
-0.005394
-0.006488
-0.004671
-0.014157
-0.021277
-0.045568
-0.045795
-0.043922
-0.004008
-0.003557
-0.044309
-0.058287
-0.011379
-0.010339
-0.012317
-0.056525
-0.009572
-0.021877
-0.021221
-0.005230
-0.002460
-0.048281
-0.046495
-0.047905
-0.046905
-0.010868
-0.019252
-0.011338
-0.043601
-0.045464
-0.044094
-0.023278
-0.023882
-0.001190
-0.022443
-0.038887
-0.039252
-0.037093
-0.037529
-0.012339
-0.050275
-0.004892
-0.013099
-0.009057
-0.052408
-0.047765
-0.012182
-0.018396
-0.018316
-0.019649
-0.051323
-0.035514
-0.033842
-0.034238
-0.035884
-0.044841
-0.045810
-0.043789
-0.044961
-0.032453
-0.001243
-0.032197
-0.021046
-0.022839
-0.008001
-0.042672
-0.043013
-0.009602
-0.020229
-0.044675
-0.040568
-0.040948
-0.024414
-0.023355
-0.025227
-0.012139
-0.051127
-0.032965
-0.031876
-0.033161
-0.032509
-0.031335
-0.036163
-0.034497
-0.035721
-0.034904
-0.034298
-0.037720
-0.037446
-0.036692
-0.016885
-0.015532
-0.042284
-0.041108
-0.041184
-0.042278
-0.043388
-0.046018
-0.039502
-0.039218
-0.038476
-0.040214
-0.053224
-0.053869
-0.049893
-0.048682
-0.022769
-0.020793
-0.022273
-0.021374
-0.021433
-0.022129
-0.045954
-0.044508
-0.046279
-0.044129
-0.042697
-0.043053
-0.023706
-0.023275
-0.043196
-0.042755
-0.043695
-0.044772
-0.043041
-0.042292
-0.041229
-0.045963
-0.049488
-0.025253
-0.025804
-0.024373
-0.025435
-0.027245
-0.026433
-0.044449
-0.042633
-0.019063
-0.041734
-0.042136
-0.024745
-0.016257
-0.017589
-0.021981
-0.024690
-0.023453
-0.048791
-0.024637
-0.024156
-0.023284
-0.040871
-0.041282
-0.025563
-0.025150
-0.039504
-0.040494
-0.039450
-0.029298
-0.027672
-0.029181
-0.028008
-0.040786
-0.041311
-0.030512
-0.030919
-0.029183
-0.042658
-0.041945
-0.026463
-0.025991
-0.025122
-0.026582
-0.026210
-0.023808
-0.048451
-0.038715
-0.037668
-0.027385
-0.026968
-0.001069
-0.003016
-0.006603
-0.006382
-0.028269
-0.027813
-0.026926
-0.047697
-0.008185
-0.030068
-0.029608
-0.001666
-0.028731
-0.025608
-0.037722
-0.039045
-0.047072
-0.029189
-0.007511
-0.028773
-0.031863
-0.031419
-0.039923
-0.040345
-0.017489
-0.030985
-0.030567
-0.049358
-0.027399
-0.027121
-0.032781
-0.032351
-0.033213
-0.034572
-0.034145
-0.019053
-0.036931
-0.035882
-0.038994
-0.039422
-0.011774
-0.005869
-0.035935
-0.037261
-0.039829
-0.041617
-0.040878
-0.035002
-0.036360
-0.036601
-0.034815
-0.003565
-0.017437
-0.033031
-0.034093
-0.030156
-0.031231
-0.029493
-0.030517
-0.038383
-0.037319
-0.037216
-0.035434
-0.036788
-0.038144
-0.008035
-0.040163
-0.038567
-0.047326
-0.012973
-0.030572
-0.030715
-0.039099
-0.033655
-0.032302
-0.035144
-0.029638
-0.029756
-0.028335
-0.030118
-0.000773
-0.032438
-0.021516
-0.022343
-0.038231
-0.043405
-0.035473
-0.045132
-0.033356
-0.033684
-0.031567
-0.031898
-0.029863
-0.025650
-0.024253
-0.024797
-0.036807
-0.029613
-0.031002
-0.029951
-0.028286
-0.028046
-0.028723
-0.028475
-0.041862
-0.011296
-0.012586
-0.041337
-0.022024
-0.022887
-0.025533
-0.026420
-0.026703
-0.040352
-0.024491
-0.010409
-0.027488
-0.048531
-0.039401
-0.023239
-0.023594
-0.031026
-0.031640
-0.022517
-0.028673
-0.038430
-0.021603
-0.027023
-0.020445
-0.009218
SCALARS UY float 1
LOOKUP_TABLE default
-0.000000
-0.000000
-0.141000
-0.141000
-0.056400
-0.084608
-0.000000
-0.000000
-0.000000
-0.000000
-0.000000
-0.000000
-0.000000
-0.000000
-0.000000
-0.000000
-0.000000
-0.000000
-0.000000
-0.000000
-0.000000
-0.000000
-0.000000
-0.000000
-0.000000
-0.000000
-0.000000
-0.000000
-0.000000
-0.000000
-0.000000
-0.000000
-0.000000
-0.000000
-0.000000
-0.000000
-0.000000
-0.000000
-0.000000
-0.004227
-0.008453
-0.012679
-0.016906
-0.021132
-0.025359
-0.029585
-0.033811
-0.038037
-0.042263
-0.046490
-0.050716
-0.054942
-0.059168
-0.063393
-0.067619
-0.071844
-0.076072
-0.080306
-0.088676
-0.092708
-0.096733
-0.100756
-0.104780
-0.108805
-0.112829
-0.116854
-0.120878
-0.124902
-0.128927
-0.132951
-0.136975
-0.141000
-0.141000
-0.141000
-0.141000
-0.141000
-0.141000
-0.141000
-0.141000
-0.141000
-0.141000
-0.141000
-0.141000
-0.141000
-0.141000
-0.141000
-0.141000
-0.141000
-0.141000
-0.141000
-0.141000
-0.141000
-0.141000
-0.141000
-0.141000
-0.141000
-0.141000
-0.141000
-0.141000
-0.141000
-0.141000
-0.141000
-0.141000
-0.141000
-0.136772
-0.132545
-0.128317
-0.124090
-0.119862
-0.115635
-0.111408
-0.107181
-0.102954
-0.098727
-0.094500
-0.090273
-0.086046
-0.081820
-0.077593
-0.073366
-0.069140
-0.064912
-0.060677
-0.052316
-0.048288
-0.044263
-0.040239
-0.036215
-0.032191
-0.028167
-0.024143
-0.020119
-0.016096
-0.012072
-0.008048
-0.004024
-0.057226
-0.058066
-0.058896
-0.059715
-0.060557
-0.061379
-0.062217
-0.063038
-0.063869
-0.064695
-0.065523
-0.066352
-0.067173
-0.068012
-0.068842
-0.069659
-0.070496
-0.071332
-0.072150
-0.072980
-0.073819
-0.074640
-0.075469
-0.076297
-0.077124
-0.077955
-0.078778
-0.079617
-0.080440
-0.081284
-0.082106
-0.082942
-0.083787
-0.087104
-0.086023
-0.064189
-0.065673
-0.062383
-0.067833
-0.126287
-0.129450
-0.130619
-0.126792
-0.098174
-0.100815
-0.103831
-0.077507
-0.077565
-0.075295
-0.137050
-0.135039
-0.137649
-0.133199
-0.130386
-0.126738
-0.137278
-0.137398
-0.098541
-0.101995
-0.098941
-0.101634
-0.095309
-0.097987
-0.094886
-0.133633
-0.137197
-0.137802
-0.133112
-0.133778
-0.137182
-0.120712
-0.120493
-0.117445
-0.130065
-0.114542
-0.115256
-0.118160
-0.111661
-0.108568
-0.111662
-0.108983
-0.111580
-0.114070
-0.087627
-0.087617
-0.084389
-0.135714
-0.085040
-0.105495
-0.105083
-0.104927
-0.107601
-0.107898
-0.105158
-0.102456
-0.101496
-0.133251
-0.124548
-0.124604
-0.121566
-0.128015
-0.075481
-0.077974
-0.079771
-0.076556
-0.079820
-0.136974
-0.137505
-0.133432
-0.104049
-0.108360
-0.092643
-0.091412
-0.088997
-0.062242
-0.066216
-0.062628
-0.095406
-0.065392
-0.136322
-0.133618
-0.132467
-0.134801
-0.133826
-0.130916
-0.134421
-0.137388
-0.066544
-0.063408
-0.061497
-0.133403
-0.134263
-0.137369
-0.070783
-0.068780
-0.090252
-0.088936
-0.087198
-0.095027
-0.093770
-0.090629
-0.137755
-0.134145
-0.134161
-0.125581
-0.122344
-0.124404
-0.137474
-0.127980
-0.069034
-0.072510
-0.138482
-0.074162
-0.137190
-0.097736
-0.120919
-0.118515
-0.117639
-0.131692
-0.119636
-0.068890
-0.122858
-0.129994
-0.085135
-0.092649
-0.089845
-0.131190
-0.128525
-0.072086
-0.081285
-0.117774
-0.121237
-0.117793
-0.064707
-0.067220
-0.070009
-0.071238
-0.121181
-0.137447
-0.122096
-0.122909
-0.118584
-0.119714
-0.115395
-0.118759
-0.101200
-0.096661
-0.134737
-0.131038
-0.129489
-0.115616
-0.123898
-0.124135
-0.127613
-0.138270
-0.077611
-0.074790
-0.080651
-0.135617
-0.137186
-0.132674
-0.075304
-0.124711
-0.128543
-0.126329
-0.130576
-0.134062
-0.128832
-0.126883
-0.125512
-0.119102
-0.068377
-0.066060
-0.072086
-0.073711
-0.103377
-0.106961
-0.102969
-0.133935
-0.137546
-0.120968
-0.117462
-0.130478
-0.106630
-0.120750
-0.124708
-0.137882
-0.103188
-0.106148
-0.105621
-0.083384
-0.081775
-0.077561
-0.108846
-0.073705
-0.077638
-0.076779
-0.072744
-0.128538
-0.125505
-0.130810
-0.131357
-0.070118
-0.067135
-0.075057
-0.076579
-0.114293
-0.112576
-0.111028
-0.117463
-0.113825
-0.117164
-0.122473
-0.077967
-0.077330
-0.074975
-0.084699
-0.088150
-0.074221
-0.080824
-0.084942
-0.078478
-0.081685
-0.082853
-0.087762
-0.090638
-0.087235
-0.092346
-0.136765
-0.086865
-0.083934
-0.125422
-0.110467
-0.114529
-0.110149
-0.114039
-0.072004
-0.110026
-0.107007
-0.099331
-0.103378
-0.102011
-0.078693
-0.080326
-0.069906
-0.102662
-0.099851
-0.099316
-0.105961
-0.102051
-0.089231
-0.105742
-0.092638
-0.119182
-0.121771
-0.118005
-0.118132
-0.118298
-0.114507
-0.085768
-0.085264
-0.081426
-0.089149
-0.091125
-0.089806
-0.111980
-0.071519
-0.110952
-0.109324
-0.115926
-0.117907
-0.119978
-0.121536
-0.094183
-0.094103
-0.097916
-0.101795
-0.075658
-0.080019
-0.073910
-0.077897
-0.073439
-0.096999
-0.094607
-0.097645
-0.093942
-0.102046
-0.105935
-0.098117
-0.129443
-0.130601
-0.125911
-0.094353
-0.089918
-0.123854
-0.123661
-0.106982
-0.109142
-0.105940
-0.098398
-0.105214
-0.109237
-0.107466
-0.112427
-0.110836
-0.114158
-0.134701
-0.131768
-0.127317
-0.138244
-0.098408
-0.095059
-0.097831
-0.100729
-0.133319
-0.136352
-0.130796
-0.113300
-0.112305
-0.109438
-0.113940
-0.087683
-0.088476
-0.091011
-0.085856
-0.066228
-0.115481
-0.106665
-0.110499
-0.109343
-0.114200
-0.109749
-0.113048
-0.107297
-0.120992
-0.117276
-0.117634
-0.109187
-0.121418
-0.103988
-0.100021
-0.112682
-0.091477
-0.090245
-0.088972
-0.086543
-0.092738
-0.081696
-0.094307
-0.085130
-0.123211
-0.123909
-0.126594
-0.100742
-0.104666
-0.059546
-0.108049
-0.078640
-0.082737
-0.082004
-0.077305
-0.081442
-0.122269
-0.091549
-0.078059
-0.124864
-0.110648
-0.134639
-0.075578
-0.071559
-0.067880