# vtk DataFile Version 2.0
Test
ASCII
DATASET POLYDATA
POINTS 1445 float
0.000000 0.000000 0.000000
1.000000 0.000000 0.000000
1.000000 1.000000 0.000000
0.000000 1.000000 0.000000
0.000000 0.400000 0.000000
1.000000 0.600000 0.000000
0.029412 0.000000 0.000000
0.058824 0.000000 0.000000
0.088235 0.000000 0.000000
0.117647 0.000000 0.000000
0.147059 0.000000 0.000000
0.176471 0.000000 0.000000
0.205882 0.000000 0.000000
0.235294 0.000000 0.000000
0.264706 0.000000 0.000000
0.294118 0.000000 0.000000
0.323529 0.000000 0.000000
0.352941 0.000000 0.000000
0.382353 0.000000 0.000000
0.411765 0.000000 0.000000
0.441176 0.000000 0.000000
0.470588 0.000000 0.000000
0.500000 0.000000 0.000000
0.529412 0.000000 0.000000
0.558824 0.000000 0.000000
0.588235 0.000000 0.000000
0.617647 0.000000 0.000000
0.647059 0.000000 0.000000
0.676471 0.000000 0.000000
0.705882 0.000000 0.000000
0.735294 0.000000 0.000000
0.764706 0.000000 0.000000
0.794118 0.000000 0.000000
0.823529 0.000000 0.000000
0.852941 0.000000 0.000000
0.882353 0.000000 0.000000
0.911765 0.000000 0.000000
0.941176 0.000000 0.000000
0.970588 0.000000 0.000000
1.000000 0.030000 0.000000
1.000000 0.060000 0.000000
1.000000 0.090000 0.000000
1.000000 0.120000 0.000000
1.000000 0.150000 0.000000
1.000000 0.180000 0.000000
1.000000 0.210000 0.000000
1.000000 0.240000 0.000000
1.000000 0.270000 0.000000
1.000000 0.300000 0.000000
1.000000 0.330000 0.000000
1.000000 0.360000 0.000000
1.000000 0.390000 0.000000
1.000000 0.420000 0.000000
1.000000 0.450000 0.000000
1.000000 0.480000 0.000000
1.000000 0.510000 0.000000
1.000000 0.540000 0.000000
1.000000 0.570000 0.000000
1.000000 0.628571 0.000000
1.000000 0.657143 0.000000
1.000000 0.685714 0.000000
1.000000 0.714286 0.000000
1.000000 0.742857 0.000000
1.000000 0.771429 0.000000
1.000000 0.800000 0.000000
1.000000 0.828571 0.000000
1.000000 0.857143 0.000000
1.000000 0.885714 0.000000
1.000000 0.914286 0.000000
1.000000 0.942857 0.000000
1.000000 0.971429 0.000000
0.970588 1.000000 0.000000
0.941176 1.000000 0.000000
0.911765 1.000000 0.000000
0.882353 1.000000 0.000000
0.852941 1.000000 0.000000
0.823529 1.000000 0.000000
0.794118 1.000000 0.000000
0.764706 1.000000 0.000000
0.735294 1.000000 0.000000
0.705882 1.000000 0.000000
0.676471 1.000000 0.000000
0.647059 1.000000 0.000000
0.617647 1.000000 0.000000
0.588235 1.000000 0.000000
0.558824 1.000000 0.000000
0.529412 1.000000 0.000000
0.500000 1.000000 0.000000
0.470588 1.000000 0.000000
0.441176 1.000000 0.000000
0.411765 1.000000 0.000000
0.382353 1.000000 0.000000
0.352941 1.000000 0.000000
0.323529 1.000000 0.000000
0.294118 1.000000 0.000000
0.264706 1.000000 0.000000
0.235294 1.000000 0.000000
0.205882 1.000000 0.000000
0.176471 1.000000 0.000000
0.147059 1.000000 0.000000
0.117647 1.000000 0.000000
0.088235 1.000000 0.000000
0.058824 1.000000 0.000000
0.029412 1.000000 0.000000
0.000000 0.970000 0.000000
0.000000 0.940000 0.000000
0.000000 0.910000 0.000000
0.000000 0.880000 0.000000
0.000000 0.850000 0.000000
0.000000 0.820000 0.000000
0.000000 0.790000 0.000000
0.000000 0.760000 0.000000
0.000000 0.730000 0.000000
0.000000 0.700000 0.000000
0.000000 0.670000 0.000000
0.000000 0.640000 0.000000
0.000000 0.610000 0.000000
0.000000 0.580000 0.000000
0.000000 0.550000 0.000000
0.000000 0.520000 0.000000
0.000000 0.490000 0.000000
0.000000 0.460000 0.000000
0.000000 0.430000 0.000000
0.000000 0.371429 0.000000
0.000000 0.342857 0.000000
0.000000 0.314286 0.000000
0.000000 0.285714 0.000000
0.000000 0.257143 0.000000
0.000000 0.228571 0.000000
0.000000 0.200000 0.000000
0.000000 0.171429 0.000000
0.000000 0.142857 0.000000
0.000000 0.114286 0.000000
0.000000 0.085714 0.000000
0.000000 0.057143 0.000000
0.000000 0.028571 0.000000
0.029412 0.405882 0.000000
0.058824 0.411765 0.000000
0.088235 0.417647 0.000000
0.117647 0.423529 0.000000
0.147059 0.429412 0.000000
0.176471 0.435294 0.000000
0.205882 0.441176 0.000000
0.235294 0.447059 0.000000
0.264706 0.452941 0.000000
0.294118 0.458824 0.000000
0.323529 0.464706 0.000000
0.352941 0.470588 0.000000
0.382353 0.476471 0.000000
0.411765 0.482353 0.000000
0.441176 0.488235 0.000000
0.470588 0.494118 0.000000
0.500000 0.500000 0.000000
0.529412 0.505882 0.000000
0.558824 0.511765 0.000000
0.588235 0.517647 0.000000
0.617647 0.523529 0.000000
0.647059 0.529412 0.000000
0.676471 0.535294 0.000000
0.705882 0.541176 0.000000
0.735294 0.547059 0.000000
0.764706 0.552941 0.000000
0.794118 0.558824 0.000000
0.823529 0.564706 0.000000
0.852941 0.570588 0.000000
0.882353 0.576471 0.000000
0.911765 0.582353 0.000000
0.941176 0.588235 0.000000
0.970588 0.594118 0.000000
0.948492 0.617586 0.000000
0.918239 0.609871 0.000000
0.126115 0.454845 0.000000
0.100318 0.465379 0.000000
0.103006 0.442114 0.000000
0.117916 0.480680 0.000000
0.029145 0.895585 0.000000
0.046774 0.918032 0.000000
0.024990 0.926329 0.000000
0.056315 0.899171 0.000000
0.977770 0.695981 0.000000
0.963577 0.714729 0.000000
0.973827 0.736127 0.000000
0.605253 0.549394 0.000000
0.579370 0.549801 0.000000
0.570019 0.533816 0.000000
0.896809 0.971959 0.000000
0.919426 0.957680 0.000000
0.927686 0.976215 0.000000
0.899487 0.944624 0.000000
0.974081 0.924646 0.000000
0.977161 0.898750 0.000000
0.076578 0.973587 0.000000
0.102577 0.974440 0.000000
0.861693 0.698664 0.000000
0.848870 0.723174 0.000000
0.839521 0.701504 0.000000
0.820447 0.720618 0.000000
0.872237 0.675719 0.000000
0.882611 0.694724 0.000000
0.895344 0.672729 0.000000
0.606326 0.947716 0.000000
0.624868 0.973015 0.000000
0.599776 0.977307 0.000000
0.167986 0.944019 0.000000
0.199183 0.948746 0.000000
0.187884 0.972901 0.000000
0.787752 0.856005 0.000000
0.754801 0.854462 0.000000
0.778588 0.832828 0.000000
0.191471 0.922393 0.000000
0.801312 0.812216 0.000000
0.829867 0.817276 0.000000
0.805526 0.837896 0.000000
0.812775 0.791772 0.000000
0.822869 0.769821 0.000000
0.833826 0.791773 0.000000
0.849982 0.772760 0.000000
0.791421 0.791198 0.000000
0.772962 0.808877 0.000000
0.180049 0.621172 0.000000
0.160680 0.621098 0.000000
0.172158 0.598185 0.000000
0.588124 0.962489 0.000000
0.142171 0.602810 0.000000
0.827587 0.748015 0.000000
0.859778 0.745080 0.000000
0.882413 0.743965 0.000000
0.872759 0.762938 0.000000
0.894601 0.765041 0.000000
0.910115 0.745588 0.000000
0.901004 0.726420 0.000000
0.877058 0.719626 0.000000
0.632694 0.945006 0.000000
0.818411 0.883232 0.000000
0.787667 0.883633 0.000000
0.812018 0.862064 0.000000
0.808649 0.907835 0.000000
0.066636 0.534974 0.000000
0.083909 0.552665 0.000000
0.058224 0.565435 0.000000
0.037551 0.542621 0.000000
0.025720 0.565794 0.000000
0.304619 0.971425 0.000000
0.276072 0.975195 0.000000
0.284125 0.946285 0.000000
0.795087 0.737757 0.000000
0.797357 0.768346 0.000000
0.869843 0.656802 0.000000
0.840870 0.648068 0.000000
0.865462 0.630915 0.000000
0.043233 0.441011 0.000000
0.028792 0.469222 0.000000
0.020751 0.443790 0.000000
0.846918 0.676414 0.000000
0.058991 0.463368 0.000000
0.051906 0.966804 0.000000
0.071758 0.947609 0.000000
0.048298 0.939447 0.000000
0.026398 0.956010 0.000000
0.967109 0.949068 0.000000
0.946807 0.928411 0.000000
0.940173 0.953295 0.000000
0.956764 0.974357 0.000000
0.076722 0.471546 0.000000
0.082324 0.449317 0.000000
0.066669 0.435847 0.000000
0.114035 0.946088 0.000000
0.091278 0.952186 0.000000
0.128453 0.974235 0.000000
0.027019 0.501643 0.000000
0.047138 0.487417 0.000000
0.943388 0.639892 0.000000
0.923239 0.630552 0.000000
0.974491 0.618278 0.000000
0.972785 0.673666 0.000000
0.943930 0.664809 0.000000
0.968693 0.642530 0.000000
0.780685 0.976970 0.000000
0.756289 0.951349 0.000000
0.776857 0.951460 0.000000
0.935276 0.890540 0.000000
0.927168 0.867561 0.000000
0.954227 0.882176 0.000000
0.745760 0.974977 0.000000
0.952002 0.907568 0.000000
0.068063 0.489215 0.000000
0.051512 0.513895 0.000000
0.027757 0.982136 0.000000
0.023217 0.525632 0.000000
0.982410 0.972952 0.000000
0.951072 0.692907 0.000000
0.957020 0.857438 0.000000
0.937630 0.840379 0.000000
0.966912 0.834149 0.000000
0.923427 0.933924 0.000000
0.982257 0.848323 0.000000
0.092881 0.488189 0.000000
0.976737 0.871201 0.000000
0.067960 0.921895 0.000000
0.886538 0.603532 0.000000
0.918896 0.656866 0.000000
0.898227 0.636966 0.000000
0.092880 0.930380 0.000000
0.929071 0.911440 0.000000
0.081137 0.510877 0.000000
0.592772 0.576158 0.000000
0.150419 0.835159 0.000000
0.138607 0.859733 0.000000
0.125762 0.835294 0.000000
0.155304 0.458505 0.000000
0.139466 0.476317 0.000000
0.134858 0.496115 0.000000
0.109061 0.504849 0.000000
0.112238 0.859343 0.000000
0.866826 0.974780 0.000000
0.026919 0.865848 0.000000
0.348411 0.871602 0.000000
0.339654 0.840899 0.000000
0.369544 0.848927 0.000000
0.925986 0.818235 0.000000
0.909684 0.842117 0.000000
0.929360 0.717495 0.000000
0.924028 0.685311 0.000000
0.879688 0.955544 0.000000
0.875200 0.929284 0.000000
0.903901 0.918287 0.000000
0.950764 0.819790 0.000000
0.047492 0.878635 0.000000
0.069665 0.880314 0.000000
0.081712 0.904992 0.000000
0.573454 0.980624 0.000000
0.556694 0.550113 0.000000
0.094318 0.530060 0.000000
0.563246 0.571677 0.000000
0.563825 0.961795 0.000000
0.155902 0.972929 0.000000
0.577162 0.940912 0.000000
0.545227 0.533787 0.000000
0.864670 0.884377 0.000000
0.860690 0.911575 0.000000
0.840756 0.895862 0.000000
0.137227 0.926016 0.000000
0.139814 0.950758 0.000000
0.109156 0.913646 0.000000
0.884976 0.899786 0.000000
0.910807 0.890052 0.000000
0.830819 0.844574 0.000000
0.157710 0.484545 0.000000
0.180718 0.468069 0.000000
0.154331 0.510861 0.000000
0.124262 0.522394 0.000000
0.341085 0.732964 0.000000
0.323736 0.758404 0.000000
0.312899 0.730066 0.000000
0.857321 0.949854 0.000000
0.839840 0.975483 0.000000
0.053549 0.857833 0.000000
0.031143 0.832960 0.000000
0.840338 0.925315 0.000000
0.300796 0.756054 0.000000
0.080783 0.856286 0.000000
0.096939 0.884378 0.000000
0.544800 0.977874 0.000000
0.949430 0.731579 0.000000
0.955247 0.752582 0.000000
0.934712 0.748859 0.000000
0.030153 0.591093 0.000000
[...]
POINT_DATA 1445
SCALARS UX float 1
LOOKUP_TABLE default
-0.326142
-0.000000
0.000000
-0.326142
-0.326142
0.000000
-0.316550
-0.306957
-0.297365
-0.287773
-0.278180
-0.268588
-0.258995
-0.249403
-0.239811
-0.230218
-0.220626
-0.211033
-0.201441
-0.191848
-0.182256
-0.172664
-0.163071
-0.153479
-0.143886
-0.134294
-0.124701
-0.115109
-0.105517
-0.095924
-0.086332
-0.076739
-0.067147
-0.057555
-0.047962
-0.038370
-0.028777
-0.019185
-0.009592
-0.000000
-0.000000
-0.000000
-0.000000
-0.000000
-0.000000
-0.000000
-0.000000
-0.000000
-0.000000
-0.000000
-0.000000
-0.000000
-0.000000
-0.000000
-0.000000
-0.000000
0.000000
0.000000
-0.000000
-0.000000
0.000000
-0.000000
-0.000000
-0.000000
-0.000000
0.000000
-0.000000
0.000000
-0.000000
0.000000
-0.000000
-0.009592
-0.019185
-0.028777
-0.038370
-0.047962
-0.057555
-0.067147
-0.076739
-0.086332
-0.095924
-0.105517
-0.115109
-0.124701
-0.134294
-0.143886
-0.153479
-0.163071
-0.172664
-0.182256
-0.191848
-0.201441
-0.211033
-0.220626
-0.230218
-0.239811
-0.249403
-0.258995
-0.268588
-0.278180
-0.287773
-0.297365
-0.306957
-0.316550
-0.326142
-0.326142
-0.326142
-0.326142
-0.326142
-0.326142
-0.326142
-0.326142
-0.326142
-0.326142
-0.326142
-0.326142
-0.326142
-0.326142
-0.326142
-0.326142
-0.326142
-0.326142
-0.326142
-0.326142
-0.326142
-0.326142
-0.326142
-0.326142
-0.326142
-0.326142
-0.326142
-0.326142
-0.326142
-0.326142
-0.326142
-0.326142
-0.316550
-0.306957
-0.297365
-0.287773
-0.278180
-0.268588
-0.258995
-0.249403
-0.239811
-0.230218
-0.220626
-0.211033
-0.201441
-0.191848
-0.182256
-0.172664
-0.163071
-0.153479
-0.143886
-0.134294
-0.124701
-0.115109
-0.105517
-0.095924
-0.086332
-0.076739
-0.067147
-0.057555
-0.047962
-0.038370
-0.028777
-0.019185
-0.009592
-0.016799
-0.026666
-0.285011
-0.293424
-0.292548
-0.287685
-0.316637
-0.310887
-0.317992
-0.307776
-0.007250
-0.011879
-0.008536
-0.128744
-0.137185
-0.140235
-0.033655
-0.026279
-0.023585
-0.032781
-0.008453
-0.007449
-0.301167
-0.292688
-0.045108
-0.049290
-0.052339
-0.058560
-0.041669
-0.038286
-0.034133
-0.128394
-0.122346
-0.130530
-0.271355
-0.261180
-0.264865
-0.069223
-0.079970
-0.072212
-0.263696
-0.064800
-0.055488
-0.063426
-0.061062
-0.057770
-0.054196
-0.048927
-0.068027
-0.074047
-0.267421
-0.273738
-0.269994
-0.134330
-0.279774
-0.056231
-0.045732
-0.038350
-0.041499
-0.034375
-0.029315
-0.032287
-0.040096
-0.119794
-0.059224
-0.069251
-0.061309
-0.062408
-0.304410
-0.298776
-0.307153
-0.313895
-0.317754
-0.226793
-0.236104
-0.233477
-0.066831
-0.066091
-0.042450
-0.051899
-0.043879
-0.312042
-0.316752
-0.319374
-0.049926
-0.306903
-0.309214
-0.302739
-0.310390
-0.317533
-0.010727
-0.017348
-0.019512
-0.014101
-0.301120
-0.299293
-0.304399
-0.288951
-0.296373
-0.284248
-0.317330
-0.310769
-0.018464
-0.025035
-0.008320
-0.008876
-0.018287
-0.010211
-0.071528
-0.079484
-0.072776
-0.021109
-0.023753
-0.014928
-0.082919
-0.015654
-0.303944
-0.309342
-0.317090
-0.318570
-0.005737
-0.015958
-0.014017
-0.020341
-0.010791
-0.024974
-0.005787
-0.295850
-0.007587
-0.303978
-0.037005
-0.026451
-0.033192
-0.295850
-0.023133
-0.299680
-0.132814
-0.277084
-0.280937
-0.285126
-0.275491
-0.280656
-0.282160
-0.290573
-0.289537
-0.043434
-0.317363
-0.212511
-0.215367
-0.205618
-0.024139
-0.029456
-0.023039
-0.024778
-0.039239
-0.040703
-0.031342
-0.016058
-0.310653
-0.303421
-0.299493
-0.139115
-0.144581
-0.295381
-0.142444
-0.142255
-0.275296
-0.137906
-0.148321
-0.044137
-0.045435
-0.051936
-0.281387
-0.280543
-0.290542
-0.037514
-0.029090
-0.055177
-0.274706
-0.267202
-0.275809
-0.285615
-0.214900
-0.220558
-0.224093
-0.046534
-0.052235
-0.308678
-0.315985
-0.052073
-0.228040
-0.299796
-0.294526
-0.148460
-0.016493
-0.014596
-0.021293
-0.316308
-0.296364
-0.290279
-0.026548
-0.171216
-0.170375
-0.180665
-0.178016
-0.273893
-0.283036
-0.068836
-0.075855
-0.266400
-0.256395
-0.267235
-0.279490
-0.008544
-0.017629
-0.008588
-0.304848
-0.318798
-0.294373
-0.034834
-0.239008
-0.245642
-0.240978
-0.305959
-0.314699
-0.248564
-0.285223
-0.290044
-0.230345
-0.237789
-0.229369
-0.211326
-0.217439
-0.220009
-0.209999
-0.253447
-0.227985
-0.222188
-0.265303
-0.223913
-0.227495
-0.232339
-0.237943
-0.257377
-0.216800
-0.211815
-0.288854
-0.286878
-0.296504
-0.261783
-0.272571
-0.248261
-0.232222
-0.227780
-0.219436
-0.236543
-0.241533
-0.303256
-0.246316
-0.317529
-0.037923
-0.043549
-0.046606
-0.232691
-0.223971
-0.218248
-0.243015
-0.235057
-0.247215
-0.237126
-0.227242
-0.247447
-0.025737
-0.239777
-0.032726
-0.240672
-0.247515
-0.240285
-0.246996
-0.237775
-0.252405
-0.238919
-0.246535
-0.252583
-0.222649
-0.221397
-0.232080
-0.213680
-0.214311
-0.316632
-0.310053
-0.307127
-0.302216
-0.265763
-0.256361
-0.257748
-0.228870
-0.240942
-0.236956
-0.263362
-0.260109
-0.245191
-0.254260
-0.285750
-0.293411
-0.295558
-0.296961
-0.275646
-0.275229
-0.266580
-0.275455
-0.281017
-0.281164
-0.243432
-0.252538
-0.247916
-0.244930
-0.265839
-0.270966
-0.273982
-0.311992
-0.224456
-0.214604
-0.217772
-0.255546
-0.245346
-0.250679
-0.309435
-0.286886
-0.294052
-0.288135
-0.297963
-0.247166
-0.208216
-0.076967
-0.075747
-0.085864
-0.301499
-0.303941
-0.083775
-0.008248
-0.261681
-0.267302
-0.256619
-0.017768
-0.271442
-0.204976
-0.208522
-0.294898
-0.309892
-0.062283
-0.071932
-0.064342
-0.069717
-0.264496
-0.219163
-0.261949
-0.087610
-0.077548
-0.084951
-0.197404
-0.194143
-0.317868
-0.201920
-0.113220
-0.111100
-0.122760
-0.120707
-0.256545
-0.051552
-0.296753
-0.252442
-0.274224
-0.040014
-0.065121
-0.257408
-0.223867
-0.224759
-0.217352
-0.045916
-0.131262
-0.140292
-0.138162
-0.129267
-0.080869
-0.075643
-0.086561
-0.080238
-0.147794
-0.316435
-0.149187
-0.209463
-0.199779
-0.279965
-0.092634
-0.090794
-0.271314
-0.213877
-0.081804
-0.104125
-0.101919
-0.191263
-0.197039
-0.186979
-0.257574
-0.046941
-0.145066
-0.150946
-0.144004
-0.147522
-0.153873
-0.127782
-0.136784
-0.130168
-0.134590
-0.137855
-0.119373
-0.120848
-0.124932
-0.232049
-0.239561
-0.094713
-0.101067
-0.100653
-0.094749
-0.088743
-0.074555
-0.109742
-0.111275
-0.115288
-0.105903
-0.035614
-0.032103
-0.053592
-0.060123
-0.200155
-0.210832
-0.202838
-0.207692
-0.207485
-0.203606
-0.074898
-0.082827
-0.073561
-0.084733
-0.092468
-0.090925
-0.195094
-0.197421
-0.089797
-0.092177
-0.087081
-0.081265
-0.090608
-0.094657
-0.100398
-0.074827
-0.055905
-0.186731
-0.183755
-0.191488
-0.185731
-0.175942
-0.180337
-0.083034
-0.092846
-0.220177
-0.097698
-0.095525
-0.189482
-0.235345
-0.228149
-0.204415
-0.189761
-0.196446
-0.059539
-0.190065
-0.192664
-0.197373
-0.102351
-0.100137
-0.185062
-0.187293
-0.109745
-0.104376
-0.110010
-0.164878
-0.173661
-0.165508
-0.171848
-0.102822
-0.099989
-0.158330
-0.156128
-0.165508
-0.092663
-0.096524
-0.180202
-0.182750
-0.187448
-0.179555
-0.181566
-0.194544
-0.061411
-0.113984
-0.119639
-0.175222
-0.177474
-0.317381
-0.306867
-0.287486
-0.288678
-0.170447
-0.172909
-0.177699
-0.065628
-0.278953
-0.160729
-0.163212
-0.314153
-0.167951
-0.184820
-0.119372
-0.112221
-0.068833
-0.165473
-0.282595
-0.167719
-0.151028
-0.153425
-0.107479
-0.105205
-0.228679
-0.155770
-0.158029
-0.056515
-0.175148
-0.176639
-0.146067
-0.148386
-0.143737
-0.136388
-0.138698
-0.220233
-0.123623
-0.129289
-0.112502
-0.110195
-0.259556
-0.291471
-0.129026
-0.121858
-0.107943
-0.098281
-0.102283
-0.134070
-0.126730
-0.125400
-0.135051
-0.303903
-0.228957
-0.144692
-0.138955
-0.160217
-0.154416
-0.163807
-0.158280
-0.115769
-0.121512
-0.122112
-0.131738
-0.124423
-0.117093
-0.279775
-0.106148
-0.114810
-0.067452
-0.253107
-0.157992
-0.157220
-0.111893
-0.141346
-0.148633
-0.133279
-0.163042
-0.162503
-0.170084
-0.160452
-0.318989
-0.147922
-0.206917
-0.202451
-0.116581
-0.088623
-0.131516
-0.079298
-0.142945
-0.141184
-0.152610
-0.150834
-0.161819
-0.184577
-0.192130
-0.189189
-0.124276
-0.163145
-0.155641
-0.161319
-0.170325
-0.171630
-0.167976
-0.169318
-0.097072
-0.262133
-0.255162
-0.099847
-0.204180
-0.199515
-0.185217
-0.180426
-0.178892
-0.105171
-0.190847
-0.266925
-0.174650
-0.060978
-0.110309
-0.197607
-0.195695
-0.155561
-0.152183
-0.201518
-0.168221
-0.115551
-0.206454
-0.177152
-0.212715
-0.273356
-0.309343
-0.299477
-0.041131
-0.032718
-0.033595
-0.038457
-0.009505
-0.015255
-0.008150
-0.018367
-0.318892
-0.314263
-0.317606
-0.197399
-0.188957
-0.185907
-0.292487
-0.299864
-0.302558
-0.293361
-0.317689
-0.318693
-0.024975
-0.033455
-0.281034
-0.276852
-0.273803
-0.267582
-0.284473
-0.287857
-0.292010
-0.197749
-0.203796
-0.195612
-0.054787
-0.064962
-0.061277
-0.256919
-0.246173
-0.253930
-0.062447
-0.261342
-0.270655
-0.262716
-0.265080
-0.268372
-0.271946
-0.277215
-0.258116
-0.252095
-0.058722
-0.052405
-0.056148
-0.191812
-0.046368
-0.269911
-0.280410
-0.287792
-0.284644
-0.291767
-0.296827
-0.293856
-0.286046
-0.206348
-0.266919
-0.256892
-0.264833
-0.263735
-0.021733
-0.027366
-0.018989
-0.012247
-0.008388
-0.099349
-0.090039
-0.092665
-0.259312
-0.260052
-0.283693
-0.274243
-0.282264
-0.014100
-0.009390
-0.006768
-0.276216
-0.019240
-0.016929
-0.023403
-0.015752
-0.008609
-0.315415
-0.308794
-0.306630
-0.312041
-0.025022
-0.026849
-0.021743
-0.037192
-0.029770
-0.041894
-0.008812
-0.015374
-0.307679
-0.301107
-0.317823
-0.317266
-0.307855
-0.315932
-0.254615
-0.246658
-0.253366
-0.305033
-0.302389
-0.311214
-0.243224
-0.310488
-0.022198
-0.016800
-0.009053
-0.007572
-0.320406
-0.310185
-0.312125
-0.305801
-0.315351
-0.301169
-0.320355
-0.030292
-0.318555
-0.022165
-0.289138
-0.299691
-0.292950
-0.030292
-0.303009
-0.026462
-0.193328
-0.049058
-0.045206
-0.041016
-0.050651
-0.045486
-0.043983
-0.035569
-0.036605
-0.282709
-0.008779
-0.113632
-0.110776
-0.120524
-0.302003
-0.296687
-0.303104
-0.301365
-0.286903
-0.285440
-0.294800
-0.310084
-0.015489
-0.022721
-0.026650
-0.187028
-0.181562
-0.030761
-0.183698
-0.183887
-0.050846
-0.188237
-0.177821
-0.282005
-0.280707
-0.274206
-0.044756
-0.045599
-0.035600
-0.288628
-0.297053
-0.270965
-0.051436
-0.058940
-0.050334
-0.040527
-0.111242
-0.105584
-0.102050
-0.279609
-0.273907
-0.017465
-0.010157
-0.274070
-0.098102
-0.026347
-0.031616
-0.177682
-0.309649
-0.311546
-0.304849
-0.009834
-0.029779
-0.035863
-0.299594
-0.154927
-0.155767
-0.145477
-0.148127
-0.052249
-0.043106
-0.257306
-0.250287
-0.059742
-0.069748
-0.058908
-0.046652
-0.317598
-0.308514
-0.317554
-0.021294
-0.007345
-0.031769
-0.291308
-0.087134
-0.080501
-0.085164
-0.020183
-0.011444
-0.077578
-0.040920
-0.036099
-0.095797
-0.088354
-0.096773
-0.114816
-0.108703
-0.106133
-0.116144
-0.072695
-0.098157
-0.103955
-0.060839
-0.102229
-0.098647
-0.093803
-0.088199
-0.068765
-0.109343
-0.114327
-0.037288
-0.039265
-0.029639
-0.064360
-0.053572
-0.077882
-0.093920
-0.098363
-0.106706
-0.089599
-0.084609
-0.022886
-0.079826
-0.008614
-0.288220
-0.282593
-0.279536
-0.093451
-0.102171
-0.107895
-0.083128
-0.091086
-0.078927
-0.089017
-0.098900
-0.078696
-0.300405
-0.086366
-0.293416
-0.085470
-0.078627
-0.085857
-0.079146
-0.088367
-0.073737
-0.087224
-0.079608
-0.073560
-0.103494
-0.104745
-0.094062
-0.112463
-0.111832
-0.009511
-0.016089
-0.019015
-0.023926
-0.060379
-0.069782
-0.068395
-0.097272
-0.085201
-0.089186
-0.062781
-0.066034
-0.080952
-0.071882
-0.040392
-0.032731
-0.030584
-0.029181
-0.050496
-0.050913
-0.059562
-0.050687
-0.045125
-0.044978
-0.082711
-0.073604
-0.078226
-0.081213
-0.060303
-0.055176
-0.052160
-0.014150
-0.101686
-0.111538
-0.108370
-0.070597
-0.080796
-0.075463
-0.016707
-0.039256
-0.032091
-0.038008
-0.028179
-0.078976
-0.117926
-0.249175
-0.250396
-0.240278
-0.024643
-0.022202
-0.242367
-0.317894
-0.064461
-0.058841
-0.069523
-0.308374
-0.054700
-0.121167
-0.117620
-0.031244
-0.016250
-0.263859
-0.254210
-0.261800
-0.256425
-0.061646
-0.106979
-0.064193
-0.238532
-0.248595
-0.241192
-0.128738
-0.131999
-0.008274
-0.124222
-0.212923
-0.215043
-0.203383
-0.205435
-0.069598
-0.274590
-0.029389
-0.073700
-0.051919
-0.286129
-0.261022
-0.068734
-0.102276
-0.101383
-0.108790
-0.280226
-0.194880
-0.185850
-0.187981
-0.196875
-0.245273
-0.250500
-0.239581
-0.245904
-0.178348
-0.009707
-0.176956
-0.116679
-0.126364
-0.046177
-0.233508
-0.235348
-0.054828
-0.112265
-0.244338
-0.222017
-0.224224
-0.134879
-0.129103
-0.139163
-0.068568
-0.279201
-0.181077
-0.175196
-0.182138
-0.178620
-0.172269
-0.198360
-0.189358
-0.195974
-0.191553
-0.188287
-0.206769
-0.205294
-0.201211
-0.094093
-0.086581
-0.231429
-0.225075
-0.225489
-0.231393
-0.237399
-0.251588
-0.216401
-0.214867
-0.210854
-0.220239
-0.290529
-0.294039
-0.272550
-0.266019
-0.125987
-0.115310
-0.123305
-0.118450
-0.118657
-0.122536
-0.251245
-0.243315
-0.252581
-0.241409
-0.233674
-0.235217
-0.131048
-0.128721
-0.236346
-0.233966
-0.239061
-0.244877
-0.235534
-0.231485
-0.225744
-0.251315
-0.270237
-0.139412
-0.142387
-0.134654
-0.140411
-0.150200
-0.145805
-0.243108
-0.233296
-0.105965
-0.228445
-0.230617
-0.136660
-0.090797
-0.097993
-0.121727
-0.136382
-0.129697
-0.266603
-0.136077
-0.133478
-0.128769
-0.223791
-0.226005
-0.141080
-0.138849
-0.216398
-0.221766
-0.216132
-0.161264
-0.152481
-0.160634
-0.154294
-0.223320
-0.226154
-0.167813
-0.170014
-0.160634
-0.233479
-0.229618
-0.145940
-0.143393
-0.138694
-0.146587
-0.144576
-0.131599
-0.264731
-0.212158
-0.206504
-0.150920
-0.148669
-0.008761
-0.019275
-0.038656
-0.037465
-0.155695
-0.153233
-0.148444
-0.260514
-0.047189
-0.165414
-0.162930
-0.011989
-0.158191
-0.141323
-0.206770
-0.213921
-0.257309
-0.160669
-0.043547
-0.158423
-0.175114
-0.172717
-0.218663
-0.220937
-0.097463
-0.170372
-0.168113
-0.269628
-0.150995
-0.149503
-0.180075
-0.177757
-0.182405
-0.189754
-0.187444
-0.105910
-0.202519
-0.196853
-0.213641
-0.215947
-0.066586
-0.034671
-0.197116
-0.204285
-0.218199
-0.227862
-0.223859
-0.192072
-0.199413
-0.200743
-0.191091
-0.022239
-0.097185
-0.181451
-0.187187
-0.165925
-0.171727
-0.162335
-0.167863
-0.210374
-0.204630
-0.204031
-0.194404
-0.201720
-0.209049
-0.046367
-0.219994
-0.211332
-0.258690
-0.073036
-0.168150
-0.168923
-0.214249
-0.184796
-0.177509
-0.192863
-0.163100
-0.163639
-0.156059
-0.165690
-0.007153
-0.178221
-0.119225
-0.123691
-0.209562
-0.237519
-0.194627
-0.246844
-0.183198
-0.184958
-0.173533
-0.175308
-0.164324
-0.141565
-0.134012
-0.136953
-0.201866
-0.162998
-0.170502
-0.164824
-0.155817
-0.154512
-0.158167
-0.156824
-0.229070
-0.064009
-0.070980
-0.226295
-0.121963
-0.126627
-0.140925
-0.145717
-0.147250
-0.220971
-0.135295
-0.059217
-0.151492
-0.265164
-0.215834
-0.128535
-0.130447
-0.170581
-0.173959
-0.124624
-0.157921
-0.210592
-0.119689
-0.148990
-0.113428
-0.052786
SCALARS UY float 1
LOOKUP_TABLE default
-0.000001
-0.000001
-0.760999
-0.760999
-0.304400
-0.456600
-0.000001
-0.000001
-0.000001
-0.000001
-0.000001
-0.000001
-0.000001
-0.000001
-0.000001
-0.000001
-0.000001
-0.000001
-0.000001
-0.000001
-0.000001
-0.000001
-0.000001
-0.000001
-0.000001
-0.000001
-0.000001
-0.000001
-0.000001
-0.000001
-0.000001
-0.000001
-0.000001
-0.000001
-0.000001
-0.000001
-0.000001
-0.000001
-0.000001
-0.022831
-0.045661
-0.068491
-0.091320
-0.114150
-0.136980
-0.159810
-0.182640
-0.205470
-0.228300
-0.251130
-0.273960
-0.296790
-0.319620
-0.342450
-0.365280
-0.388110
-0.410940
-0.433770
-0.478343
-0.500086
-0.521828
-0.543571
-0.565314
-0.587057
-0.608800
-0.630542
-0.652285
-0.674028
-0.695771
-0.717514
-0.739257
-0.760999
-0.760999
-0.760999
-0.760999
-0.760999
-0.760999
-0.760999
-0.760999
-0.760999
-0.760999
-0.760999
-0.760999
-0.760999
-0.760999
-0.760999
-0.760999
-0.760999
-0.760999
-0.760999
-0.760999
-0.760999
-0.760999
-0.760999
-0.760999
-0.760999
-0.760999
-0.760999
-0.760999
-0.760999
-0.760999
-0.760999
-0.760999
-0.760999
-0.738169
-0.715339
-0.692509
-0.669680
-0.646850
-0.624020
-0.601190
-0.578360
-0.555530
-0.532700
-0.509870
-0.487040
-0.464210
-0.441380
-0.418550
-0.395720
-0.372890
-0.350060
-0.327230
-0.282657
-0.260914
-0.239172
-0.217429
-0.195686
-0.173943
-0.152200
-0.130458
-0.108715
-0.086972
-0.065229
-0.043486
-0.021743
-0.308877
-0.313353
-0.317830
-0.322306
-0.326782
-0.331259
-0.335735
-0.340212
-0.344688
-0.349165
-0.353641
-0.358118
-0.362594
-0.367071
-0.371547
-0.376024
-0.380500
-0.384976
-0.389453
-0.393929
-0.398406
-0.402882
-0.407359
-0.411835
-0.416312
-0.420788
-0.425265
-0.429741
-0.434218
-0.438694
-0.443170
-0.447647
-0.452123
-0.469983
-0.464111
-0.346137
-0.354153
-0.336449
-0.365798
-0.681539
-0.698622
-0.704936
-0.684268
-0.529641
-0.543909
-0.560192
-0.418089
-0.418398
-0.406234
-0.739660
-0.728794
-0.742899
-0.718858
-0.703655
-0.683948
-0.740899
-0.741548
-0.531683
-0.550335
-0.533845
-0.548390
-0.514222
-0.528685
-0.511947
-0.721211
-0.740464
-0.743730
-0.718398
-0.721995
-0.740377
-0.651419
-0.650245
-0.633781
-0.701941
-0.618096
-0.621947
-0.637638
-0.602538
-0.585833
-0.602539
-0.588070
-0.602102
-0.615555
-0.472711
-0.472656
-0.455219
-0.732454
-0.458738
-0.569239
-0.567005
-0.566157
-0.580595
-0.582196
-0.567392
-0.552805
-0.547635
-0.719149
-0.672139
-0.672445
-0.656030
-0.690862
-0.407115
-0.420578
-0.430296
-0.412935
-0.430569
-0.739254
-0.742123
-0.720123
-0.561433
-0.584711
-0.499826
-0.493180
-0.480126
-0.335610
-0.357078
-0.337724
-0.514751
-0.352623
-0.735737
-0.721130
-0.714918
-0.727523
-0.722240
-0.706520
-0.725457
-0.741485
-0.358846
-0.341930
-0.331680
-0.719972
-0.724613
-0.741392
-0.381750
-0.370924
-0.486958
-0.479850
-0.470509
-0.512660
-0.505919
-0.488965
-0.743474
-0.723976
-0.724061
-0.677700
-0.660214
-0.671336
-0.741957
-0.690659
-0.372293
-0.391074
-0.747405
-0.400006
-0.740416
-0.527302
-0.652510
-0.639528
-0.634787
-0.710716
-0.645573
-0.371512
-0.662983
-0.701562
-0.459288
-0.499875
-0.484731
-0.708019
-0.693605
-0.388778
-0.438456
-0.635556
-0.654256
-0.635658
-0.348922
-0.362477
-0.377543
-0.384190
-0.653960
-0.741807
-0.658910
-0.663289
-0.639924
-0.646033
-0.622677
-0.640850
-0.546013
-0.521521
-0.727168
-0.707184
-0.698816
-0.623860
-0.668641
-0.669919
-0.688699
-0.746254
-0.418636
-0.403376
-0.435046
-0.731925
-0.740398
-0.716034
-0.406212
-0.673010
-0.693708
-0.681751
-0.704697
-0.723527
-0.695284
-0.684737
-0.677329
-0.642720
-0.368739
-0.356200
-0.388765
-0.397542
-0.557786
-0.577145
-0.555580
-0.722839
-0.742342
-0.652811
-0.633882
-0.704164
-0.575357
-0.651633
-0.673011
-0.744162
-0.556731
-0.572714
-0.569881
-0.449822
-0.441113
-0.418345
-0.587301
-0.397545
-0.418762
-0.414111
-0.392358
-0.693692
-0.677312
-0.705961
-0.708920
-0.378122
-0.362012
-0.404805
-0.413032
-0.616708
-0.607443
-0.599074
-0.633880
-0.614239
-0.632261
-0.660916
-0.420522
-0.417078
-0.404360
-0.456916
-0.475561
-0.400285
-0.435966
-0.458217
-0.423281
-0.440606
-0.446919
-0.473435
-0.488970
-0.470590
-0.498196
-0.738124
-0.468591
-0.452760
-0.676863
-0.596083
-0.618026
-0.594366
-0.615378
-0.388302
-0.593699
-0.577395
-0.535937
-0.557799
-0.550417
-0.424444
-0.433267
-0.376978
-0.553921
-0.538737
-0.535847
-0.571740
-0.550623
-0.481393
-0.570560
-0.499804
-0.643138
-0.657129
-0.636788
-0.637482
-0.638381
-0.617905
-0.462663
-0.459941
-0.439205
-0.480929
-0.491602
-0.484478
-0.604232
-0.385705
-0.598686
-0.589909
-0.625568
-0.636267
-0.647455
-0.655868
-0.508122
-0.507689
-0.528286
-0.549239
-0.408051
-0.431607
-0.398602
-0.420149
-0.396080
-0.523360
-0.510434
-0.526843
-0.506839
-0.550600
-0.571604
-0.529373
-0.698577
-0.704832
-0.679502
-0.509043
-0.485083
-0.668393
-0.667351
-0.577264
-0.588932
-0.571638
-0.530905
-0.567711
-0.589441
-0.579877
-0.606671
-0.598081
-0.616023
-0.726981
-0.711136
-0.687095
-0.746117
-0.530948
-0.512855
-0.527833
-0.543501
-0.719513
-0.735894
-0.705888
-0.611386
-0.606010
-0.590527
-0.614858
-0.473020
-0.477306
-0.490996
-0.463158
-0.357229
-0.623166
-0.575562
-0.596271
-0.590025
-0.616255
-0.592219
-0.610035
-0.578914
-0.652935
-0.632865
-0.634794
-0.589135
-0.655235
-0.561089
-0.539658
-0.608058
-0.493529
-0.486881
-0.480005
-0.466880
-0.500347
-0.440668
-0.508790
-0.459217
-0.664925
-0.668693
-0.683192
-0.543555
-0.564749
-0.321199
-0.583023
-0.424186
-0.446302
-0.442340
-0.417003
-0.439293
-0.659822
-0.493910
-0.421018
-0.673847
-0.597051
-0.726644
-0.407612
-0.385910