# vtk DataFile Version 2.0
Test
ASCII
DATASET POLYDATA
POINTS 1445 float
0.000000 0.000000 0.000000
1.000000 0.000000 0.000000
1.000000 1.000000 0.000000
0.000000 1.000000 0.000000
0.000000 0.400000 0.000000
1.000000 0.600000 0.000000
0.029412 0.000000 0.000000
0.058824 0.000000 0.000000
0.088235 0.000000 0.000000
0.117647 0.000000 0.000000
0.147059 0.000000 0.000000
0.176471 0.000000 0.000000
0.205882 0.000000 0.000000
0.235294 0.000000 0.000000
0.264706 0.000000 0.000000
0.294118 0.000000 0.000000
0.323529 0.000000 0.000000
0.352941 0.000000 0.000000
0.382353 0.000000 0.000000
0.411765 0.000000 0.000000
0.441176 0.000000 0.000000
0.470588 0.000000 0.000000
0.500000 0.000000 0.000000
0.529412 0.000000 0.000000
0.558824 0.000000 0.000000
0.588235 0.000000 0.000000
0.617647 0.000000 0.000000
0.647059 0.000000 0.000000
0.676471 0.000000 0.000000
0.705882 0.000000 0.000000
0.735294 0.000000 0.000000
0.764706 0.000000 0.000000
0.794118 0.000000 0.000000
0.823529 0.000000 0.000000
0.852941 0.000000 0.000000
0.882353 0.000000 0.000000
0.911765 0.000000 0.000000
0.941176 0.000000 0.000000
0.970588 0.000000 0.000000
1.000000 0.030000 0.000000
1.000000 0.060000 0.000000
1.000000 0.090000 0.000000
1.000000 0.120000 0.000000
1.000000 0.150000 0.000000
1.000000 0.180000 0.000000
1.000000 0.210000 0.000000
1.000000 0.240000 0.000000
1.000000 0.270000 0.000000
1.000000 0.300000 0.000000
1.000000 0.330000 0.000000
1.000000 0.360000 0.000000
1.000000 0.390000 0.000000
1.000000 0.420000 0.000000
1.000000 0.450000 0.000000
1.000000 0.480000 0.000000
1.000000 0.510000 0.000000
1.000000 0.540000 0.000000
1.000000 0.570000 0.000000
1.000000 0.628571 0.000000
1.000000 0.657143 0.000000
1.000000 0.685714 0.000000
1.000000 0.714286 0.000000
1.000000 0.742857 0.000000
1.000000 0.771429 0.000000
1.000000 0.800000 0.000000
1.000000 0.828571 0.000000
1.000000 0.857143 0.000000
1.000000 0.885714 0.000000
1.000000 0.914286 0.000000
1.000000 0.942857 0.000000
1.000000 0.971429 0.000000
0.970588 1.000000 0.000000
0.941176 1.000000 0.000000
0.911765 1.000000 0.000000
0.882353 1.000000 0.000000
0.852941 1.000000 0.000000
0.823529 1.000000 0.000000
0.794118 1.000000 0.000000
0.764706 1.000000 0.000000
0.735294 1.000000 0.000000
0.705882 1.000000 0.000000
0.676471 1.000000 0.000000
0.647059 1.000000 0.000000
0.617647 1.000000 0.000000
0.588235 1.000000 0.000000
0.558824 1.000000 0.000000
0.529412 1.000000 0.000000
0.500000 1.000000 0.000000
0.470588 1.000000 0.000000
0.441176 1.000000 0.000000
0.411765 1.000000 0.000000
0.382353 1.000000 0.000000
0.352941 1.000000 0.000000
0.323529 1.000000 0.000000
0.294118 1.000000 0.000000
0.264706 1.000000 0.000000
0.235294 1.000000 0.000000
0.205882 1.000000 0.000000
0.176471 1.000000 0.000000
0.147059 1.000000 0.000000
0.117647 1.000000 0.000000
0.088235 1.000000 0.000000
0.058824 1.000000 0.000000
0.029412 1.000000 0.000000
0.000000 0.970000 0.000000
0.000000 0.940000 0.000000
0.000000 0.910000 0.000000
0.000000 0.880000 0.000000
0.000000 0.850000 0.000000
0.000000 0.820000 0.000000
0.000000 0.790000 0.000000
0.000000 0.760000 0.000000
0.000000 0.730000 0.000000
0.000000 0.700000 0.000000
0.000000 0.670000 0.000000
0.000000 0.640000 0.000000
0.000000 0.610000 0.000000
0.000000 0.580000 0.000000
0.000000 0.550000 0.000000
0.000000 0.520000 0.000000
0.000000 0.490000 0.000000
0.000000 0.460000 0.000000
0.000000 0.430000 0.000000
0.000000 0.371429 0.000000
0.000000 0.342857 0.000000
0.000000 0.314286 0.000000
0.000000 0.285714 0.000000
0.000000 0.257143 0.000000
0.000000 0.228571 0.000000
0.000000 0.200000 0.000000
0.000000 0.171429 0.000000
0.000000 0.142857 0.000000
0.000000 0.114286 0.000000
0.000000 0.085714 0.000000
0.000000 0.057143 0.000000
0.000000 0.028571 0.000000
0.029412 0.405882 0.000000
0.058824 0.411765 0.000000
0.088235 0.417647 0.000000
0.117647 0.423529 0.000000
0.147059 0.429412 0.000000
0.176471 0.435294 0.000000
0.205882 0.441176 0.000000
0.235294 0.447059 0.000000
0.264706 0.452941 0.000000
0.294118 0.458824 0.000000
0.323529 0.464706 0.000000
0.352941 0.470588 0.000000
0.382353 0.476471 0.000000
0.411765 0.482353 0.000000
0.441176 0.488235 0.000000
0.470588 0.494118 0.000000
0.500000 0.500000 0.000000
0.529412 0.505882 0.000000
0.558824 0.511765 0.000000
0.588235 0.517647 0.000000
0.617647 0.523529 0.000000
0.647059 0.529412 0.000000
0.676471 0.535294 0.000000
0.705882 0.541176 0.000000
0.735294 0.547059 0.000000
0.764706 0.552941 0.000000
0.794118 0.558824 0.000000
0.823529 0.564706 0.000000
0.852941 0.570588 0.000000
0.882353 0.576471 0.000000
0.911765 0.582353 0.000000
0.941176 0.588235 0.000000
0.970588 0.594118 0.000000
0.948492 0.617586 0.000000
0.918239 0.609871 0.000000
0.126115 0.454845 0.000000
0.100318 0.465379 0.000000
0.103006 0.442114 0.000000
0.117916 0.480680 0.000000
0.029145 0.895585 0.000000
0.046774 0.918032 0.000000
0.024990 0.926329 0.000000
0.056315 0.899171 0.000000
0.977770 0.695981 0.000000
0.963577 0.714729 0.000000
0.973827 0.736127 0.000000
0.605253 0.549394 0.000000
0.579370 0.549801 0.000000
0.570019 0.533816 0.000000
0.896809 0.971959 0.000000
0.919426 0.957680 0.000000
0.927686 0.976215 0.000000
0.899487 0.944624 0.000000
0.974081 0.924646 0.000000
0.977161 0.898750 0.000000
0.076578 0.973587 0.000000
0.102577 0.974440 0.000000
0.861693 0.698664 0.000000
0.848870 0.723174 0.000000
0.839521 0.701504 0.000000
0.820447 0.720618 0.000000
0.872237 0.675719 0.000000
0.882611 0.694724 0.000000
0.895344 0.672729 0.000000
0.606326 0.947716 0.000000
0.624868 0.973015 0.000000
0.599776 0.977307 0.000000
0.167986 0.944019 0.000000
0.199183 0.948746 0.000000
0.187884 0.972901 0.000000
0.787752 0.856005 0.000000
0.754801 0.854462 0.000000
0.778588 0.832828 0.000000
0.191471 0.922393 0.000000
0.801312 0.812216 0.000000
0.829867 0.817276 0.000000
0.805526 0.837896 0.000000
0.812775 0.791772 0.000000
0.822869 0.769821 0.000000
0.833826 0.791773 0.000000
0.849982 0.772760 0.000000
0.791421 0.791198 0.000000
0.772962 0.808877 0.000000
0.180049 0.621172 0.000000
0.160680 0.621098 0.000000
0.172158 0.598185 0.000000
0.588124 0.962489 0.000000
0.142171 0.602810 0.000000
0.827587 0.748015 0.000000
0.859778 0.745080 0.000000
0.882413 0.743965 0.000000
0.872759 0.762938 0.000000
0.894601 0.765041 0.000000
0.910115 0.745588 0.000000
0.901004 0.726420 0.000000
0.877058 0.719626 0.000000
0.632694 0.945006 0.000000
0.818411 0.883232 0.000000
0.787667 0.883633 0.000000
0.812018 0.862064 0.000000
0.808649 0.907835 0.000000
0.066636 0.534974 0.000000
0.083909 0.552665 0.000000
0.058224 0.565435 0.000000
0.037551 0.542621 0.000000
0.025720 0.565794 0.000000
0.304619 0.971425 0.000000
0.276072 0.975195 0.000000
0.284125 0.946285 0.000000
0.795087 0.737757 0.000000
0.797357 0.768346 0.000000
0.869843 0.656802 0.000000
0.840870 0.648068 0.000000
0.865462 0.630915 0.000000
0.043233 0.441011 0.000000
0.028792 0.469222 0.000000
0.020751 0.443790 0.000000
0.846918 0.676414 0.000000
0.058991 0.463368 0.000000
0.051906 0.966804 0.000000
0.071758 0.947609 0.000000
0.048298 0.939447 0.000000
0.026398 0.956010 0.000000
0.967109 0.949068 0.000000
0.946807 0.928411 0.000000
0.940173 0.953295 0.000000
0.956764 0.974357 0.000000
0.076722 0.471546 0.000000
0.082324 0.449317 0.000000
0.066669 0.435847 0.000000
0.114035 0.946088 0.000000
0.091278 0.952186 0.000000
0.128453 0.974235 0.000000
0.027019 0.501643 0.000000
0.047138 0.487417 0.000000
0.943388 0.639892 0.000000
0.923239 0.630552 0.000000
0.974491 0.618278 0.000000
0.972785 0.673666 0.000000
0.943930 0.664809 0.000000
0.968693 0.642530 0.000000
0.780685 0.976970 0.000000
0.756289 0.951349 0.000000
0.776857 0.951460 0.000000
0.935276 0.890540 0.000000
0.927168 0.867561 0.000000
0.954227 0.882176 0.000000
0.745760 0.974977 0.000000
0.952002 0.907568 0.000000
0.068063 0.489215 0.000000
0.051512 0.513895 0.000000
0.027757 0.982136 0.000000
0.023217 0.525632 0.000000
0.982410 0.972952 0.000000
0.951072 0.692907 0.000000
0.957020 0.857438 0.000000
0.937630 0.840379 0.000000
0.966912 0.834149 0.000000
0.923427 0.933924 0.000000
0.982257 0.848323 0.000000
0.092881 0.488189 0.000000
0.976737 0.871201 0.000000
0.067960 0.921895 0.000000
0.886538 0.603532 0.000000
0.918896 0.656866 0.000000
0.898227 0.636966 0.000000
0.092880 0.930380 0.000000
0.929071 0.911440 0.000000
0.081137 0.510877 0.000000
0.592772 0.576158 0.000000
0.150419 0.835159 0.000000
0.138607 0.859733 0.000000
0.125762 0.835294 0.000000
0.155304 0.458505 0.000000
0.139466 0.476317 0.000000
0.134858 0.496115 0.000000
0.109061 0.504849 0.000000
0.112238 0.859343 0.000000
0.866826 0.974780 0.000000
0.026919 0.865848 0.000000
0.348411 0.871602 0.000000
0.339654 0.840899 0.000000
0.369544 0.848927 0.000000
0.925986 0.818235 0.000000
0.909684 0.842117 0.000000
0.929360 0.717495 0.000000
0.924028 0.685311 0.000000
0.879688 0.955544 0.000000
0.875200 0.929284 0.000000
0.903901 0.918287 0.000000
0.950764 0.819790 0.000000
0.047492 0.878635 0.000000
0.069665 0.880314 0.000000
0.081712 0.904992 0.000000
0.573454 0.980624 0.000000
0.556694 0.550113 0.000000
0.094318 0.530060 0.000000
0.563246 0.571677 0.000000
0.563825 0.961795 0.000000
0.155902 0.972929 0.000000
0.577162 0.940912 0.000000
0.545227 0.533787 0.000000
0.864670 0.884377 0.000000
0.860690 0.911575 0.000000
0.840756 0.895862 0.000000
0.137227 0.926016 0.000000
0.139814 0.950758 0.000000
0.109156 0.913646 0.000000
0.884976 0.899786 0.000000
0.910807 0.890052 0.000000
0.830819 0.844574 0.000000
0.157710 0.484545 0.000000
0.180718 0.468069 0.000000
0.154331 0.510861 0.000000
0.124262 0.522394 0.000000
0.341085 0.732964 0.000000
0.323736 0.758404 0.000000
0.312899 0.730066 0.000000
0.857321 0.949854 0.000000
0.839840 0.975483 0.000000
0.053549 0.857833 0.000000
0.031143 0.832960 0.000000
0.840338 0.925315 0.000000
0.300796 0.756054 0.000000
0.080783 0.856286 0.000000
0.096939 0.884378 0.000000
0.544800 0.977874 0.000000
0.949430 0.731579 0.000000
0.955247 0.752582 0.000000
0.934712 0.748859 0.000000
0.030153 0.591093 0.000000
[...]
POINT_DATA 1445
SCALARS UX float 1
LOOKUP_TABLE default
-0.176143
-0.000000
0.000000
-0.176143
-0.176143
0.000000
-0.170962
-0.165781
-0.160601
-0.155420
-0.150239
-0.145059
-0.139878
-0.134697
-0.129517
-0.124336
-0.119155
-0.113975
-0.108794
-0.103613
-0.098433
-0.093252
-0.088071
-0.082891
-0.077710
-0.072529
-0.067349
-0.062168
-0.056987
-0.051807
-0.046626
-0.041445
-0.036265
-0.031084
-0.025903
-0.020723
-0.015542
-0.010361
-0.005181
-0.000000
-0.000000
-0.000000
-0.000000
-0.000000
-0.000000
-0.000000
-0.000000
-0.000000
-0.000000
-0.000000
-0.000000
-0.000000
-0.000000
-0.000000
-0.000000
-0.000000
0.000000
0.000000
-0.000000
-0.000000
0.000000
-0.000000
-0.000000
-0.000000
-0.000000
0.000000
-0.000000
0.000000
-0.000000
0.000000
-0.000000
-0.005181
-0.010361
-0.015542
-0.020723
-0.025903
-0.031084
-0.036265
-0.041445
-0.046626
-0.051807
-0.056987
-0.062168
-0.067349
-0.072529
-0.077710
-0.082891
-0.088071
-0.093252
-0.098433
-0.103613
-0.108794
-0.113975
-0.119155
-0.124336
-0.129517
-0.134697
-0.139878
-0.145059
-0.150239
-0.155420
-0.160601
-0.165781
-0.170962
-0.176143
-0.176143
-0.176143
-0.176143
-0.176143
-0.176143
-0.176143
-0.176143
-0.176143
-0.176143
-0.176143
-0.176143
-0.176143
-0.176143
-0.176143
-0.176143
-0.176143
-0.176143
-0.176143
-0.176143
-0.176143
-0.176143
-0.176143
-0.176143
-0.176143
-0.176143
-0.176143
-0.176143
-0.176143
-0.176143
-0.176143
-0.176143
-0.170962
-0.165781
-0.160601
-0.155420
-0.150239
-0.145059
-0.139878
-0.134697
-0.129517
-0.124336
-0.119155
-0.113975
-0.108794
-0.103613
-0.098433
-0.093252
-0.088071
-0.082891
-0.077710
-0.072529
-0.067349
-0.062168
-0.056987
-0.051807
-0.046626
-0.041445
-0.036265
-0.031084
-0.025903
-0.020723
-0.015542
-0.010361
-0.005181
-0.009073
-0.014402
-0.153928
-0.158472
-0.157999
-0.155373
-0.171009
-0.167904
-0.171741
-0.166223
-0.003916
-0.006416
-0.004610
-0.069532
-0.074091
-0.075738
-0.018176
-0.014192
-0.012738
-0.017705
-0.004565
-0.004023
-0.162654
-0.158074
-0.024362
-0.026620
-0.028267
-0.031627
-0.022504
-0.020677
-0.018434
-0.069343
-0.066077
-0.070497
-0.146553
-0.141058
-0.143048
-0.037386
-0.043190
-0.039000
-0.142417
-0.034997
-0.029968
-0.034255
-0.032978
-0.031200
-0.029270
-0.026425
-0.036740
-0.039991
-0.144428
-0.147840
-0.145818
-0.072549
-0.151100
-0.030369
-0.024699
-0.020712
-0.022413
-0.018565
-0.015833
-0.017437
-0.021655
-0.064698
-0.031986
-0.037401
-0.033112
-0.033705
-0.164405
-0.161363
-0.165887
-0.169528
-0.171612
-0.122486
-0.127515
-0.126096
-0.036094
-0.035694
-0.022926
-0.028030
-0.023698
-0.168528
-0.171071
-0.172488
-0.026964
-0.165752
-0.167000
-0.163503
-0.167635
-0.171493
-0.005794
-0.009370
-0.010538
-0.007616
-0.162629
-0.161642
-0.164400
-0.156056
-0.160065
-0.153517
-0.171383
-0.167840
-0.009972
-0.013521
-0.004493
-0.004794
-0.009876
-0.005515
-0.038631
-0.042928
-0.039305
-0.011401
-0.012829
-0.008063
-0.044783
-0.008455
-0.164154
-0.167069
-0.171254
-0.172053
-0.003098
-0.008618
-0.007571
-0.010986
-0.005828
-0.013488
-0.003125
-0.159782
-0.004098
-0.164172
-0.019985
-0.014286
-0.017927
-0.159783
-0.012494
-0.161851
-0.071730
-0.149648
-0.151728
-0.153991
-0.148787
-0.151577
-0.152389
-0.156932
-0.156373
-0.023458
-0.171401
-0.114773
-0.116315
-0.111050
-0.013037
-0.015908
-0.012443
-0.013382
-0.021192
-0.021983
-0.016927
-0.008673
-0.167777
-0.163872
-0.161750
-0.075133
-0.078085
-0.159529
-0.076931
-0.076829
-0.148682
-0.074480
-0.080105
-0.023837
-0.024539
-0.028050
-0.151971
-0.151515
-0.156916
-0.020261
-0.015711
-0.029800
-0.148363
-0.144310
-0.148958
-0.154255
-0.116063
-0.119119
-0.121028
-0.025132
-0.028211
-0.166710
-0.170657
-0.028123
-0.123160
-0.161913
-0.159068
-0.080180
-0.008907
-0.007883
-0.011500
-0.170832
-0.160060
-0.156774
-0.014338
-0.092470
-0.092016
-0.097574
-0.096143
-0.147924
-0.152862
-0.037177
-0.040968
-0.143877
-0.138474
-0.144328
-0.150947
-0.004614
-0.009521
-0.004638
-0.164642
-0.172176
-0.158985
-0.018813
-0.129083
-0.132666
-0.130147
-0.165242
-0.169962
-0.134244
-0.154043
-0.156647
-0.124405
-0.128425
-0.123877
-0.114133
-0.117434
-0.118823
-0.113416
-0.136881
-0.123130
-0.119999
-0.143285
-0.120931
-0.122865
-0.125481
-0.128508
-0.139004
-0.117089
-0.114397
-0.156004
-0.154937
-0.160135
-0.141383
-0.147210
-0.134080
-0.125418
-0.123019
-0.118513
-0.127752
-0.130447
-0.163782
-0.133030
-0.171491
-0.020481
-0.023520
-0.025171
-0.125672
-0.120962
-0.117871
-0.131247
-0.126949
-0.133516
-0.128067
-0.122729
-0.133641
-0.013900
-0.129498
-0.017675
-0.129982
-0.133678
-0.129773
-0.133397
-0.128418
-0.136319
-0.129035
-0.133148
-0.136415
-0.120248
-0.119572
-0.125342
-0.115404
-0.115745
-0.171006
-0.167453
-0.165873
-0.163221
-0.143533
-0.138455
-0.139204
-0.123608
-0.130128
-0.127975
-0.142236
-0.140479
-0.132422
-0.137321
-0.154328
-0.158465
-0.159625
-0.160383
-0.148871
-0.148645
-0.143974
-0.148768
-0.151772
-0.151851
-0.131472
-0.136391
-0.133894
-0.132282
-0.143574
-0.146343
-0.147972
-0.168501
-0.121224
-0.115903
-0.117614
-0.138015
-0.132507
-0.135387
-0.167119
-0.154941
-0.158811
-0.155616
-0.160924
-0.133489
-0.112453
-0.041568
-0.040909
-0.046373
-0.162833
-0.164152
-0.045245
-0.004455
-0.141329
-0.144364
-0.138595
-0.009596
-0.146600
-0.110703
-0.112618
-0.159268
-0.167366
-0.033638
-0.038849
-0.034750
-0.037653
-0.142849
-0.118366
-0.141473
-0.047316
-0.041882
-0.045880
-0.106614
-0.104853
-0.171674
-0.109053
-0.061148
-0.060003
-0.066300
-0.065192
-0.138554
-0.027842
-0.160270
-0.136339
-0.148103
-0.021611
-0.035170
-0.139021
-0.120906
-0.121388
-0.117387
-0.024798
-0.070892
-0.075769
-0.074618
-0.069815
-0.043676
-0.040853
-0.046750
-0.043335
-0.079821
-0.170900
-0.080573
-0.113127
-0.107896
-0.151203
-0.050030
-0.049036
-0.146531
-0.115511
-0.044181
-0.056236
-0.055044
-0.103297
-0.106417
-0.100984
-0.139110
-0.025352
-0.078347
-0.081523
-0.077774
-0.079674
-0.083104
-0.069013
-0.073874
-0.070301
-0.072689
-0.074453
-0.064471
-0.065268
-0.067473
-0.125325
-0.129382
-0.051153
-0.054584
-0.054361
-0.051172
-0.047928
-0.040265
-0.059269
-0.060097
-0.062265
-0.057196
-0.019234
-0.017338
-0.028944
-0.032471
-0.108100
-0.113866
-0.109548
-0.112170
-0.112058
-0.109964
-0.040451
-0.044733
-0.039729
-0.045763
-0.049940
-0.049107
-0.105366
-0.106623
-0.048497
-0.049783
-0.047031
-0.043890
-0.048936
-0.051122
-0.054223
-0.040412
-0.030193
-0.100849
-0.099242
-0.103419
-0.100309
-0.095023
-0.097396
-0.044845
-0.050144
-0.118913
-0.052764
-0.051591
-0.102335
-0.127105
-0.123219
-0.110400
-0.102486
-0.106096
-0.032156
-0.102650
-0.104054
-0.106597
-0.055278
-0.054082
-0.099948
-0.101153
-0.059271
-0.056371
-0.059414
-0.089047
-0.093791
-0.089388
-0.092812
-0.055532
-0.054002
-0.085511
-0.084322
-0.089387
-0.050045
-0.052131
-0.097324
-0.098699
-0.101237
-0.096974
-0.098060
-0.105069
-0.033167
-0.061560
-0.064614
-0.094634
-0.095850
-0.171411
-0.165733
-0.155265
-0.155909
-0.092055
-0.093385
-0.095971
-0.035444
-0.150657
-0.086806
-0.088148
-0.169668
-0.090707
-0.099817
-0.064470
-0.060608
-0.037175
-0.089368
-0.152624
-0.090582
-0.081567
-0.082862
-0.058047
-0.056819
-0.123505
-0.084128
-0.085348
-0.030522
-0.094594
-0.095399
-0.078888
-0.080140
-0.077630
-0.073661
-0.074908
-0.118943
-0.066766
-0.069826
-0.060760
-0.059514
-0.140181
-0.157418
-0.069684
-0.065813
-0.058298
-0.053079
-0.055241
-0.072409
-0.068444
-0.067726
-0.072938
-0.164132
-0.123655
-0.078145
-0.075047
-0.086530
-0.083397
-0.088469
-0.085483
-0.062524
-0.065626
-0.065950
-0.071149
-0.067198
-0.063240
-0.151101
-0.057329
-0.062007
-0.036429
-0.136698
-0.085328
-0.084911
-0.060431
-0.076338
-0.080274
-0.071981
-0.088056
-0.087765
-0.091859
-0.086657
-0.172279
-0.079889
-0.111752
-0.109340
-0.062963
-0.047864
-0.071029
-0.042827
-0.077201
-0.076251
-0.082421
-0.081463
-0.087395
-0.099686
-0.103765
-0.102177
-0.067119
-0.088111
-0.084058
-0.087125
-0.091989
-0.092694
-0.090720
-0.091445
-0.052427
-0.141573
-0.137808
-0.053925
-0.110273
-0.107754
-0.100032
-0.097444
-0.096616
-0.056801
-0.103073
-0.144161
-0.094325
-0.032933
-0.059575
-0.106724
-0.105691
-0.084015
-0.082191
-0.108836
-0.090853
-0.062407
-0.111501
-0.095676
-0.114883
-0.147634
-0.167070
-0.161741
-0.022214
-0.017670
-0.018144
-0.020770
-0.005134
-0.008239
-0.004402
-0.009919
-0.172227
-0.169727
-0.171533
-0.106611
-0.102052
-0.100405
-0.157966
-0.161950
-0.163405
-0.158438
-0.171577
-0.172120
-0.013489
-0.018068
-0.151781
-0.149522
-0.147876
-0.144516
-0.153638
-0.155465
-0.157708
-0.106800
-0.110066
-0.105646
-0.029589
-0.035085
-0.033094
-0.138757
-0.132953
-0.137143
-0.033726
-0.141145
-0.146175
-0.141887
-0.143164
-0.144942
-0.146872
-0.149718
-0.139403
-0.136152
-0.031714
-0.028303
-0.030324
-0.103594
-0.025042
-0.145773
-0.151444
-0.155431
-0.153730
-0.157577
-0.160310
-0.158705
-0.154487
-0.111444
-0.144157
-0.138742
-0.143031
-0.142438
-0.011737
-0.014780
-0.010256
-0.006614
-0.004530
-0.053656
-0.048628
-0.050046
-0.140049
-0.140449
-0.153217
-0.148113
-0.152445
-0.007615
-0.005072
-0.003655
-0.149179
-0.010391
-0.009143
-0.012640
-0.008507
-0.004650
-0.170349
-0.166773
-0.165605
-0.168527
-0.013514
-0.014501
-0.011743
-0.020086
-0.016078
-0.022626
-0.004759
-0.008303
-0.166171
-0.162622
-0.171649
-0.171349
-0.166266
-0.170628
-0.137512
-0.133215
-0.136838
-0.164742
-0.163314
-0.168080
-0.131360
-0.167688
-0.011989
-0.009074
-0.004889
-0.004089
-0.173044
-0.167524
-0.168572
-0.165157
-0.170315
-0.162655
-0.173017
-0.016360
-0.172045
-0.011971
-0.156157
-0.161857
-0.158216
-0.016360
-0.163649
-0.014292
-0.104412
-0.026495
-0.024415
-0.022152
-0.027356
-0.024566
-0.023754
-0.019210
-0.019770
-0.152685
-0.004742
-0.061370
-0.059828
-0.065093
-0.163106
-0.160234
-0.163700
-0.162761
-0.154951
-0.154160
-0.159216
-0.167470
-0.008365
-0.012271
-0.014393
-0.101010
-0.098058
-0.016613
-0.099212
-0.099314
-0.027461
-0.101663
-0.096038
-0.152305
-0.151604
-0.148093
-0.024172
-0.024627
-0.019227
-0.155882
-0.160432
-0.146343
-0.027779
-0.031832
-0.027184
-0.021888
-0.060080
-0.057024
-0.055115
-0.151011
-0.147932
-0.009432
-0.005486
-0.148019
-0.052983
-0.014229
-0.017075
-0.095963
-0.167235
-0.168260
-0.164643
-0.005311
-0.016083
-0.019369
-0.161805
-0.083673
-0.084126
-0.078569
-0.080000
-0.028219
-0.023281
-0.138966
-0.135175
-0.032265
-0.037669
-0.031815
-0.025196
-0.171528
-0.166622
-0.171504
-0.011501
-0.003967
-0.017158
-0.157329
-0.047059
-0.043477
-0.045995
-0.010900
-0.006181
-0.041898
-0.022100
-0.019496
-0.051738
-0.047718
-0.052265
-0.062010
-0.058708
-0.057320
-0.062727
-0.039261
-0.053013
-0.056144
-0.032858
-0.055212
-0.053277
-0.050661
-0.047635
-0.037139
-0.059054
-0.061746
-0.020139
-0.021206
-0.016007
-0.034759
-0.028933
-0.042062
-0.050724
-0.053124
-0.057630
-0.048391
-0.045696
-0.012360
-0.043112
-0.004652
-0.155661
-0.152623
-0.150972
-0.050471
-0.055180
-0.058272
-0.044895
-0.049193
-0.042627
-0.048076
-0.053414
-0.042502
-0.162243
-0.046644
-0.158468
-0.046161
-0.042465
-0.046370
-0.042745
-0.047725
-0.039824
-0.047108
-0.042994
-0.039728
-0.055895
-0.056571
-0.050801
-0.060739
-0.060398
-0.005137
-0.008689
-0.010270
-0.012922
-0.032609
-0.037688
-0.036938
-0.052535
-0.046015
-0.048168
-0.033906
-0.035663
-0.043720
-0.038822
-0.021815
-0.017677
-0.016518
-0.015760
-0.027272
-0.027497
-0.032168
-0.027375
-0.024371
-0.024292
-0.044670
-0.039752
-0.042248
-0.043861
-0.032568
-0.029799
-0.028171
-0.007642
-0.054919
-0.060240
-0.058529
-0.038128
-0.043636
-0.040756
-0.009023
-0.021201
-0.017331
-0.020527
-0.015219
-0.042653
-0.063689
-0.134574
-0.135233
-0.129769
-0.013309
-0.011991
-0.130898
-0.171688
-0.034814
-0.031779
-0.037548
-0.166547
-0.029543
-0.065440
-0.063524
-0.016874
-0.008776
-0.142505
-0.137294
-0.141393
-0.138490
-0.033294
-0.057777
-0.034670
-0.128826
-0.134261
-0.130263
-0.069529
-0.071290
-0.004469
-0.067090
-0.114995
-0.116140
-0.109843
-0.110951
-0.037588
-0.148301
-0.015873
-0.039804
-0.028040
-0.154532
-0.140972
-0.037122
-0.055237
-0.054755
-0.058755
-0.151345
-0.105251
-0.100374
-0.101525
-0.106328
-0.132467
-0.135290
-0.129393
-0.132808
-0.096322
-0.005243
-0.095570
-0.063016
-0.068246
-0.024939
-0.126113
-0.127107
-0.029612
-0.060632
-0.131962
-0.119907
-0.121099
-0.072845
-0.069726
-0.075159
-0.037032
-0.150791
-0.097796
-0.094620
-0.098369
-0.096469
-0.093039
-0.107130
-0.102268
-0.105842
-0.103454
-0.101690
-0.111672
-0.110875
-0.108670
-0.050818
-0.046761
-0.124990
-0.121558
-0.121782
-0.124971
-0.128214
-0.135877
-0.116874
-0.116045
-0.113878
-0.118947
-0.156909
-0.158805
-0.147199
-0.143671
-0.068043
-0.062277
-0.066594
-0.063972
-0.064084
-0.066179
-0.135692
-0.131409
-0.136414
-0.130380
-0.126202
-0.127036
-0.070776
-0.069519
-0.127645
-0.126360
-0.129112
-0.132253
-0.127207
-0.125020
-0.121920
-0.135730
-0.145950
-0.075293
-0.076900
-0.072724
-0.075833
-0.081120
-0.078746
-0.131298
-0.125998
-0.057229
-0.123378
-0.124552
-0.073807
-0.049038
-0.052924
-0.065742
-0.073657
-0.070046
-0.143987
-0.073492
-0.072089
-0.069545
-0.120865
-0.122061
-0.076195
-0.074990
-0.116872
-0.119771
-0.116728
-0.087095
-0.082352
-0.086755
-0.083331
-0.120611
-0.122141
-0.090632
-0.091821
-0.086755
-0.126097
-0.124012
-0.078819
-0.077443
-0.074906
-0.079169
-0.078083
-0.071074
-0.142976
-0.114582
-0.111528
-0.081509
-0.080293
-0.004732
-0.010410
-0.020877
-0.020234
-0.084088
-0.082758
-0.080171
-0.140698
-0.025486
-0.089337
-0.087995
-0.006475
-0.085436
-0.076325
-0.111672
-0.115534
-0.138967
-0.086774
-0.023519
-0.085561
-0.094576
-0.093281
-0.118095
-0.119324
-0.052638
-0.092014
-0.090794
-0.145620
-0.081549
-0.080744
-0.097255
-0.096003
-0.098513
-0.102482
-0.101235
-0.057200
-0.109377
-0.106316
-0.115383
-0.116629
-0.035962
-0.018725
-0.106458
-0.110330
-0.117845
-0.123063
-0.120902
-0.103734
-0.107699
-0.108417
-0.103204
-0.012011
-0.052488
-0.097998
-0.101096
-0.089613
-0.092746
-0.087674
-0.090659
-0.113619
-0.110516
-0.110193
-0.104994
-0.108945
-0.112903
-0.025042
-0.118814
-0.114136
-0.139713
-0.039445
-0.090815
-0.091232
-0.115711
-0.099805
-0.095869
-0.104161
-0.088087
-0.088378
-0.084284
-0.089486
-0.003863
-0.096253
-0.064391
-0.066803
-0.113180
-0.128279
-0.105114
-0.133316
-0.098941
-0.099892
-0.093721
-0.094680
-0.088748
-0.076457
-0.072377
-0.073966
-0.109024
-0.088032
-0.092084
-0.089018
-0.084154
-0.083449
-0.085422
-0.084697
-0.123716
-0.034570
-0.038335
-0.122217
-0.065869
-0.068389
-0.076111
-0.078698
-0.079527
-0.119342
-0.073070
-0.031982
-0.081818
-0.143210
-0.116567
-0.069419
-0.070452
-0.092127
-0.093952
-0.067307
-0.085290
-0.113736
-0.064641
-0.080466
-0.061260
-0.028509
SCALARS UY float 1
LOOKUP_TABLE default
-0.000000
-0.000000
-0.411000
-0.411000
-0.164400
-0.246600
-0.000000
-0.000000
-0.000000
-0.000000
-0.000000
-0.000000
-0.000000
-0.000000
-0.000000
-0.000000
-0.000000
-0.000000
-0.000000
-0.000000
-0.000000
-0.000000
-0.000000
-0.000000
-0.000000
-0.000000
-0.000000
-0.000000
-0.000000
-0.000000
-0.000000
-0.000000
-0.000000
-0.000000
-0.000000
-0.000000
-0.000000
-0.000000
-0.000000
-0.012330
-0.024660
-0.036990
-0.049320
-0.061650
-0.073980
-0.086310
-0.098640
-0.110970
-0.123300
-0.135630
-0.147960
-0.160290
-0.172620
-0.184950
-0.197280
-0.209610
-0.221940
-0.234270
-0.258343
-0.270086
-0.281829
-0.293571
-0.305314
-0.317057
-0.328800
-0.340543
-0.352286
-0.364028
-0.375771
-0.387514
-0.399257
-0.411000
-0.411000
-0.411000
-0.411000
-0.411000
-0.411000
-0.411000
-0.411000
-0.411000
-0.411000
-0.411000
-0.411000
-0.411000
-0.411000
-0.411000
-0.411000
-0.411000
-0.411000
-0.411000
-0.411000
-0.411000
-0.411000
-0.411000
-0.411000
-0.411000
-0.411000
-0.411000
-0.411000
-0.411000
-0.411000
-0.411000
-0.411000
-0.411000
-0.398670
-0.386340
-0.374010
-0.361680
-0.349350
-0.337020
-0.324690
-0.312360
-0.300030
-0.287700
-0.275370
-0.263040
-0.250710
-0.238380
-0.226050
-0.213720
-0.201390
-0.189060
-0.176730
-0.152657
-0.140914
-0.129171
-0.117429
-0.105686
-0.093943
-0.082200
-0.070457
-0.058714
-0.046972
-0.035229
-0.023486
-0.011743
-0.166818
-0.169235
-0.171653
-0.174071
-0.176488
-0.178906
-0.181324
-0.183741
-0.186159
-0.188576
-0.190994
-0.193412
-0.195829
-0.198247
-0.200665
-0.203082
-0.205500
-0.207918
-0.210335
-0.212753
-0.215171
-0.217588
-0.220006
-0.222424
-0.224841
-0.227259
-0.229676
-0.232094
-0.234512
-0.236929
-0.239347
-0.241765
-0.244182
-0.253828
-0.250657
-0.186941
-0.191271
-0.181709
-0.197560
-0.368085
-0.377311
-0.380721
-0.369559
-0.286048
-0.293754
-0.302548
-0.225801
-0.225968
-0.219398
-0.399475
-0.393606
-0.401224
-0.388240
-0.380029
-0.369386
-0.400144
-0.400495
-0.287151
-0.297225
-0.288318
-0.296174
-0.277721
-0.285532
-0.276492
-0.389511
-0.399909
-0.401673
-0.387992
-0.389934
-0.399862
-0.351818
-0.351184
-0.342292
-0.379104
-0.333821
-0.335900
-0.344375
-0.325418
-0.316396
-0.325419
-0.317604
-0.325182
-0.332448
-0.255301
-0.255271
-0.245854
-0.395583
-0.247755
-0.307434
-0.306228
-0.305770
-0.313567
-0.314432
-0.306437
-0.298558
-0.295766
-0.388397
-0.363008
-0.363173
-0.354308
-0.373120
-0.219874
-0.227145
-0.232394
-0.223017
-0.232541
-0.399256
-0.400805
-0.388923
-0.303218
-0.315790
-0.269946
-0.266356
-0.259306
-0.181256
-0.192850
-0.182398
-0.278006
-0.190444
-0.397356
-0.389467
-0.386112
-0.392920
-0.390067
-0.381577
-0.391804
-0.400460
-0.193805
-0.184669
-0.179133
-0.388842
-0.391348
-0.400410
-0.206175
-0.200328
-0.262996
-0.259157
-0.254112
-0.276877
-0.273236
-0.264080
-0.401535
-0.391004
-0.391050
-0.366012
-0.356568
-0.362574
-0.400715
-0.373010
-0.201068
-0.211211
-0.403658
-0.216035
-0.399883
-0.284785
-0.352407
-0.345396
-0.342835
-0.383843
-0.348661
-0.200646
-0.358063
-0.378899
-0.248052
-0.269972
-0.261793
-0.382386
-0.374602
-0.209971
-0.236801
-0.343250
-0.353350
-0.343306
-0.188445
-0.195766
-0.203903
-0.207493
-0.353190
-0.400635
-0.355863
-0.358228
-0.345609
-0.348909
-0.336295
-0.346110
-0.294890
-0.281663
-0.392728
-0.381935
-0.377416
-0.336934
-0.361119
-0.361809
-0.371952
-0.403036
-0.226096
-0.217855
-0.234959
-0.395298
-0.399874
-0.386715
-0.219387
-0.363479
-0.374657
-0.368199
-0.380592
-0.390762
-0.375508
-0.369812
-0.365811
-0.347120
-0.199148
-0.192376
-0.209964
-0.214704
-0.301248
-0.311704
-0.300057
-0.390390
-0.400923
-0.352569
-0.342346
-0.380304
-0.310738
-0.351933
-0.363479
-0.401906
-0.300679
-0.309311
-0.307781
-0.242939
-0.238236
-0.225939
-0.317189
-0.214706
-0.226164
-0.223653
-0.211904
-0.374648
-0.365802
-0.381275
-0.382873
-0.204216
-0.195515
-0.218627
-0.223070
-0.333071
-0.328067
-0.323547
-0.342345
-0.331738
-0.341471
-0.356947
-0.227115
-0.225255
-0.218387
-0.246771
-0.256840
-0.216185
-0.235456
-0.247473
-0.228605
-0.237962
-0.241371
-0.255692
-0.264082
-0.254156
-0.269065
-0.398646
-0.253076
-0.244526
-0.365559
-0.321932
-0.333783
-0.321004
-0.332353
-0.209714
-0.320644
-0.311839
-0.289448
-0.301255
-0.297269
-0.229233
-0.233999
-0.203598
-0.299161
-0.290961
-0.289400
-0.308785
-0.297380
-0.259990
-0.308147
-0.269934
-0.347345
-0.354902
-0.343916
-0.344291
-0.344776
-0.333718
-0.249874
-0.248405
-0.237205
-0.259739
-0.265504
-0.261656
-0.326333
-0.208311
-0.323338
-0.318598
-0.337856
-0.343635
-0.349677
-0.354220
-0.274426
-0.274192
-0.285316
-0.296632
-0.220379
-0.233102
-0.215276
-0.226914
-0.213915
-0.282656
-0.275675
-0.284537
-0.273733
-0.297368
-0.308711
-0.285903
-0.377287
-0.380665
-0.366985
-0.274924
-0.261983
-0.360985
-0.360422
-0.311768
-0.318070
-0.308730
-0.286731
-0.306609
-0.318345
-0.313179
-0.327651
-0.323011
-0.332701
-0.392627
-0.384070
-0.371085
-0.402962
-0.286754
-0.276982
-0.285072
-0.293534
-0.388594
-0.397441
-0.381235
-0.330197
-0.327293
-0.318931
-0.332072
-0.255468
-0.257783
-0.265177
-0.250142
-0.192932
-0.336559
-0.310849
-0.322033
-0.318660
-0.332827
-0.319845
-0.329467
-0.312659
-0.352636
-0.341797
-0.342839
-0.318180
-0.353879
-0.303032
-0.291458
-0.328399
-0.266545
-0.262954
-0.259240
-0.252152
-0.270227
-0.237995
-0.274787
-0.248013
-0.359112
-0.361147
-0.368978
-0.293563
-0.305009
-0.173473
-0.314879
-0.229094
-0.241038
-0.238898
-0.225215
-0.237253
-0.356356
-0.266751
-0.227383
-0.363931
-0.322454
-0.392445
-0.220143
-0.208422