# vtk DataFile Version 2.0
Test
ASCII
DATASET POLYDATA
POINTS 1445 float
0.000000 0.000000 0.000000
1.000000 0.000000 0.000000
1.000000 1.000000 0.000000
0.000000 1.000000 0.000000
0.000000 0.400000 0.000000
1.000000 0.600000 0.000000
0.029412 0.000000 0.000000
0.058824 0.000000 0.000000
0.088235 0.000000 0.000000
0.117647 0.000000 0.000000
0.147059 0.000000 0.000000
0.176471 0.000000 0.000000
0.205882 0.000000 0.000000
0.235294 0.000000 0.000000
0.264706 0.000000 0.000000
0.294118 0.000000 0.000000
0.323529 0.000000 0.000000
0.352941 0.000000 0.000000
0.382353 0.000000 0.000000
0.411765 0.000000 0.000000
0.441176 0.000000 0.000000
0.470588 0.000000 0.000000
0.500000 0.000000 0.000000
0.529412 0.000000 0.000000
0.558824 0.000000 0.000000
0.588235 0.000000 0.000000
0.617647 0.000000 0.000000
0.647059 0.000000 0.000000
0.676471 0.000000 0.000000
0.705882 0.000000 0.000000
0.735294 0.000000 0.000000
0.764706 0.000000 0.000000
0.794118 0.000000 0.000000
0.823529 0.000000 0.000000
0.852941 0.000000 0.000000
0.882353 0.000000 0.000000
0.911765 0.000000 0.000000
0.941176 0.000000 0.000000
0.970588 0.000000 0.000000
1.000000 0.030000 0.000000
1.000000 0.060000 0.000000
1.000000 0.090000 0.000000
1.000000 0.120000 0.000000
1.000000 0.150000 0.000000
1.000000 0.180000 0.000000
1.000000 0.210000 0.000000
1.000000 0.240000 0.000000
1.000000 0.270000 0.000000
1.000000 0.300000 0.000000
1.000000 0.330000 0.000000
1.000000 0.360000 0.000000
1.000000 0.390000 0.000000
1.000000 0.420000 0.000000
1.000000 0.450000 0.000000
1.000000 0.480000 0.000000
1.000000 0.510000 0.000000
1.000000 0.540000 0.000000
1.000000 0.570000 0.000000
1.000000 0.628571 0.000000
1.000000 0.657143 0.000000
1.000000 0.685714 0.000000
1.000000 0.714286 0.000000
1.000000 0.742857 0.000000
1.000000 0.771429 0.000000
1.000000 0.800000 0.000000
1.000000 0.828571 0.000000
1.000000 0.857143 0.000000
1.000000 0.885714 0.000000
1.000000 0.914286 0.000000
1.000000 0.942857 0.000000
1.000000 0.971429 0.000000
0.970588 1.000000 0.000000
0.941176 1.000000 0.000000
0.911765 1.000000 0.000000
0.882353 1.000000 0.000000
0.852941 1.000000 0.000000
0.823529 1.000000 0.000000
0.794118 1.000000 0.000000
0.764706 1.000000 0.000000
0.735294 1.000000 0.000000
0.705882 1.000000 0.000000
0.676471 1.000000 0.000000
0.647059 1.000000 0.000000
0.617647 1.000000 0.000000
0.588235 1.000000 0.000000
0.558824 1.000000 0.000000
0.529412 1.000000 0.000000
0.500000 1.000000 0.000000
0.470588 1.000000 0.000000
0.441176 1.000000 0.000000
0.411765 1.000000 0.000000
0.382353 1.000000 0.000000
0.352941 1.000000 0.000000
0.323529 1.000000 0.000000
0.294118 1.000000 0.000000
0.264706 1.000000 0.000000
0.235294 1.000000 0.000000
0.205882 1.000000 0.000000
0.176471 1.000000 0.000000
0.147059 1.000000 0.000000
0.117647 1.000000 0.000000
0.088235 1.000000 0.000000
0.058824 1.000000 0.000000
0.029412 1.000000 0.000000
0.000000 0.970000 0.000000
0.000000 0.940000 0.000000
0.000000 0.910000 0.000000
0.000000 0.880000 0.000000
0.000000 0.850000 0.000000
0.000000 0.820000 0.000000
0.000000 0.790000 0.000000
0.000000 0.760000 0.000000
0.000000 0.730000 0.000000
0.000000 0.700000 0.000000
0.000000 0.670000 0.000000
0.000000 0.640000 0.000000
0.000000 0.610000 0.000000
0.000000 0.580000 0.000000
0.000000 0.550000 0.000000
0.000000 0.520000 0.000000
0.000000 0.490000 0.000000
0.000000 0.460000 0.000000
0.000000 0.430000 0.000000
0.000000 0.371429 0.000000
0.000000 0.342857 0.000000
0.000000 0.314286 0.000000
0.000000 0.285714 0.000000
0.000000 0.257143 0.000000
0.000000 0.228571 0.000000
0.000000 0.200000 0.000000
0.000000 0.171429 0.000000
0.000000 0.142857 0.000000
0.000000 0.114286 0.000000
0.000000 0.085714 0.000000
0.000000 0.057143 0.000000
0.000000 0.028571 0.000000
0.029412 0.405882 0.000000
0.058824 0.411765 0.000000
0.088235 0.417647 0.000000
0.117647 0.423529 0.000000
0.147059 0.429412 0.000000
0.176471 0.435294 0.000000
0.205882 0.441176 0.000000
0.235294 0.447059 0.000000
0.264706 0.452941 0.000000
0.294118 0.458824 0.000000
0.323529 0.464706 0.000000
0.352941 0.470588 0.000000
0.382353 0.476471 0.000000
0.411765 0.482353 0.000000
0.441176 0.488235 0.000000
0.470588 0.494118 0.000000
0.500000 0.500000 0.000000
0.529412 0.505882 0.000000
0.558824 0.511765 0.000000
0.588235 0.517647 0.000000
0.617647 0.523529 0.000000
0.647059 0.529412 0.000000
0.676471 0.535294 0.000000
0.705882 0.541176 0.000000
0.735294 0.547059 0.000000
0.764706 0.552941 0.000000
0.794118 0.558824 0.000000
0.823529 0.564706 0.000000
0.852941 0.570588 0.000000
0.882353 0.576471 0.000000
0.911765 0.582353 0.000000
0.941176 0.588235 0.000000
0.970588 0.594118 0.000000
0.948492 0.617586 0.000000
0.918239 0.609871 0.000000
0.126115 0.454845 0.000000
0.100318 0.465379 0.000000
0.103006 0.442114 0.000000
0.117916 0.480680 0.000000
0.029145 0.895585 0.000000
0.046774 0.918032 0.000000
0.024990 0.926329 0.000000
0.056315 0.899171 0.000000
0.977770 0.695981 0.000000
0.963577 0.714729 0.000000
0.973827 0.736127 0.000000
0.605253 0.549394 0.000000
0.579370 0.549801 0.000000
0.570019 0.533816 0.000000
0.896809 0.971959 0.000000
0.919426 0.957680 0.000000
0.927686 0.976215 0.000000
0.899487 0.944624 0.000000
0.974081 0.924646 0.000000
0.977161 0.898750 0.000000
0.076578 0.973587 0.000000
0.102577 0.974440 0.000000
0.861693 0.698664 0.000000
0.848870 0.723174 0.000000
0.839521 0.701504 0.000000
0.820447 0.720618 0.000000
0.872237 0.675719 0.000000
0.882611 0.694724 0.000000
0.895344 0.672729 0.000000
0.606326 0.947716 0.000000
0.624868 0.973015 0.000000
0.599776 0.977307 0.000000
0.167986 0.944019 0.000000
0.199183 0.948746 0.000000
0.187884 0.972901 0.000000
0.787752 0.856005 0.000000
0.754801 0.854462 0.000000
0.778588 0.832828 0.000000
0.191471 0.922393 0.000000
0.801312 0.812216 0.000000
0.829867 0.817276 0.000000
0.805526 0.837896 0.000000
0.812775 0.791772 0.000000
0.822869 0.769821 0.000000
0.833826 0.791773 0.000000
0.849982 0.772760 0.000000
0.791421 0.791198 0.000000
0.772962 0.808877 0.000000
0.180049 0.621172 0.000000
0.160680 0.621098 0.000000
0.172158 0.598185 0.000000
0.588124 0.962489 0.000000
0.142171 0.602810 0.000000
0.827587 0.748015 0.000000
0.859778 0.745080 0.000000
0.882413 0.743965 0.000000
0.872759 0.762938 0.000000
0.894601 0.765041 0.000000
0.910115 0.745588 0.000000
0.901004 0.726420 0.000000
0.877058 0.719626 0.000000
0.632694 0.945006 0.000000
0.818411 0.883232 0.000000
0.787667 0.883633 0.000000
0.812018 0.862064 0.000000
0.808649 0.907835 0.000000
0.066636 0.534974 0.000000
0.083909 0.552665 0.000000
0.058224 0.565435 0.000000
0.037551 0.542621 0.000000
0.025720 0.565794 0.000000
0.304619 0.971425 0.000000
0.276072 0.975195 0.000000
0.284125 0.946285 0.000000
0.795087 0.737757 0.000000
0.797357 0.768346 0.000000
0.869843 0.656802 0.000000
0.840870 0.648068 0.000000
0.865462 0.630915 0.000000
0.043233 0.441011 0.000000
0.028792 0.469222 0.000000
0.020751 0.443790 0.000000
0.846918 0.676414 0.000000
0.058991 0.463368 0.000000
0.051906 0.966804 0.000000
0.071758 0.947609 0.000000
0.048298 0.939447 0.000000
0.026398 0.956010 0.000000
0.967109 0.949068 0.000000
0.946807 0.928411 0.000000
0.940173 0.953295 0.000000
0.956764 0.974357 0.000000
0.076722 0.471546 0.000000
0.082324 0.449317 0.000000
0.066669 0.435847 0.000000
0.114035 0.946088 0.000000
0.091278 0.952186 0.000000
0.128453 0.974235 0.000000
0.027019 0.501643 0.000000
0.047138 0.487417 0.000000
0.943388 0.639892 0.000000
0.923239 0.630552 0.000000
0.974491 0.618278 0.000000
0.972785 0.673666 0.000000
0.943930 0.664809 0.000000
0.968693 0.642530 0.000000
0.780685 0.976970 0.000000
0.756289 0.951349 0.000000
0.776857 0.951460 0.000000
0.935276 0.890540 0.000000
0.927168 0.867561 0.000000
0.954227 0.882176 0.000000
0.745760 0.974977 0.000000
0.952002 0.907568 0.000000
0.068063 0.489215 0.000000
0.051512 0.513895 0.000000
0.027757 0.982136 0.000000
0.023217 0.525632 0.000000
0.982410 0.972952 0.000000
0.951072 0.692907 0.000000
0.957020 0.857438 0.000000
0.937630 0.840379 0.000000
0.966912 0.834149 0.000000
0.923427 0.933924 0.000000
0.982257 0.848323 0.000000
0.092881 0.488189 0.000000
0.976737 0.871201 0.000000
0.067960 0.921895 0.000000
0.886538 0.603532 0.000000
0.918896 0.656866 0.000000
0.898227 0.636966 0.000000
0.092880 0.930380 0.000000
0.929071 0.911440 0.000000
0.081137 0.510877 0.000000
0.592772 0.576158 0.000000
0.150419 0.835159 0.000000
0.138607 0.859733 0.000000
0.125762 0.835294 0.000000
0.155304 0.458505 0.000000
0.139466 0.476317 0.000000
0.134858 0.496115 0.000000
0.109061 0.504849 0.000000
0.112238 0.859343 0.000000
0.866826 0.974780 0.000000
0.026919 0.865848 0.000000
0.348411 0.871602 0.000000
0.339654 0.840899 0.000000
0.369544 0.848927 0.000000
0.925986 0.818235 0.000000
0.909684 0.842117 0.000000
0.929360 0.717495 0.000000
0.924028 0.685311 0.000000
0.879688 0.955544 0.000000
0.875200 0.929284 0.000000
0.903901 0.918287 0.000000
0.950764 0.819790 0.000000
0.047492 0.878635 0.000000
0.069665 0.880314 0.000000
0.081712 0.904992 0.000000
0.573454 0.980624 0.000000
0.556694 0.550113 0.000000
0.094318 0.530060 0.000000
0.563246 0.571677 0.000000
0.563825 0.961795 0.000000
0.155902 0.972929 0.000000
0.577162 0.940912 0.000000
0.545227 0.533787 0.000000
0.864670 0.884377 0.000000
0.860690 0.911575 0.000000
0.840756 0.895862 0.000000
0.137227 0.926016 0.000000
0.139814 0.950758 0.000000
0.109156 0.913646 0.000000
0.884976 0.899786 0.000000
0.910807 0.890052 0.000000
0.830819 0.844574 0.000000
0.157710 0.484545 0.000000
0.180718 0.468069 0.000000
0.154331 0.510861 0.000000
0.124262 0.522394 0.000000
0.341085 0.732964 0.000000
0.323736 0.758404 0.000000
0.312899 0.730066 0.000000
0.857321 0.949854 0.000000
0.839840 0.975483 0.000000
0.053549 0.857833 0.000000
0.031143 0.832960 0.000000
0.840338 0.925315 0.000000
0.300796 0.756054 0.000000
0.080783 0.856286 0.000000
0.096939 0.884378 0.000000
0.544800 0.977874 0.000000
0.949430 0.731579 0.000000
0.955247 0.752582 0.000000
0.934712 0.748859 0.000000
0.030153 0.591093 0.000000
[...]
POINT_DATA 1445
SCALARS UX float 1
LOOKUP_TABLE default
-0.180428
-0.000000
0.000000
-0.180428
-0.180428
0.000000
-0.175122
-0.169815
-0.164508
-0.159202
-0.153895
-0.148588
-0.143281
-0.137975
-0.132668
-0.127361
-0.122055
-0.116748
-0.111441
-0.106134
-0.100828
-0.095521
-0.090214
-0.084907
-0.079601
-0.074294
-0.068987
-0.063681
-0.058374
-0.053067
-0.047760
-0.042454
-0.037147
-0.031840
-0.026534
-0.021227
-0.015920
-0.010613
-0.005307
-0.000000
-0.000000
-0.000000
-0.000000
-0.000000
-0.000000
-0.000000
-0.000000
-0.000000
-0.000000
-0.000000
-0.000000
-0.000000
-0.000000
-0.000000
-0.000000
-0.000000
0.000000
0.000000
-0.000000
-0.000000
0.000000
-0.000000
-0.000000
-0.000000
-0.000000
0.000000
-0.000000
0.000000
-0.000000
0.000000
-0.000000
-0.005307
-0.010613
-0.015920
-0.021227
-0.026534
-0.031840
-0.037147
-0.042454
-0.047760
-0.053067
-0.058374
-0.063681
-0.068987
-0.074294
-0.079601
-0.084907
-0.090214
-0.095521
-0.100828
-0.106134
-0.111441
-0.116748
-0.122055
-0.127361
-0.132668
-0.137975
-0.143281
-0.148588
-0.153895
-0.159202
-0.164508
-0.169815
-0.175122
-0.180428
-0.180428
-0.180428
-0.180428
-0.180428
-0.180428
-0.180428
-0.180428
-0.180428
-0.180428
-0.180428
-0.180428
-0.180428
-0.180428
-0.180428
-0.180428
-0.180428
-0.180428
-0.180428
-0.180428
-0.180428
-0.180428
-0.180428
-0.180428
-0.180428
-0.180428
-0.180428
-0.180428
-0.180428
-0.180428
-0.180428
-0.180428
-0.175122
-0.169815
-0.164508
-0.159202
-0.153895
-0.148588
-0.143281
-0.137975
-0.132668
-0.127361
-0.122055
-0.116748
-0.111441
-0.106134
-0.100828
-0.095521
-0.090214
-0.084907
-0.079601
-0.074294
-0.068987
-0.063681
-0.058374
-0.053067
-0.047760
-0.042454
-0.037147
-0.031840
-0.026534
-0.021227
-0.015920
-0.010613
-0.005307
-0.009294
-0.014752
-0.157674
-0.162328
-0.161843
-0.159153
-0.175170
-0.171989
-0.175919
-0.170268
-0.004011
-0.006572
-0.004722
-0.071224
-0.075894
-0.077581
-0.018619
-0.014538
-0.013048
-0.018135
-0.004677
-0.004121
-0.166612
-0.161921
-0.024955
-0.027268
-0.028955
-0.032397
-0.023052
-0.021180
-0.018883
-0.071030
-0.067684
-0.072212
-0.150119
-0.144490
-0.146529
-0.038296
-0.044241
-0.039949
-0.145882
-0.035849
-0.030697
-0.035089
-0.033781
-0.031959
-0.029982
-0.027067
-0.037634
-0.040964
-0.147942
-0.151437
-0.149366
-0.074314
-0.154777
-0.031108
-0.025300
-0.021216
-0.022958
-0.019017
-0.016218
-0.017862
-0.022182
-0.066272
-0.032764
-0.038311
-0.033917
-0.034525
-0.168405
-0.165289
-0.169923
-0.173653
-0.175788
-0.125467
-0.130617
-0.129164
-0.036972
-0.036563
-0.023484
-0.028712
-0.024274
-0.172628
-0.175233
-0.176684
-0.027620
-0.169785
-0.171063
-0.167481
-0.171714
-0.175665
-0.005935
-0.009598
-0.010794
-0.007801
-0.166586
-0.165575
-0.168400
-0.159853
-0.163959
-0.157252
-0.175553
-0.171923
-0.010214
-0.013850
-0.004603
-0.004910
-0.010117
-0.005649
-0.039571
-0.043972
-0.040261
-0.011678
-0.013141
-0.008259
-0.045872
-0.008660
-0.168148
-0.171134
-0.175420
-0.176239
-0.003174
-0.008828
-0.007755
-0.011253
-0.005970
-0.013816
-0.003201
-0.163670
-0.004197
-0.168167
-0.020472
-0.014633
-0.018363
-0.163670
-0.012798
-0.165789
-0.073475
-0.153289
-0.155420
-0.157737
-0.152407
-0.155265
-0.156096
-0.160751
-0.160178
-0.024028
-0.175572
-0.117565
-0.119145
-0.113752
-0.013354
-0.016296
-0.012745
-0.013707
-0.021708
-0.022517
-0.017339
-0.008884
-0.171860
-0.167859
-0.165685
-0.076961
-0.079985
-0.163411
-0.078803
-0.078698
-0.152299
-0.076292
-0.082054
-0.024417
-0.025136
-0.028732
-0.155669
-0.155202
-0.160734
-0.020754
-0.016093
-0.030525
-0.151973
-0.147822
-0.152583
-0.158008
-0.118887
-0.122017
-0.123973
-0.025743
-0.028897
-0.170767
-0.174809
-0.028808
-0.126156
-0.165853
-0.162938
-0.082131
-0.009124
-0.008075
-0.011780
-0.174988
-0.163954
-0.160588
-0.014687
-0.094720
-0.094255
-0.099948
-0.098482
-0.151523
-0.156581
-0.038082
-0.041965
-0.147378
-0.141843
-0.147840
-0.154620
-0.004727
-0.009752
-0.004751
-0.168648
-0.176365
-0.162853
-0.019271
-0.132224
-0.135894
-0.133314
-0.169263
-0.174097
-0.137511
-0.157791
-0.160458
-0.127431
-0.131549
-0.126891
-0.116910
-0.120292
-0.121714
-0.116175
-0.140212
-0.126126
-0.122919
-0.146771
-0.123873
-0.125855
-0.128535
-0.131635
-0.142386
-0.119938
-0.117180
-0.159800
-0.158706
-0.164032
-0.144823
-0.150792
-0.137343
-0.128470
-0.126012
-0.121396
-0.130860
-0.133621
-0.167767
-0.136267
-0.175663
-0.020980
-0.024092
-0.025783
-0.128730
-0.123905
-0.120739
-0.134441
-0.130038
-0.136764
-0.131183
-0.125715
-0.136892
-0.014238
-0.132649
-0.018105
-0.133145
-0.136930
-0.132930
-0.136643
-0.131542
-0.139635
-0.132174
-0.136388
-0.139734
-0.123174
-0.122481
-0.128391
-0.118212
-0.118561
-0.175167
-0.171528
-0.169909
-0.167192
-0.147026
-0.141824
-0.142591
-0.126616
-0.133294
-0.131089
-0.145697
-0.143897
-0.135644
-0.140662
-0.158083
-0.162321
-0.163509
-0.164285
-0.152493
-0.152262
-0.147477
-0.152387
-0.155464
-0.155546
-0.134671
-0.139709
-0.137152
-0.135500
-0.147068
-0.149904
-0.151572
-0.172600
-0.124173
-0.118723
-0.120476
-0.141373
-0.135731
-0.138681
-0.171186
-0.158711
-0.162675
-0.159402
-0.164839
-0.136737
-0.115190
-0.042580
-0.041905
-0.047502
-0.166795
-0.168146
-0.046346
-0.004563
-0.144767
-0.147877
-0.141967
-0.009830
-0.150167
-0.113397
-0.115359
-0.163143
-0.171438
-0.034456
-0.039794
-0.035595
-0.038569
-0.146324
-0.121245
-0.144915
-0.048468
-0.042901
-0.046996
-0.109208
-0.107404
-0.175851
-0.111706
-0.062635
-0.061463
-0.067913
-0.066778
-0.141926
-0.028520
-0.164170
-0.139656
-0.151706
-0.022136
-0.036026
-0.142403
-0.123847
-0.124341
-0.120244
-0.025402
-0.072617
-0.077613
-0.076434
-0.071513
-0.044738
-0.041847
-0.047887
-0.044389
-0.081763
-0.175058
-0.082533
-0.115879
-0.110522
-0.154882
-0.051247
-0.050229
-0.150096
-0.118321
-0.045256
-0.057604
-0.056383
-0.105811
-0.109006
-0.103441
-0.142495
-0.025969
-0.080253
-0.083506
-0.079666
-0.081612
-0.085126
-0.070692
-0.075672
-0.072012
-0.074458
-0.076264
-0.066039
-0.066856
-0.069115
-0.128374
-0.132530
-0.052397
-0.055912
-0.055683
-0.052417
-0.049094
-0.041245
-0.060711
-0.061559
-0.063780
-0.058588
-0.019702
-0.017760
-0.029648
-0.033261
-0.110730
-0.116636
-0.112214
-0.114900
-0.114785
-0.112639
-0.041435
-0.045822
-0.040696
-0.046876
-0.051155
-0.050301
-0.107930
-0.109217
-0.049677
-0.050994
-0.048175
-0.044958
-0.050126
-0.052366
-0.055542
-0.041396
-0.030928
-0.103303
-0.101657
-0.105935
-0.102750
-0.097335
-0.099766
-0.045936
-0.051364
-0.121806
-0.054048
-0.052846
-0.104825
-0.130198
-0.126217
-0.113087
-0.104979
-0.108678
-0.032938
-0.105148
-0.106585
-0.109191
-0.056623
-0.055398
-0.102380
-0.103614
-0.060713
-0.057743
-0.060860
-0.091214
-0.096073
-0.091563
-0.095070
-0.056883
-0.055316
-0.087591
-0.086373
-0.091562
-0.051263
-0.053399
-0.099692
-0.101101
-0.103700
-0.099333
-0.100446
-0.107625
-0.033974
-0.063058
-0.066186
-0.096936
-0.098182
-0.175582
-0.169765
-0.159043
-0.159702
-0.094295
-0.095657
-0.098306
-0.036307
-0.154322
-0.088918
-0.090292
-0.173796
-0.092914
-0.102246
-0.066039
-0.062083
-0.038080
-0.091543
-0.156337
-0.092786
-0.083552
-0.084878
-0.059460
-0.058202
-0.126510
-0.086175
-0.087425
-0.031265
-0.096895
-0.097720
-0.080807
-0.082090
-0.079518
-0.075453
-0.076731
-0.121837
-0.068391
-0.071525
-0.062238
-0.060962
-0.143592
-0.161248
-0.071380
-0.067414
-0.059716
-0.054371
-0.056585
-0.074170
-0.070109
-0.069374
-0.074713
-0.168125
-0.126664
-0.080046
-0.076873
-0.088635
-0.085426
-0.090621
-0.087563
-0.064045
-0.067223
-0.067555
-0.072880
-0.068833
-0.064778
-0.154777
-0.058723
-0.063515
-0.037316
-0.140024
-0.087404
-0.086977
-0.061902
-0.078195
-0.082227
-0.073733
-0.090198
-0.089900
-0.094094
-0.088765
-0.176471
-0.081833
-0.114471
-0.112000
-0.064495
-0.049028
-0.072757
-0.043869
-0.079080
-0.078106
-0.084427
-0.083445
-0.089521
-0.102112
-0.106290
-0.104663
-0.068752
-0.090255
-0.086104
-0.089245
-0.094227
-0.094949
-0.092928
-0.093670
-0.053702
-0.145017
-0.141161
-0.055237
-0.112956
-0.110376
-0.102466
-0.099815
-0.098967
-0.058183
-0.105580
-0.147668
-0.096620
-0.033734
-0.061025
-0.109320
-0.108262
-0.086059
-0.084191
-0.111484
-0.093063
-0.063925
-0.114214
-0.098004
-0.117678
-0.151226
-0.171135
-0.165676
-0.022755
-0.018100
-0.018585
-0.021275
-0.005258
-0.008439
-0.004509
-0.010161
-0.176417
-0.173857
-0.175706
-0.109205
-0.104535
-0.102848
-0.161810
-0.165891
-0.167381
-0.162293
-0.175752
-0.176308
-0.013817
-0.018508
-0.155474
-0.153160
-0.151473
-0.148032
-0.157376
-0.159248
-0.161546
-0.109398
-0.112744
-0.108217
-0.030309
-0.035938
-0.033900
-0.142133
-0.136188
-0.140479
-0.034547
-0.144579
-0.149732
-0.145340
-0.146648
-0.148469
-0.150446
-0.153361
-0.142795
-0.139464
-0.032486
-0.028991
-0.031062
-0.106114
-0.025652
-0.149320
-0.155128
-0.159212
-0.157471
-0.161411
-0.164211
-0.162567
-0.158246
-0.114156
-0.147665
-0.142118
-0.146511
-0.145903
-0.012023
-0.015140
-0.010505
-0.006775
-0.004641
-0.054962
-0.049811
-0.051264
-0.143456
-0.143866
-0.156944
-0.151717
-0.156154
-0.007800
-0.005195
-0.003744
-0.152808
-0.010644
-0.009365
-0.012947
-0.008714
-0.004763
-0.174494
-0.170831
-0.169634
-0.172627
-0.013843
-0.014854
-0.012029
-0.020575
-0.016469
-0.023177
-0.004875
-0.008505
-0.170214
-0.166579
-0.175826
-0.175518
-0.170312
-0.174780
-0.140858
-0.136456
-0.140167
-0.168750
-0.167288
-0.172170
-0.134556
-0.171768
-0.012281
-0.009294
-0.005008
-0.004189
-0.177255
-0.171600
-0.172674
-0.169175
-0.174458
-0.166613
-0.177227
-0.016758
-0.176231
-0.012262
-0.159957
-0.165795
-0.162066
-0.016758
-0.167631
-0.014639
-0.106953
-0.027140
-0.025009
-0.022691
-0.028021
-0.025164
-0.024332
-0.019678
-0.020251
-0.156400
-0.004857
-0.062863
-0.061283
-0.066676
-0.167074
-0.164133
-0.167683
-0.166721
-0.158721
-0.157911
-0.163089
-0.171545
-0.008569
-0.012570
-0.014743
-0.103467
-0.100443
-0.017018
-0.101626
-0.101730
-0.028129
-0.104136
-0.098374
-0.156011
-0.155293
-0.151696
-0.024760
-0.025226
-0.019695
-0.159675
-0.164335
-0.149903
-0.028455
-0.032607
-0.027846
-0.022420
-0.061541
-0.058411
-0.056456
-0.154685
-0.151531
-0.009662
-0.005619
-0.151621
-0.054272
-0.014575
-0.017491
-0.098297
-0.171304
-0.172354
-0.168649
-0.005440
-0.016474
-0.019840
-0.165741
-0.085708
-0.086173
-0.080481
-0.081947
-0.028905
-0.023847
-0.142347
-0.138464
-0.033050
-0.038586
-0.032589
-0.025809
-0.175702
-0.170676
-0.175677
-0.011780
-0.004063
-0.017575
-0.161157
-0.048204
-0.044535
-0.047114
-0.011166
-0.006331
-0.042918
-0.022637
-0.019970
-0.052997
-0.048879
-0.053537
-0.063519
-0.060137
-0.058715
-0.064253
-0.040216
-0.054303
-0.057510
-0.033657
-0.056555
-0.054574
-0.051894
-0.048794
-0.038042
-0.060491
-0.063248
-0.020629
-0.021722
-0.016397
-0.035605
-0.029637
-0.043086
-0.051958
-0.054416
-0.059032
-0.049568
-0.046808
-0.012661
-0.044161
-0.004765
-0.159449
-0.156336
-0.154645
-0.051699
-0.056523
-0.059689
-0.045988
-0.050390
-0.043664
-0.049246
-0.054713
-0.043536
-0.166190
-0.047779
-0.162323
-0.047284
-0.043498
-0.047498
-0.043785
-0.048886
-0.040793
-0.048254
-0.044041
-0.040695
-0.057255
-0.057947
-0.052037
-0.062217
-0.061868
-0.005261
-0.008901
-0.010520
-0.013236
-0.033403
-0.038605
-0.037837
-0.053813
-0.047135
-0.049340
-0.034731
-0.036531
-0.044784
-0.039766
-0.022346
-0.018107
-0.016920
-0.016143
-0.027935
-0.028166
-0.032951
-0.028041
-0.024964
-0.024883
-0.045757
-0.040719
-0.043276
-0.044928
-0.033361
-0.030525
-0.028856
-0.007828
-0.056255
-0.061705
-0.059953
-0.039055
-0.044698
-0.041748
-0.009243
-0.021717
-0.017753
-0.021027
-0.015589
-0.043691
-0.065239
-0.137849
-0.138524
-0.132927
-0.013633
-0.012282
-0.134082
-0.175865
-0.035661
-0.032552
-0.038461
-0.170599
-0.030261
-0.067032
-0.065070
-0.017285
-0.008990
-0.145972
-0.140634
-0.144833
-0.141860
-0.034104
-0.059183
-0.035513
-0.131961
-0.137527
-0.133432
-0.071220
-0.073025
-0.004577
-0.068722
-0.117793
-0.118966
-0.112515
-0.113651
-0.038503
-0.151909
-0.016259
-0.040772
-0.028722
-0.158292
-0.144402
-0.038025
-0.056581
-0.056087
-0.060185
-0.155027
-0.107812
-0.102816
-0.103995
-0.108915
-0.135690
-0.138581
-0.132541
-0.136039
-0.098666
-0.005370
-0.097895
-0.064549
-0.069907
-0.025546
-0.129181
-0.130199
-0.030332
-0.062107
-0.135173
-0.122824
-0.124045
-0.074618
-0.071422
-0.076988
-0.037933
-0.154460
-0.100175
-0.096922
-0.100762
-0.098816
-0.095303
-0.109737
-0.104757
-0.108417
-0.105971
-0.104164
-0.114389
-0.113573
-0.111314
-0.052054
-0.047898
-0.128031
-0.124516
-0.124745
-0.128011
-0.131334
-0.139183
-0.119717
-0.118869
-0.116649
-0.121841
-0.160726
-0.162668
-0.150780
-0.147167
-0.069699
-0.063792
-0.068215
-0.065529
-0.065643
-0.067789
-0.138993
-0.134607
-0.139733
-0.133552
-0.129273
-0.130127
-0.072498
-0.071211
-0.130751
-0.129435
-0.132253
-0.135471
-0.130302
-0.128062
-0.124886
-0.139033
-0.149501
-0.077125
-0.078771
-0.074493
-0.077678
-0.083094
-0.080662
-0.134492
-0.129064
-0.058622
-0.126380
-0.127582
-0.075603
-0.050231
-0.054212
-0.067342
-0.075449
-0.071751
-0.147490
-0.075281
-0.073843
-0.071238
-0.123806
-0.125031
-0.078048
-0.076814
-0.119715
-0.122685
-0.119569
-0.089214
-0.084356
-0.088866
-0.085358
-0.123545
-0.125113
-0.092837
-0.094055
-0.088866
-0.129165
-0.127029
-0.080737
-0.079328
-0.076728
-0.081095
-0.079983
-0.072803
-0.146455
-0.117370
-0.114242
-0.083492
-0.082246
-0.004847
-0.010663
-0.021385
-0.020726
-0.086133
-0.084772
-0.082122
-0.144122
-0.026106
-0.091510
-0.090136
-0.006633
-0.087514
-0.078183
-0.114390
-0.118346
-0.142349
-0.088885
-0.024091
-0.087643
-0.096877
-0.095550
-0.120969
-0.122227
-0.053919
-0.094253
-0.093004
-0.149163
-0.083533
-0.082708
-0.099621
-0.098338
-0.100910
-0.104976
-0.103698
-0.058591
-0.112038
-0.108903
-0.118190
-0.119466
-0.036837
-0.019181
-0.109049
-0.113014
-0.120712
-0.126058
-0.123843
-0.106258
-0.110319
-0.111055
-0.105716
-0.012303
-0.053765
-0.100382
-0.103556
-0.091793
-0.095003
-0.089807
-0.092865
-0.116383
-0.113205
-0.112874
-0.107548
-0.111595
-0.115650
-0.025651
-0.121705
-0.116913
-0.143113
-0.040405
-0.093024
-0.093451
-0.118527
-0.102233
-0.098201
-0.106696
-0.090230
-0.090528
-0.086335
-0.091663
-0.003957
-0.098595
-0.065958
-0.068428
-0.115934
-0.131400
-0.107671
-0.136559
-0.101349
-0.102322
-0.096002
-0.096984
-0.090907
-0.078317
-0.074138
-0.075765
-0.111676
-0.090174
-0.094325
-0.091184
-0.086201
-0.085479
-0.087501
-0.086758
-0.126726
-0.035411
-0.039268
-0.125191
-0.067472
-0.070052
-0.077963
-0.080613
-0.081462
-0.122246
-0.074848
-0.032760
-0.083808
-0.146694
-0.119404
-0.071108
-0.072166
-0.094369
-0.096238
-0.068945
-0.087365
-0.116503
-0.066214
-0.082424
-0.062750
-0.029202
SCALARS UY float 1
LOOKUP_TABLE default
-0.000000
-0.000000
-0.421000
-0.421000
-0.168400
-0.252600
-0.000000
-0.000000
-0.000000
-0.000000
-0.000000
-0.000000
-0.000000
-0.000000
-0.000000
-0.000000
-0.000000
-0.000000
-0.000000
-0.000000
-0.000000
-0.000000
-0.000000
-0.000000
-0.000000
-0.000000
-0.000000
-0.000000
-0.000000
-0.000000
-0.000000
-0.000000
-0.000000
-0.000000
-0.000000
-0.000000
-0.000000
-0.000000
-0.000000
-0.012630
-0.025260
-0.037890
-0.050520
-0.063150
-0.075780
-0.088410
-0.101040
-0.113670
-0.126300
-0.138930
-0.151560
-0.164190
-0.176820
-0.189450
-0.202080
-0.214710
-0.227340
-0.239970
-0.264629
-0.276657
-0.288686
-0.300714
-0.312743
-0.324771
-0.336800
-0.348828
-0.360857
-0.372886
-0.384914
-0.396943
-0.408971
-0.421000
-0.421000
-0.421000
-0.421000
-0.421000
-0.421000
-0.421000
-0.421000
-0.421000
-0.421000
-0.421000
-0.421000
-0.421000
-0.421000
-0.421000
-0.421000
-0.421000
-0.421000
-0.421000
-0.421000
-0.421000
-0.421000
-0.421000
-0.421000
-0.421000
-0.421000
-0.421000
-0.421000
-0.421000
-0.421000
-0.421000
-0.421000
-0.421000
-0.408370
-0.395740
-0.383110
-0.370480
-0.357850
-0.345220
-0.332590
-0.319960
-0.307330
-0.294700
-0.282070
-0.269440
-0.256810
-0.244180
-0.231550
-0.218920
-0.206290
-0.193660
-0.181030
-0.156371
-0.144343
-0.132314
-0.120286
-0.108257
-0.096229
-0.084200
-0.072172
-0.060143
-0.048114
-0.036086
-0.024057
-0.012029
-0.170877
-0.173353
-0.175829
-0.178306
-0.180782
-0.183259
-0.185735
-0.188212
-0.190688
-0.193165
-0.195641
-0.198118
-0.200594
-0.203071
-0.205547
-0.208024
-0.210500
-0.212976
-0.215453
-0.217929
-0.220406
-0.222882
-0.225359
-0.227835
-0.230312
-0.232788
-0.235265
-0.237741
-0.240218
-0.242694
-0.245171
-0.247647
-0.250123
-0.260004
-0.256755
-0.191490
-0.195925
-0.186130
-0.202366
-0.377041
-0.386491
-0.389984
-0.378551
-0.293008
-0.300901
-0.309909
-0.231295
-0.231466
-0.224737
-0.409195
-0.403183
-0.410986
-0.397686
-0.389276
-0.378374
-0.409880
-0.410239
-0.294137
-0.304456
-0.295333
-0.303380
-0.284478
-0.292479
-0.283219
-0.398988
-0.409639
-0.411446
-0.397432
-0.399422
-0.409591
-0.360378
-0.359729
-0.350620
-0.388327
-0.341943
-0.344073
-0.352754
-0.333336
-0.324095
-0.333336
-0.325332
-0.333094
-0.340537
-0.261513
-0.261482
-0.251836
-0.405208
-0.253783
-0.314914
-0.313678
-0.313209
-0.321197
-0.322082
-0.313893
-0.305823
-0.302963
-0.397847
-0.371840
-0.372010
-0.362929
-0.382198
-0.225224
-0.232672
-0.238048
-0.228444
-0.238199
-0.408970
-0.410557
-0.398386
-0.310596
-0.323474
-0.276514
-0.272837
-0.265615
-0.185666
-0.197543
-0.186836
-0.284770
-0.195078
-0.407024
-0.398943
-0.395507
-0.402480
-0.399558
-0.390861
-0.401337
-0.410204
-0.198521
-0.189162
-0.183492
-0.398303
-0.400870
-0.410153
-0.211192
-0.205203
-0.269395
-0.265462
-0.260295
-0.283613
-0.279884
-0.270505
-0.411304
-0.400518
-0.400565
-0.374917
-0.365243
-0.371396
-0.410465
-0.382086
-0.205960
-0.216350
-0.413479
-0.221291
-0.409613
-0.291714
-0.360981
-0.353799
-0.351177
-0.393182
-0.357144
-0.205528
-0.366775
-0.388118
-0.254087
-0.276540
-0.268162
-0.391690
-0.383716
-0.215079
-0.242562
-0.351602
-0.361948
-0.351659
-0.193030
-0.200529
-0.208864
-0.212541
-0.361783
-0.410382
-0.364522
-0.366944
-0.354018
-0.357398
-0.344477
-0.354531
-0.302065
-0.288516
-0.402284
-0.391228
-0.386599
-0.345131
-0.369905
-0.370612
-0.381002
-0.412842
-0.231598
-0.223155
-0.240676
-0.404915
-0.409603
-0.396124
-0.224725
-0.372322
-0.383773
-0.377158
-0.389852
-0.400269
-0.384645
-0.378810
-0.374712
-0.355565
-0.203993
-0.197057
-0.215072
-0.219928
-0.308578
-0.319288
-0.307358
-0.399888
-0.410678
-0.361148
-0.350676
-0.389558
-0.318299
-0.360496
-0.372323
-0.411685
-0.307995
-0.316837
-0.315269
-0.248850
-0.244032
-0.231437
-0.324906
-0.219930
-0.231667
-0.229094
-0.217060
-0.383764
-0.374702
-0.390552
-0.392188
-0.209184
-0.200272
-0.223946
-0.228497
-0.341175
-0.336050
-0.331419
-0.350675
-0.339809
-0.349779
-0.365631
-0.232641
-0.230736
-0.223700
-0.252775
-0.263090
-0.221445
-0.241185
-0.253495
-0.234168
-0.243752
-0.247244
-0.261913
-0.270508
-0.260340
-0.275612
-0.408345
-0.259234
-0.250476
-0.374454
-0.329765
-0.341904
-0.328815
-0.340439
-0.214816
-0.328446
-0.319426
-0.296491
-0.308585
-0.304501
-0.234811
-0.239692
-0.208552
-0.306440
-0.298040
-0.296441
-0.316298
-0.304615
-0.266316
-0.315645
-0.276501
-0.355797
-0.363537
-0.352283
-0.352668
-0.353165
-0.341837
-0.255954
-0.254449
-0.242977
-0.266059
-0.271964
-0.268023
-0.334273
-0.213380
-0.331205
-0.326349
-0.346077
-0.351996
-0.358185
-0.362839
-0.281103
-0.280863
-0.292258
-0.303850
-0.225741
-0.238773
-0.220514
-0.232435
-0.219119
-0.289533
-0.282382
-0.291460
-0.280394
-0.304603
-0.316223
-0.292860
-0.386466
-0.389927
-0.375914
-0.281613
-0.268357
-0.369768
-0.369192
-0.319354
-0.325809
-0.316242
-0.293707
-0.314069
-0.326091
-0.320799
-0.335623
-0.330870
-0.340796
-0.402180
-0.393414
-0.380114
-0.412766
-0.293731
-0.283722
-0.292008
-0.300676
-0.398049
-0.407111
-0.390511
-0.338231
-0.335257
-0.326691
-0.340152
-0.261684
-0.264055
-0.271629
-0.256228
-0.197626
-0.344748
-0.318412
-0.329869
-0.326413
-0.340924
-0.327627
-0.337483
-0.320267
-0.361216
-0.350113
-0.351180
-0.325921
-0.362489
-0.310405
-0.298549
-0.336390
-0.273030
-0.269352
-0.265548
-0.258287
-0.276802
-0.243786
-0.281472
-0.254048
-0.367850
-0.369934
-0.377955
-0.300705
-0.312430
-0.177693
-0.322540
-0.234668
-0.246903
-0.244711
-0.230694
-0.243025
-0.365026
-0.273241
-0.232915
-0.372785
-0.330300
-0.401994
-0.225499
-0.213493