# vtk DataFile Version 2.0
Test
ASCII
DATASET POLYDATA
POINTS 1445 float
0.000000 0.000000 0.000000
1.000000 0.000000 0.000000
1.000000 1.000000 0.000000
0.000000 1.000000 0.000000
0.000000 0.400000 0.000000
1.000000 0.600000 0.000000
0.029412 0.000000 0.000000
0.058824 0.000000 0.000000
0.088235 0.000000 0.000000
0.117647 0.000000 0.000000
0.147059 0.000000 0.000000
0.176471 0.000000 0.000000
0.205882 0.000000 0.000000
0.235294 0.000000 0.000000
0.264706 0.000000 0.000000
0.294118 0.000000 0.000000
0.323529 0.000000 0.000000
0.352941 0.000000 0.000000
0.382353 0.000000 0.000000
0.411765 0.000000 0.000000
0.441176 0.000000 0.000000
0.470588 0.000000 0.000000
0.500000 0.000000 0.000000
0.529412 0.000000 0.000000
0.558824 0.000000 0.000000
0.588235 0.000000 0.000000
0.617647 0.000000 0.000000
0.647059 0.000000 0.000000
0.676471 0.000000 0.000000
0.705882 0.000000 0.000000
0.735294 0.000000 0.000000
0.764706 0.000000 0.000000
0.794118 0.000000 0.000000
0.823529 0.000000 0.000000
0.852941 0.000000 0.000000
0.882353 0.000000 0.000000
0.911765 0.000000 0.000000
0.941176 0.000000 0.000000
0.970588 0.000000 0.000000
1.000000 0.030000 0.000000
1.000000 0.060000 0.000000
1.000000 0.090000 0.000000
1.000000 0.120000 0.000000
1.000000 0.150000 0.000000
1.000000 0.180000 0.000000
1.000000 0.210000 0.000000
1.000000 0.240000 0.000000
1.000000 0.270000 0.000000
1.000000 0.300000 0.000000
1.000000 0.330000 0.000000
1.000000 0.360000 0.000000
1.000000 0.390000 0.000000
1.000000 0.420000 0.000000
1.000000 0.450000 0.000000
1.000000 0.480000 0.000000
1.000000 0.510000 0.000000
1.000000 0.540000 0.000000
1.000000 0.570000 0.000000
1.000000 0.628571 0.000000
1.000000 0.657143 0.000000
1.000000 0.685714 0.000000
1.000000 0.714286 0.000000
1.000000 0.742857 0.000000
1.000000 0.771429 0.000000
1.000000 0.800000 0.000000
1.000000 0.828571 0.000000
1.000000 0.857143 0.000000
1.000000 0.885714 0.000000
1.000000 0.914286 0.000000
1.000000 0.942857 0.000000
1.000000 0.971429 0.000000
0.970588 1.000000 0.000000
0.941176 1.000000 0.000000
0.911765 1.000000 0.000000
0.882353 1.000000 0.000000
0.852941 1.000000 0.000000
0.823529 1.000000 0.000000
0.794118 1.000000 0.000000
0.764706 1.000000 0.000000
0.735294 1.000000 0.000000
0.705882 1.000000 0.000000
0.676471 1.000000 0.000000
0.647059 1.000000 0.000000
0.617647 1.000000 0.000000
0.588235 1.000000 0.000000
0.558824 1.000000 0.000000
0.529412 1.000000 0.000000
0.500000 1.000000 0.000000
0.470588 1.000000 0.000000
0.441176 1.000000 0.000000
0.411765 1.000000 0.000000
0.382353 1.000000 0.000000
0.352941 1.000000 0.000000
0.323529 1.000000 0.000000
0.294118 1.000000 0.000000
0.264706 1.000000 0.000000
0.235294 1.000000 0.000000
0.205882 1.000000 0.000000
0.176471 1.000000 0.000000
0.147059 1.000000 0.000000
0.117647 1.000000 0.000000
0.088235 1.000000 0.000000
0.058824 1.000000 0.000000
0.029412 1.000000 0.000000
0.000000 0.970000 0.000000
0.000000 0.940000 0.000000
0.000000 0.910000 0.000000
0.000000 0.880000 0.000000
0.000000 0.850000 0.000000
0.000000 0.820000 0.000000
0.000000 0.790000 0.000000
0.000000 0.760000 0.000000
0.000000 0.730000 0.000000
0.000000 0.700000 0.000000
0.000000 0.670000 0.000000
0.000000 0.640000 0.000000
0.000000 0.610000 0.000000
0.000000 0.580000 0.000000
0.000000 0.550000 0.000000
0.000000 0.520000 0.000000
0.000000 0.490000 0.000000
0.000000 0.460000 0.000000
0.000000 0.430000 0.000000
0.000000 0.371429 0.000000
0.000000 0.342857 0.000000
0.000000 0.314286 0.000000
0.000000 0.285714 0.000000
0.000000 0.257143 0.000000
0.000000 0.228571 0.000000
0.000000 0.200000 0.000000
0.000000 0.171429 0.000000
0.000000 0.142857 0.000000
0.000000 0.114286 0.000000
0.000000 0.085714 0.000000
0.000000 0.057143 0.000000
0.000000 0.028571 0.000000
0.029412 0.405882 0.000000
0.058824 0.411765 0.000000
0.088235 0.417647 0.000000
0.117647 0.423529 0.000000
0.147059 0.429412 0.000000
0.176471 0.435294 0.000000
0.205882 0.441176 0.000000
0.235294 0.447059 0.000000
0.264706 0.452941 0.000000
0.294118 0.458824 0.000000
0.323529 0.464706 0.000000
0.352941 0.470588 0.000000
0.382353 0.476471 0.000000
0.411765 0.482353 0.000000
0.441176 0.488235 0.000000
0.470588 0.494118 0.000000
0.500000 0.500000 0.000000
0.529412 0.505882 0.000000
0.558824 0.511765 0.000000
0.588235 0.517647 0.000000
0.617647 0.523529 0.000000
0.647059 0.529412 0.000000
0.676471 0.535294 0.000000
0.705882 0.541176 0.000000
0.735294 0.547059 0.000000
0.764706 0.552941 0.000000
0.794118 0.558824 0.000000
0.823529 0.564706 0.000000
0.852941 0.570588 0.000000
0.882353 0.576471 0.000000
0.911765 0.582353 0.000000
0.941176 0.588235 0.000000
0.970588 0.594118 0.000000
0.948492 0.617586 0.000000
0.918239 0.609871 0.000000
0.126115 0.454845 0.000000
0.100318 0.465379 0.000000
0.103006 0.442114 0.000000
0.117916 0.480680 0.000000
0.029145 0.895585 0.000000
0.046774 0.918032 0.000000
0.024990 0.926329 0.000000
0.056315 0.899171 0.000000
0.977770 0.695981 0.000000
0.963577 0.714729 0.000000
0.973827 0.736127 0.000000
0.605253 0.549394 0.000000
0.579370 0.549801 0.000000
0.570019 0.533816 0.000000
0.896809 0.971959 0.000000
0.919426 0.957680 0.000000
0.927686 0.976215 0.000000
0.899487 0.944624 0.000000
0.974081 0.924646 0.000000
0.977161 0.898750 0.000000
0.076578 0.973587 0.000000
0.102577 0.974440 0.000000
0.861693 0.698664 0.000000
0.848870 0.723174 0.000000
0.839521 0.701504 0.000000
0.820447 0.720618 0.000000
0.872237 0.675719 0.000000
0.882611 0.694724 0.000000
0.895344 0.672729 0.000000
0.606326 0.947716 0.000000
0.624868 0.973015 0.000000
0.599776 0.977307 0.000000
0.167986 0.944019 0.000000
0.199183 0.948746 0.000000
0.187884 0.972901 0.000000
0.787752 0.856005 0.000000
0.754801 0.854462 0.000000
0.778588 0.832828 0.000000
0.191471 0.922393 0.000000
0.801312 0.812216 0.000000
0.829867 0.817276 0.000000
0.805526 0.837896 0.000000
0.812775 0.791772 0.000000
0.822869 0.769821 0.000000
0.833826 0.791773 0.000000
0.849982 0.772760 0.000000
0.791421 0.791198 0.000000
0.772962 0.808877 0.000000
0.180049 0.621172 0.000000
0.160680 0.621098 0.000000
0.172158 0.598185 0.000000
0.588124 0.962489 0.000000
0.142171 0.602810 0.000000
0.827587 0.748015 0.000000
0.859778 0.745080 0.000000
0.882413 0.743965 0.000000
0.872759 0.762938 0.000000
0.894601 0.765041 0.000000
0.910115 0.745588 0.000000
0.901004 0.726420 0.000000
0.877058 0.719626 0.000000
0.632694 0.945006 0.000000
0.818411 0.883232 0.000000
0.787667 0.883633 0.000000
0.812018 0.862064 0.000000
0.808649 0.907835 0.000000
0.066636 0.534974 0.000000
0.083909 0.552665 0.000000
0.058224 0.565435 0.000000
0.037551 0.542621 0.000000
0.025720 0.565794 0.000000
0.304619 0.971425 0.000000
0.276072 0.975195 0.000000
0.284125 0.946285 0.000000
0.795087 0.737757 0.000000
0.797357 0.768346 0.000000
0.869843 0.656802 0.000000
0.840870 0.648068 0.000000
0.865462 0.630915 0.000000
0.043233 0.441011 0.000000
0.028792 0.469222 0.000000
0.020751 0.443790 0.000000
0.846918 0.676414 0.000000
0.058991 0.463368 0.000000
0.051906 0.966804 0.000000
0.071758 0.947609 0.000000
0.048298 0.939447 0.000000
0.026398 0.956010 0.000000
0.967109 0.949068 0.000000
0.946807 0.928411 0.000000
0.940173 0.953295 0.000000
0.956764 0.974357 0.000000
0.076722 0.471546 0.000000
0.082324 0.449317 0.000000
0.066669 0.435847 0.000000
0.114035 0.946088 0.000000
0.091278 0.952186 0.000000
0.128453 0.974235 0.000000
0.027019 0.501643 0.000000
0.047138 0.487417 0.000000
0.943388 0.639892 0.000000
0.923239 0.630552 0.000000
0.974491 0.618278 0.000000
0.972785 0.673666 0.000000
0.943930 0.664809 0.000000
0.968693 0.642530 0.000000
0.780685 0.976970 0.000000
0.756289 0.951349 0.000000
0.776857 0.951460 0.000000
0.935276 0.890540 0.000000
0.927168 0.867561 0.000000
0.954227 0.882176 0.000000
0.745760 0.974977 0.000000
0.952002 0.907568 0.000000
0.068063 0.489215 0.000000
0.051512 0.513895 0.000000
0.027757 0.982136 0.000000
0.023217 0.525632 0.000000
0.982410 0.972952 0.000000
0.951072 0.692907 0.000000
0.957020 0.857438 0.000000
0.937630 0.840379 0.000000
0.966912 0.834149 0.000000
0.923427 0.933924 0.000000
0.982257 0.848323 0.000000
0.092881 0.488189 0.000000
0.976737 0.871201 0.000000
0.067960 0.921895 0.000000
0.886538 0.603532 0.000000
0.918896 0.656866 0.000000
0.898227 0.636966 0.000000
0.092880 0.930380 0.000000
0.929071 0.911440 0.000000
0.081137 0.510877 0.000000
0.592772 0.576158 0.000000
0.150419 0.835159 0.000000
0.138607 0.859733 0.000000
0.125762 0.835294 0.000000
0.155304 0.458505 0.000000
0.139466 0.476317 0.000000
0.134858 0.496115 0.000000
0.109061 0.504849 0.000000
0.112238 0.859343 0.000000
0.866826 0.974780 0.000000
0.026919 0.865848 0.000000
0.348411 0.871602 0.000000
0.339654 0.840899 0.000000
0.369544 0.848927 0.000000
0.925986 0.818235 0.000000
0.909684 0.842117 0.000000
0.929360 0.717495 0.000000
0.924028 0.685311 0.000000
0.879688 0.955544 0.000000
0.875200 0.929284 0.000000
0.903901 0.918287 0.000000
0.950764 0.819790 0.000000
0.047492 0.878635 0.000000
0.069665 0.880314 0.000000
0.081712 0.904992 0.000000
0.573454 0.980624 0.000000
0.556694 0.550113 0.000000
0.094318 0.530060 0.000000
0.563246 0.571677 0.000000
0.563825 0.961795 0.000000
0.155902 0.972929 0.000000
0.577162 0.940912 0.000000
0.545227 0.533787 0.000000
0.864670 0.884377 0.000000
0.860690 0.911575 0.000000
0.840756 0.895862 0.000000
0.137227 0.926016 0.000000
0.139814 0.950758 0.000000
0.109156 0.913646 0.000000
0.884976 0.899786 0.000000
0.910807 0.890052 0.000000
0.830819 0.844574 0.000000
0.157710 0.484545 0.000000
0.180718 0.468069 0.000000
0.154331 0.510861 0.000000
0.124262 0.522394 0.000000
0.341085 0.732964 0.000000
0.323736 0.758404 0.000000
0.312899 0.730066 0.000000
0.857321 0.949854 0.000000
0.839840 0.975483 0.000000
0.053549 0.857833 0.000000
0.031143 0.832960 0.000000
0.840338 0.925315 0.000000
0.300796 0.756054 0.000000
0.080783 0.856286 0.000000
0.096939 0.884378 0.000000
0.544800 0.977874 0.000000
0.949430 0.731579 0.000000
0.955247 0.752582 0.000000
0.934712 0.748859 0.000000
0.030153 0.591093 0.000000
[...]
POINT_DATA 1445
SCALARS UX float 1
LOOKUP_TABLE default
-0.054733
0.000502
-0.000000
-0.055276
-0.055022
0.000000
-0.053109
-0.051485
-0.049860
-0.048236
-0.046612
-0.044987
-0.043363
-0.041739
-0.040114
-0.038490
-0.036865
-0.035241
-0.033616
-0.031992
-0.030367
-0.028743
-0.027118
-0.025494
-0.023869
-0.022245
-0.020620
-0.018995
-0.017370
-0.015746
-0.014121
-0.012496
-0.010871
-0.009246
-0.007622
-0.005997
-0.004372
-0.002747
-0.001123
0.000502
0.000502
0.000502
0.000502
0.000501
0.000501
0.000501
0.000500
0.000499
0.000498
0.000497
0.000496
0.000494
0.000491
0.000488
0.000483
0.000476
0.000462
0.000419
-0.000000
0.000000
-0.000000
-0.000000
-0.000000
-0.000000
-0.000000
-0.000000
-0.000000
-0.000000
-0.000000
-0.000000
-0.000000
-0.001626
-0.003252
-0.004879
-0.006505
-0.008131
-0.009758
-0.011384
-0.013011
-0.014637
-0.016264
-0.017890
-0.019517
-0.021143
-0.022769
-0.024395
-0.026021
-0.027647
-0.029273
-0.030899
-0.032524
-0.034150
-0.035775
-0.037400
-0.039026
-0.040651
-0.042276
-0.043901
-0.045526
-0.047151
-0.048776
-0.050401
-0.052026
-0.053651
-0.055276
-0.055276
-0.055277
-0.055277
-0.055278
-0.055279
-0.055280
-0.055281
-0.055282
-0.055284
-0.055285
-0.055287
-0.055288
-0.055290
-0.055292
-0.055294
-0.055296
-0.055296
-0.055275
-0.054744
-0.054729
-0.054727
-0.054728
-0.054729
-0.054730
-0.054730
-0.054731
-0.054732
-0.054732
-0.054733
-0.054733
-0.054733
-0.053392
-0.051784
-0.050162
-0.048528
-0.046898
-0.045274
-0.043649
-0.042024
-0.040398
-0.038774
-0.037140
-0.035515
-0.033886
-0.032253
-0.030636
-0.029007
-0.027393
-0.025779
-0.024152
-0.022535
-0.020903
-0.019276
-0.017652
-0.016021
-0.014400
-0.012778
-0.011159
-0.009541
-0.007928
-0.006311
-0.004699
-0.003108
-0.001551
-0.002892
-0.004555
-0.048309
-0.049748
-0.049531
-0.048778
-0.053667
-0.052692
-0.053896
-0.052166
-0.001233
-0.002019
-0.001449
-0.021832
-0.023280
-0.023713
-0.005706
-0.004455
-0.003998
-0.005558
-0.001433
-0.001263
-0.051045
-0.049609
-0.007669
-0.008373
-0.008895
-0.009946
-0.007092
-0.006512
-0.005814
-0.021770
-0.020744
-0.022131
-0.045995
-0.044271
-0.044896
-0.011740
-0.013563
-0.012248
-0.044698
-0.010993
-0.009413
-0.010758
-0.010361
-0.009805
-0.009196
-0.008304
-0.011542
-0.012562
-0.045342
-0.046412
-0.045779
-0.022776
-0.047435
-0.009547
-0.007765
-0.006512
-0.007044
-0.005835
-0.004978
-0.005485
-0.006813
-0.020312
-0.010043
-0.011743
-0.010397
-0.010582
-0.051612
-0.050657
-0.052075
-0.053218
-0.053870
-0.038446
-0.040023
-0.039578
-0.011346
-0.011216
-0.007231
-0.008835
-0.007480
-0.052886
-0.053706
-0.054138
-0.008492
-0.052037
-0.052408
-0.051312
-0.052608
-0.053818
-0.001819
-0.002941
-0.003308
-0.002390
-0.051057
-0.050727
-0.051541
-0.048976
-0.050233
-0.048179
-0.053803
-0.052693
-0.003162
-0.004284
-0.001441
-0.001513
-0.003122
-0.001752
-0.012127
-0.013477
-0.012339
-0.003579
-0.004028
-0.002531
-0.014059
-0.002654
-0.051537
-0.052449
-0.053743
-0.054011
-0.000973
-0.002715
-0.002377
-0.003450
-0.001830
-0.004234
-0.000981
-0.050165
-0.001286
-0.051522
-0.006306
-0.004515
-0.005668
-0.050145
-0.003922
-0.050813
-0.022545
-0.046968
-0.047620
-0.048330
-0.046687
-0.047583
-0.047844
-0.049270
-0.049077
-0.007363
-0.053790
-0.036028
-0.036513
-0.034861
-0.004095
-0.004996
-0.003915
-0.004219
-0.006652
-0.006901
-0.005314
-0.002724
-0.052653
-0.051428
-0.050762
-0.023587
-0.024526
-0.050083
-0.024179
-0.024119
-0.046663
-0.023382
-0.025125
-0.007484
-0.007704
-0.008807
-0.047695
-0.047552
-0.049246
-0.006361
-0.004932
-0.009358
-0.046580
-0.045303
-0.046769
-0.048430
-0.036439
-0.037396
-0.037997
-0.007889
-0.008856
-0.052319
-0.053558
-0.008829
-0.038664
-0.050815
-0.049921
-0.025171
-0.002801
-0.002478
-0.003615
-0.053624
-0.050247
-0.049218
-0.004506
-0.029027
-0.028906
-0.030649
-0.030168
-0.046426
-0.047975
-0.011672
-0.012862
-0.045175
-0.043476
-0.045316
-0.047391
-0.001449
-0.002991
-0.001457
-0.051671
-0.054035
-0.049897
-0.005907
-0.040534
-0.041658
-0.040869
-0.051870
-0.053349
-0.042155
-0.048360
-0.049175
-0.039067
-0.040326
-0.038900
-0.035841
-0.036875
-0.037312
-0.035614
-0.042961
-0.038663
-0.037683
-0.044971
-0.037963
-0.038569
-0.039391
-0.040339
-0.043646
-0.036758
-0.035915
-0.048967
-0.048631
-0.050262
-0.044391
-0.046217
-0.042097
-0.039374
-0.038622
-0.037209
-0.040104
-0.040951
-0.051411
-0.041760
-0.053827
-0.006432
-0.007385
-0.007905
-0.039448
-0.037971
-0.037002
-0.041209
-0.039862
-0.041923
-0.040210
-0.038535
-0.041958
-0.004367
-0.040663
-0.005553
-0.040803
-0.041960
-0.040734
-0.041871
-0.040308
-0.042796
-0.040512
-0.041800
-0.042823
-0.037764
-0.037551
-0.039360
-0.036246
-0.036349
-0.053673
-0.052560
-0.052063
-0.051233
-0.045055
-0.043461
-0.043699
-0.038798
-0.040843
-0.040169
-0.044652
-0.044103
-0.041564
-0.043101
-0.048439
-0.049736
-0.050101
-0.050341
-0.046728
-0.046656
-0.045192
-0.046694
-0.047636
-0.047660
-0.041265
-0.042808
-0.042025
-0.041518
-0.045070
-0.045939
-0.046449
-0.052886
-0.038050
-0.036380
-0.036918
-0.043321
-0.041593
-0.042498
-0.052449
-0.048639
-0.049852
-0.048849
-0.050516
-0.041847
-0.035302
-0.013063
-0.012853
-0.014569
-0.051105
-0.051520
-0.014212
-0.001400
-0.044358
-0.045311
-0.043502
-0.003015
-0.046012
-0.034758
-0.035360
-0.049987
-0.052534
-0.010597
-0.012233
-0.010948
-0.011852
-0.044849
-0.037166
-0.044416
-0.014857
-0.013151
-0.014405
-0.033477
-0.032922
-0.053797
-0.034238
-0.019203
-0.018865
-0.020841
-0.020446
-0.043503
-0.008742
-0.050308
-0.042809
-0.046482
-0.006790
-0.011041
-0.043651
-0.037961
-0.038035
-0.036813
-0.007828
-0.022283
-0.023813
-0.023449
-0.021942
-0.013743
-0.012851
-0.014702
-0.013625
-0.025086
-0.053636
-0.025317
-0.035515
-0.033874
-0.047466
-0.015706
-0.015395
-0.046000
-0.036276
-0.013876
-0.017665
-0.017313
-0.032448
-0.033418
-0.031704
-0.043661
-0.007964
-0.024604
-0.025602
-0.024426
-0.025024
-0.026096
-0.021677
-0.023202
-0.022083
-0.022828
-0.023386
-0.020251
-0.020504
-0.021191
-0.039345
-0.040586
-0.016071
-0.017147
-0.017080
-0.016074
-0.015061
-0.012642
-0.018618
-0.018881
-0.019556
-0.017965
-0.006041
-0.005460
-0.009128
-0.010224
-0.033933
-0.035742
-0.034388
-0.035210
-0.035179
-0.034540
-0.012735
-0.014061
-0.012446
-0.014403
-0.015714
-0.015394
-0.033077
-0.033473
-0.015230
-0.015635
-0.014783
-0.013795
-0.015384
-0.016067
-0.017043
-0.012704
-0.009508
-0.031668
-0.031162
-0.032471
-0.031510
-0.029853
-0.030595
-0.014079
-0.015743
-0.037326
-0.016568
-0.016198
-0.032129
-0.039905
-0.038687
-0.034654
-0.032190
-0.033325
-0.010119
-0.032223
-0.032664
-0.033461
-0.017361
-0.016983
-0.031377
-0.031757
-0.018612
-0.017714
-0.018673
-0.027963
-0.029452
-0.028072
-0.029143
-0.017435
-0.016954
-0.026844
-0.026471
-0.028060
-0.015740
-0.016391
-0.030552
-0.030984
-0.031779
-0.030447
-0.030789
-0.032981
-0.010412
-0.019343
-0.020304
-0.029710
-0.030093
-0.053798
-0.052017
-0.048732
-0.048933
-0.028899
-0.029317
-0.030127
-0.011146
-0.047290
-0.027251
-0.027673
-0.053250
-0.028475
-0.031333
-0.020245
-0.019034
-0.011692
-0.028058
-0.047908
-0.028440
-0.025607
-0.026015
-0.018227
-0.017840
-0.038767
-0.026413
-0.026798
-0.009582
-0.029694
-0.029958
-0.024769
-0.025163
-0.024372
-0.023128
-0.023521
-0.037336
-0.020977
-0.021940
-0.019076
-0.018684
-0.044001
-0.049413
-0.021881
-0.020668
-0.018333
-0.016697
-0.017371
-0.022734
-0.021491
-0.021284
-0.022919
-0.051516
-0.038813
-0.024552
-0.023578
-0.027185
-0.026200
-0.027791
-0.026852
-0.019652
-0.020628
-0.020705
-0.022337
-0.021098
-0.019857
-0.047432
-0.018022
-0.019468
-0.011463
-0.042919
-0.026796
-0.026668
-0.018999
-0.023966
-0.025217
-0.022613
-0.027650
-0.027558
-0.028842
-0.027210
-0.054072
-0.025080
-0.035099
-0.034340
-0.019796
-0.015061
-0.022305
-0.013482
-0.024251
-0.023944
-0.025889
-0.025580
-0.027449
-0.031310
-0.032589
-0.032089
-0.021099
-0.027684
-0.026413
-0.027377
-0.028898
-0.029116
-0.028495
-0.028720
-0.016481
-0.044436
-0.043254
-0.016929
-0.034630
-0.033838
-0.031414
-0.030602
-0.030345
-0.017832
-0.032367
-0.045249
-0.029624
-0.010339
-0.018703
-0.033518
-0.033189
-0.026395
-0.025832
-0.034175
-0.028545
-0.019592
-0.035012
-0.030053
-0.036072
-0.046337
-0.051898
-0.050238
-0.006517
-0.005080
-0.005306
-0.006043
-0.001108
-0.002082
-0.000878
-0.002609
-0.053500
-0.052716
-0.053283
-0.032952
-0.031503
-0.031072
-0.049034
-0.050283
-0.050740
-0.049182
-0.053301
-0.053471
-0.003728
-0.005164
-0.047089
-0.046382
-0.045865
-0.044812
-0.047670
-0.048244
-0.048946
-0.032991
-0.034015
-0.032629
-0.008778
-0.010501
-0.009877
-0.043010
-0.041190
-0.042504
-0.010075
-0.043758
-0.045335
-0.043991
-0.044391
-0.044948
-0.045553
-0.046445
-0.043211
-0.042192
-0.009451
-0.008382
-0.009017
-0.031986
-0.007361
-0.045207
-0.046985
-0.048235
-0.047703
-0.048909
-0.049765
-0.049261
-0.047938
-0.034447
-0.044704
-0.043006
-0.044350
-0.044165
-0.003196
-0.004148
-0.002727
-0.001588
-0.000931
-0.016326
-0.014749
-0.015194
-0.043412
-0.043538
-0.047537
-0.045937
-0.047296
-0.001965
-0.001124
-0.000708
-0.046272
-0.002797
-0.002365
-0.003462
-0.002166
-0.000956
-0.052917
-0.051795
-0.051429
-0.052345
-0.003772
-0.004112
-0.003311
-0.005797
-0.004540
-0.006594
-0.001014
-0.002130
-0.051604
-0.050494
-0.053362
-0.053224
-0.051630
-0.053003
-0.042621
-0.041274
-0.042409
-0.051158
-0.050710
-0.052204
-0.040692
-0.052082
-0.003285
-0.002364
-0.001031
-0.000799
-0.053762
-0.052025
-0.052358
-0.051287
-0.052904
-0.050504
-0.053752
-0.004657
-0.053447
-0.003252
-0.048486
-0.050247
-0.049106
-0.004629
-0.050816
-0.004002
-0.032238
-0.007808
-0.007155
-0.006446
-0.008132
-0.007236
-0.006971
-0.005545
-0.005699
-0.047378
-0.000985
-0.018745
-0.018261
-0.019912
-0.050644
-0.049744
-0.050827
-0.050531
-0.048089
-0.047841
-0.049426
-0.052012
-0.002122
-0.003347
-0.004012
-0.031175
-0.030258
-0.004726
-0.030604
-0.030643
-0.008110
-0.031380
-0.029660
-0.047259
-0.047039
-0.045938
-0.007079
-0.007221
-0.005528
-0.048380
-0.049807
-0.045388
-0.008235
-0.009510
-0.008041
-0.006381
-0.018341
-0.017383
-0.016784
-0.046853
-0.045888
-0.002456
-0.001219
-0.045915
-0.016116
-0.003961
-0.004853
-0.029593
-0.051936
-0.052258
-0.051123
-0.001173
-0.004553
-0.005587
-0.050234
-0.025759
-0.025880
-0.024138
-0.024620
-0.008348
-0.006799
-0.043077
-0.041888
-0.009634
-0.011331
-0.009489
-0.007414
-0.053284
-0.051745
-0.053276
-0.003105
-0.000743
-0.004880
-0.048834
-0.014262
-0.013140
-0.013929
-0.002926
-0.001443
-0.012646
-0.006441
-0.005621
-0.015727
-0.014468
-0.015892
-0.018946
-0.017911
-0.017476
-0.019171
-0.011811
-0.016126
-0.017107
-0.009803
-0.016814
-0.016208
-0.015387
-0.014438
-0.011158
-0.018019
-0.018863
-0.005817
-0.006151
-0.004521
-0.010409
-0.008583
-0.012706
-0.015408
-0.016160
-0.017573
-0.014676
-0.013831
-0.003381
-0.013021
-0.000962
-0.048310
-0.047358
-0.046840
-0.015327
-0.016804
-0.017774
-0.013583
-0.014930
-0.012873
-0.014579
-0.016252
-0.012832
-0.050372
-0.014136
-0.049189
-0.013976
-0.012817
-0.014041
-0.012904
-0.014466
-0.011992
-0.014275
-0.012985
-0.011960
-0.017029
-0.017241
-0.015436
-0.018546
-0.018444
-0.001113
-0.002228
-0.002722
-0.003555
-0.009728
-0.011319
-0.011086
-0.015974
-0.013929
-0.014605
-0.010136
-0.010688
-0.013210
-0.011674
-0.006341
-0.005043
-0.004680
-0.004444
-0.008053
-0.008123
-0.009588
-0.008084
-0.007143
-0.007117
-0.013508
-0.011965
-0.012748
-0.013254
-0.009716
-0.008848
-0.008337
-0.001898
-0.016722
-0.018390
-0.017854
-0.011457
-0.013184
-0.012281
-0.002329
-0.006155
-0.004941
-0.005942
-0.004279
-0.012955
-0.019472
-0.041696
-0.041904
-0.040190
-0.003673
-0.003260
-0.040545
-0.053333
-0.010417
-0.009465
-0.011274
-0.051721
-0.008764
-0.020021
-0.019421
-0.004791
-0.002256
-0.044177
-0.042544
-0.043833
-0.042920
-0.009949
-0.017619
-0.010378
-0.039897
-0.041601
-0.040347
-0.021303
-0.021855
-0.001091
-0.020539
-0.035582
-0.035916
-0.033941
-0.034339
-0.011295
-0.046003
-0.004482
-0.011990
-0.008292
-0.047955
-0.043706
-0.011151
-0.016834
-0.016760
-0.017981
-0.046959
-0.032498
-0.030968
-0.031330
-0.032836
-0.041031
-0.041917
-0.040069
-0.041140
-0.029696
-0.001143
-0.029463
-0.019261
-0.020901
-0.007326
-0.039047
-0.039358
-0.008791
-0.018514
-0.040879
-0.037120
-0.037468
-0.022341
-0.021372
-0.023084
-0.011112
-0.046782
-0.030166
-0.029170
-0.030345
-0.029749
-0.028674
-0.033092
-0.031568
-0.032687
-0.031940
-0.031386
-0.034516
-0.034265
-0.033575
-0.015452
-0.014214
-0.038691
-0.037616
-0.037685
-0.038686
-0.039702
-0.042108
-0.036147
-0.035886
-0.035208
-0.036797
-0.048701
-0.049291
-0.045651
-0.044545
-0.020838
-0.019029
-0.020383
-0.019561
-0.019612
-0.020251
-0.042048
-0.040724
-0.042344
-0.040378
-0.039068
-0.039393
-0.021695
-0.021301
-0.039526
-0.039122
-0.039982
-0.040968
-0.039384
-0.038699
-0.037726
-0.042058
-0.045280
-0.023110
-0.023614
-0.022305
-0.023276
-0.024933
-0.024190
-0.040672
-0.039011
-0.017447
-0.038188
-0.038557
-0.022645
-0.014879
-0.016098
-0.020116
-0.022595
-0.021463
-0.044645
-0.022546
-0.022106
-0.021309
-0.037399
-0.037775
-0.023394
-0.023016
-0.036148
-0.037054
-0.036099
-0.026811
-0.025323
-0.026703
-0.025631
-0.037321
-0.037801
-0.027921
-0.028294
-0.026706
-0.039034
-0.038381
-0.024217
-0.023785
-0.022990
-0.024326
-0.023985
-0.021788
-0.044334
-0.035427
-0.034468
-0.025060
-0.024679
-0.000984
-0.002765
-0.006047
-0.005845
-0.025869
-0.025452
-0.024641
-0.043642
-0.007494
-0.027515
-0.027094
-0.001530
-0.026292
-0.023435
-0.034518
-0.035728
-0.043072
-0.026711
-0.006878
-0.026330
-0.029158
-0.028751
-0.036532
-0.036917
-0.016007
-0.028354
-0.027971
-0.045163
-0.025073
-0.024819
-0.029997
-0.029604
-0.030392
-0.031636
-0.031245
-0.017437
-0.033795
-0.032834
-0.035682
-0.036073
-0.010778
-0.005375
-0.032883
-0.034096
-0.036445
-0.038082
-0.037405
-0.032029
-0.033272
-0.033492
-0.031858
-0.003268
-0.015959
-0.030226
-0.031198
-0.027596
-0.028580
-0.026989
-0.027926
-0.035123
-0.034149
-0.034055
-0.032424
-0.033663
-0.034904
-0.007357
-0.036752
-0.035291
-0.043305
-0.011875
-0.027977
-0.028107
-0.035778
-0.030797
-0.029559
-0.032160
-0.027122
-0.027228
-0.025930
-0.027561
-0.000713
-0.029684
-0.019691
-0.020447
-0.034984
-0.039716
-0.032461
-0.041296
-0.030523
-0.030823
-0.028887
-0.029189
-0.027328
-0.023473
-0.022195
-0.022693
-0.033681
-0.027099
-0.028369
-0.027407
-0.025885
-0.025665
-0.026285
-0.026058
-0.038303
-0.010341
-0.011521
-0.037825
-0.020155
-0.020945
-0.023366
-0.024177
-0.024436
-0.036924
-0.022413
-0.009529
-0.025155
-0.044407
-0.036054
-0.021268
-0.021592
-0.028390
-0.028952
-0.020606
-0.026239
-0.035166
-0.019771
-0.024730
-0.018711
-0.008440
SCALARS UY float 1
LOOKUP_TABLE default
-0.000000
-0.000000
-0.129000
-0.129000
-0.051600
-0.077407
-0.000000
-0.000000
-0.000000
-0.000000
-0.000000
-0.000000
-0.000000
-0.000000
-0.000000
-0.000000
-0.000000
-0.000000
-0.000000
-0.000000
-0.000000
-0.000000
-0.000000
-0.000000
-0.000000
-0.000000
-0.000000
-0.000000
-0.000000
-0.000000
-0.000000
-0.000000
-0.000000
-0.000000
-0.000000
-0.000000
-0.000000
-0.000000
-0.000000
-0.003867
-0.007734
-0.011600
-0.015467
-0.019334
-0.023201
-0.027067
-0.030934
-0.034801
-0.038667
-0.042533
-0.046400
-0.050266
-0.054133
-0.057999
-0.061865
-0.065731
-0.069598
-0.073472
-0.081128
-0.084817
-0.088499
-0.092180
-0.095862
-0.099544
-0.103226
-0.106908
-0.110590
-0.114272
-0.117954
-0.121636
-0.125318
-0.129000
-0.129000
-0.129000
-0.129000
-0.129000
-0.129000
-0.129000
-0.129000
-0.129000
-0.129000
-0.129000
-0.129000
-0.129000
-0.129000
-0.129000
-0.129000
-0.129000
-0.129000
-0.129000
-0.129000
-0.129000
-0.129000
-0.129000
-0.129000
-0.129000
-0.129000
-0.129000
-0.129000
-0.129000
-0.129000
-0.129000
-0.129000
-0.129000
-0.125132
-0.121264
-0.117397
-0.113529
-0.109661
-0.105794
-0.101926
-0.098059
-0.094191
-0.090324
-0.086457
-0.082590
-0.078723
-0.074856
-0.070989
-0.067122
-0.063255
-0.059387
-0.055513
-0.047864
-0.044179
-0.040497
-0.036815
-0.033134
-0.029452
-0.025770
-0.022089
-0.018407
-0.014726
-0.011045
-0.007363
-0.003682
-0.052356
-0.053124
-0.053883
-0.054633
-0.055403
-0.056155
-0.056922
-0.057673
-0.058433
-0.059189
-0.059947
-0.060706
-0.061456
-0.062224
-0.062983
-0.063731
-0.064496
-0.065262
-0.066010
-0.066769
-0.067537
-0.068287
-0.069046
-0.069804
-0.070561
-0.071321
-0.072074
-0.072841
-0.073594
-0.074366
-0.075118
-0.075883
-0.076655
-0.079690
-0.078702
-0.058726
-0.060083
-0.057074
-0.062060
-0.115539
-0.118433
-0.119502
-0.116001
-0.089818
-0.092234
-0.094993
-0.070910
-0.070964
-0.068887
-0.125386
-0.123546
-0.125935
-0.121863
-0.119289
-0.115952
-0.125595
-0.125705
-0.090155
-0.093315
-0.090521
-0.092984
-0.087197
-0.089647
-0.086811
-0.122260
-0.125521
-0.126074
-0.121784
-0.122393
-0.125507
-0.110438
-0.110239
-0.107450
-0.118996
-0.104793
-0.105446
-0.108104
-0.102158
-0.099328
-0.102159
-0.099708
-0.102083
-0.104362
-0.080169
-0.080160
-0.077207
-0.124164
-0.077802
-0.096517
-0.096140
-0.095997
-0.098443
-0.098715
-0.096208
-0.093736
-0.092858
-0.121910
-0.113949
-0.114000
-0.111220
-0.117120
-0.069056
-0.071337
-0.072982
-0.070040
-0.073026
-0.125316
-0.125802
-0.122076
-0.095194
-0.099137
-0.084759
-0.083632
-0.081423
-0.056944
-0.060580
-0.057298
-0.087286
-0.059826
-0.124720
-0.122246
-0.121193
-0.123329
-0.122436
-0.119774
-0.122981
-0.125695
-0.060880
-0.058011
-0.056263
-0.122050
-0.122836
-0.125678
-0.064758
-0.062926
-0.082571
-0.081367
-0.079776
-0.086939
-0.085790
-0.082915
-0.126031
-0.122728
-0.122743
-0.114893
-0.111932
-0.113816
-0.125774
-0.117088
-0.063158
-0.066339
-0.126697
-0.067850
-0.125514
-0.089418
-0.110628
-0.108429
-0.107627
-0.120484
-0.109453
-0.063026
-0.112402
-0.118931
-0.077889
-0.084764
-0.082199
-0.120025
-0.117587
-0.065951
-0.074367
-0.107751
-0.110918
-0.107768
-0.059199
-0.061499
-0.064050
-0.065175
-0.110868
-0.125749
-0.111705
-0.112449
-0.108491
-0.109526
-0.105574
-0.108652
-0.092587
-0.088434
-0.123270
-0.119886
-0.118469
-0.105776
-0.113354
-0.113571
-0.116752
-0.126502
-0.071006
-0.068424
-0.073787
-0.124075
-0.125510
-0.121383
-0.068895
-0.114097
-0.117603
-0.115577
-0.119463
-0.122652
-0.117868
-0.116084
-0.114830
-0.108966
-0.062558
-0.060438
-0.065951
-0.067437
-0.094579
-0.097858
-0.094205
-0.122537
-0.125840
-0.110672
-0.107465
-0.119374
-0.097555
-0.110473
-0.114095
-0.126148
-0.094405
-0.097113
-0.096632
-0.076287
-0.074815
-0.070960
-0.099582
-0.067432
-0.071030
-0.070244
-0.066553
-0.117598
-0.114824
-0.119677
-0.120178
-0.064150
-0.061421
-0.068669
-0.070061
-0.104565
-0.102995
-0.101579
-0.107466
-0.104138
-0.107192
-0.112050
-0.071331
-0.070748
-0.068593
-0.077491
-0.080647
-0.067904
-0.073945
-0.077713
-0.071799
-0.074733
-0.075802
-0.080292
-0.082923
-0.079811
-0.084486
-0.125125
-0.079472
-0.076791
-0.114748
-0.101065
-0.104782
-0.100775
-0.104334
-0.065875
-0.100662
-0.097900
-0.090877
-0.094580
-0.093329
-0.071995
-0.073489
-0.063956
-0.093924
-0.091353
-0.090863
-0.096942
-0.093366
-0.081637
-0.096742
-0.084753
-0.109038
-0.111407
-0.107962
-0.108078
-0.108230
-0.104762
-0.078468
-0.078007
-0.074495
-0.081562
-0.083369
-0.082163
-0.102450
-0.065432
-0.101509
-0.100020
-0.106060
-0.107872
-0.109767
-0.111192
-0.086167
-0.086094
-0.089582
-0.093131
-0.069219
-0.073208
-0.067620
-0.071267
-0.067189
-0.088743
-0.086555
-0.089334
-0.085947
-0.093361
-0.096919
-0.089766
-0.118426
-0.119486
-0.115195
-0.086323
-0.082265
-0.113313
-0.113137
-0.097877
-0.099853
-0.096923
-0.090024
-0.096259
-0.099940
-0.098320
-0.102858
-0.101403
-0.104442
-0.123238
-0.120554
-0.116481
-0.126479
-0.090033
-0.086968
-0.089505
-0.092156
-0.121973
-0.124747
-0.119665
-0.103657
-0.102747
-0.100124
-0.104243
-0.080220
-0.080945
-0.083265
-0.078549
-0.060591
-0.105653
-0.097587
-0.101095
-0.100037
-0.104480
-0.100409
-0.103427
-0.098165
-0.110695
-0.107295
-0.107622
-0.099894
-0.111084
-0.095138
-0.091508
-0.103092
-0.083691
-0.082565
-0.081400
-0.079178
-0.084845
-0.074743
-0.086280
-0.077884
-0.112725
-0.113364
-0.115820
-0.092168
-0.095758
-0.054478
-0.098853
-0.071947
-0.075696
-0.075024
-0.070726
-0.074510
-0.111863
-0.083758
-0.071415
-0.114237
-0.101231
-0.123181
-0.069145
-0.065469
-0.062103