# vtk DataFile Version 2.0
Test
ASCII
DATASET POLYDATA
POINTS 1445 float
0.000000 0.000000 0.000000
1.000000 0.000000 0.000000
1.000000 1.000000 0.000000
0.000000 1.000000 0.000000
0.000000 0.400000 0.000000
1.000000 0.600000 0.000000
0.029412 0.000000 0.000000
0.058824 0.000000 0.000000
0.088235 0.000000 0.000000
0.117647 0.000000 0.000000
0.147059 0.000000 0.000000
0.176471 0.000000 0.000000
0.205882 0.000000 0.000000
0.235294 0.000000 0.000000
0.264706 0.000000 0.000000
0.294118 0.000000 0.000000
0.323529 0.000000 0.000000
0.352941 0.000000 0.000000
0.382353 0.000000 0.000000
0.411765 0.000000 0.000000
0.441176 0.000000 0.000000
0.470588 0.000000 0.000000
0.500000 0.000000 0.000000
0.529412 0.000000 0.000000
0.558824 0.000000 0.000000
0.588235 0.000000 0.000000
0.617647 0.000000 0.000000
0.647059 0.000000 0.000000
0.676471 0.000000 0.000000
0.705882 0.000000 0.000000
0.735294 0.000000 0.000000
0.764706 0.000000 0.000000
0.794118 0.000000 0.000000
0.823529 0.000000 0.000000
0.852941 0.000000 0.000000
0.882353 0.000000 0.000000
0.911765 0.000000 0.000000
0.941176 0.000000 0.000000
0.970588 0.000000 0.000000
1.000000 0.030000 0.000000
1.000000 0.060000 0.000000
1.000000 0.090000 0.000000
1.000000 0.120000 0.000000
1.000000 0.150000 0.000000
1.000000 0.180000 0.000000
1.000000 0.210000 0.000000
1.000000 0.240000 0.000000
1.000000 0.270000 0.000000
1.000000 0.300000 0.000000
1.000000 0.330000 0.000000
1.000000 0.360000 0.000000
1.000000 0.390000 0.000000
1.000000 0.420000 0.000000
1.000000 0.450000 0.000000
1.000000 0.480000 0.000000
1.000000 0.510000 0.000000
1.000000 0.540000 0.000000
1.000000 0.570000 0.000000
1.000000 0.628571 0.000000
1.000000 0.657143 0.000000
1.000000 0.685714 0.000000
1.000000 0.714286 0.000000
1.000000 0.742857 0.000000
1.000000 0.771429 0.000000
1.000000 0.800000 0.000000
1.000000 0.828571 0.000000
1.000000 0.857143 0.000000
1.000000 0.885714 0.000000
1.000000 0.914286 0.000000
1.000000 0.942857 0.000000
1.000000 0.971429 0.000000
0.970588 1.000000 0.000000
0.941176 1.000000 0.000000
0.911765 1.000000 0.000000
0.882353 1.000000 0.000000
0.852941 1.000000 0.000000
0.823529 1.000000 0.000000
0.794118 1.000000 0.000000
0.764706 1.000000 0.000000
0.735294 1.000000 0.000000
0.705882 1.000000 0.000000
0.676471 1.000000 0.000000
0.647059 1.000000 0.000000
0.617647 1.000000 0.000000
0.588235 1.000000 0.000000
0.558824 1.000000 0.000000
0.529412 1.000000 0.000000
0.500000 1.000000 0.000000
0.470588 1.000000 0.000000
0.441176 1.000000 0.000000
0.411765 1.000000 0.000000
0.382353 1.000000 0.000000
0.352941 1.000000 0.000000
0.323529 1.000000 0.000000
0.294118 1.000000 0.000000
0.264706 1.000000 0.000000
0.235294 1.000000 0.000000
0.205882 1.000000 0.000000
0.176471 1.000000 0.000000
0.147059 1.000000 0.000000
0.117647 1.000000 0.000000
0.088235 1.000000 0.000000
0.058824 1.000000 0.000000
0.029412 1.000000 0.000000
0.000000 0.970000 0.000000
0.000000 0.940000 0.000000
0.000000 0.910000 0.000000
0.000000 0.880000 0.000000
0.000000 0.850000 0.000000
0.000000 0.820000 0.000000
0.000000 0.790000 0.000000
0.000000 0.760000 0.000000
0.000000 0.730000 0.000000
0.000000 0.700000 0.000000
0.000000 0.670000 0.000000
0.000000 0.640000 0.000000
0.000000 0.610000 0.000000
0.000000 0.580000 0.000000
0.000000 0.550000 0.000000
0.000000 0.520000 0.000000
0.000000 0.490000 0.000000
0.000000 0.460000 0.000000
0.000000 0.430000 0.000000
0.000000 0.371429 0.000000
0.000000 0.342857 0.000000
0.000000 0.314286 0.000000
0.000000 0.285714 0.000000
0.000000 0.257143 0.000000
0.000000 0.228571 0.000000
0.000000 0.200000 0.000000
0.000000 0.171429 0.000000
0.000000 0.142857 0.000000
0.000000 0.114286 0.000000
0.000000 0.085714 0.000000
0.000000 0.057143 0.000000
0.000000 0.028571 0.000000
0.029412 0.405882 0.000000
0.058824 0.411765 0.000000
0.088235 0.417647 0.000000
0.117647 0.423529 0.000000
0.147059 0.429412 0.000000
0.176471 0.435294 0.000000
0.205882 0.441176 0.000000
0.235294 0.447059 0.000000
0.264706 0.452941 0.000000
0.294118 0.458824 0.000000
0.323529 0.464706 0.000000
0.352941 0.470588 0.000000
0.382353 0.476471 0.000000
0.411765 0.482353 0.000000
0.441176 0.488235 0.000000
0.470588 0.494118 0.000000
0.500000 0.500000 0.000000
0.529412 0.505882 0.000000
0.558824 0.511765 0.000000
0.588235 0.517647 0.000000
0.617647 0.523529 0.000000
0.647059 0.529412 0.000000
0.676471 0.535294 0.000000
0.705882 0.541176 0.000000
0.735294 0.547059 0.000000
0.764706 0.552941 0.000000
0.794118 0.558824 0.000000
0.823529 0.564706 0.000000
0.852941 0.570588 0.000000
0.882353 0.576471 0.000000
0.911765 0.582353 0.000000
0.941176 0.588235 0.000000
0.970588 0.594118 0.000000
0.948492 0.617586 0.000000
0.918239 0.609871 0.000000
0.126115 0.454845 0.000000
0.100318 0.465379 0.000000
0.103006 0.442114 0.000000
0.117916 0.480680 0.000000
0.029145 0.895585 0.000000
0.046774 0.918032 0.000000
0.024990 0.926329 0.000000
0.056315 0.899171 0.000000
0.977770 0.695981 0.000000
0.963577 0.714729 0.000000
0.973827 0.736127 0.000000
0.605253 0.549394 0.000000
0.579370 0.549801 0.000000
0.570019 0.533816 0.000000
0.896809 0.971959 0.000000
0.919426 0.957680 0.000000
0.927686 0.976215 0.000000
0.899487 0.944624 0.000000
0.974081 0.924646 0.000000
0.977161 0.898750 0.000000
0.076578 0.973587 0.000000
0.102577 0.974440 0.000000
0.861693 0.698664 0.000000
0.848870 0.723174 0.000000
0.839521 0.701504 0.000000
0.820447 0.720618 0.000000
0.872237 0.675719 0.000000
0.882611 0.694724 0.000000
0.895344 0.672729 0.000000
0.606326 0.947716 0.000000
0.624868 0.973015 0.000000
0.599776 0.977307 0.000000
0.167986 0.944019 0.000000
0.199183 0.948746 0.000000
0.187884 0.972901 0.000000
0.787752 0.856005 0.000000
0.754801 0.854462 0.000000
0.778588 0.832828 0.000000
0.191471 0.922393 0.000000
0.801312 0.812216 0.000000
0.829867 0.817276 0.000000
0.805526 0.837896 0.000000
0.812775 0.791772 0.000000
0.822869 0.769821 0.000000
0.833826 0.791773 0.000000
0.849982 0.772760 0.000000
0.791421 0.791198 0.000000
0.772962 0.808877 0.000000
0.180049 0.621172 0.000000
0.160680 0.621098 0.000000
0.172158 0.598185 0.000000
0.588124 0.962489 0.000000
0.142171 0.602810 0.000000
0.827587 0.748015 0.000000
0.859778 0.745080 0.000000
0.882413 0.743965 0.000000
0.872759 0.762938 0.000000
0.894601 0.765041 0.000000
0.910115 0.745588 0.000000
0.901004 0.726420 0.000000
0.877058 0.719626 0.000000
0.632694 0.945006 0.000000
0.818411 0.883232 0.000000
0.787667 0.883633 0.000000
0.812018 0.862064 0.000000
0.808649 0.907835 0.000000
0.066636 0.534974 0.000000
0.083909 0.552665 0.000000
0.058224 0.565435 0.000000
0.037551 0.542621 0.000000
0.025720 0.565794 0.000000
0.304619 0.971425 0.000000
0.276072 0.975195 0.000000
0.284125 0.946285 0.000000
0.795087 0.737757 0.000000
0.797357 0.768346 0.000000
0.869843 0.656802 0.000000
0.840870 0.648068 0.000000
0.865462 0.630915 0.000000
0.043233 0.441011 0.000000
0.028792 0.469222 0.000000
0.020751 0.443790 0.000000
0.846918 0.676414 0.000000
0.058991 0.463368 0.000000
0.051906 0.966804 0.000000
0.071758 0.947609 0.000000
0.048298 0.939447 0.000000
0.026398 0.956010 0.000000
0.967109 0.949068 0.000000
0.946807 0.928411 0.000000
0.940173 0.953295 0.000000
0.956764 0.974357 0.000000
0.076722 0.471546 0.000000
0.082324 0.449317 0.000000
0.066669 0.435847 0.000000
0.114035 0.946088 0.000000
0.091278 0.952186 0.000000
0.128453 0.974235 0.000000
0.027019 0.501643 0.000000
0.047138 0.487417 0.000000
0.943388 0.639892 0.000000
0.923239 0.630552 0.000000
0.974491 0.618278 0.000000
0.972785 0.673666 0.000000
0.943930 0.664809 0.000000
0.968693 0.642530 0.000000
0.780685 0.976970 0.000000
0.756289 0.951349 0.000000
0.776857 0.951460 0.000000
0.935276 0.890540 0.000000
0.927168 0.867561 0.000000
0.954227 0.882176 0.000000
0.745760 0.974977 0.000000
0.952002 0.907568 0.000000
0.068063 0.489215 0.000000
0.051512 0.513895 0.000000
0.027757 0.982136 0.000000
0.023217 0.525632 0.000000
0.982410 0.972952 0.000000
0.951072 0.692907 0.000000
0.957020 0.857438 0.000000
0.937630 0.840379 0.000000
0.966912 0.834149 0.000000
0.923427 0.933924 0.000000
0.982257 0.848323 0.000000
0.092881 0.488189 0.000000
0.976737 0.871201 0.000000
0.067960 0.921895 0.000000
0.886538 0.603532 0.000000
0.918896 0.656866 0.000000
0.898227 0.636966 0.000000
0.092880 0.930380 0.000000
0.929071 0.911440 0.000000
0.081137 0.510877 0.000000
0.592772 0.576158 0.000000
0.150419 0.835159 0.000000
0.138607 0.859733 0.000000
0.125762 0.835294 0.000000
0.155304 0.458505 0.000000
0.139466 0.476317 0.000000
0.134858 0.496115 0.000000
0.109061 0.504849 0.000000
0.112238 0.859343 0.000000
0.866826 0.974780 0.000000
0.026919 0.865848 0.000000
0.348411 0.871602 0.000000
0.339654 0.840899 0.000000
0.369544 0.848927 0.000000
0.925986 0.818235 0.000000
0.909684 0.842117 0.000000
0.929360 0.717495 0.000000
0.924028 0.685311 0.000000
0.879688 0.955544 0.000000
0.875200 0.929284 0.000000
0.903901 0.918287 0.000000
0.950764 0.819790 0.000000
0.047492 0.878635 0.000000
0.069665 0.880314 0.000000
0.081712 0.904992 0.000000
0.573454 0.980624 0.000000
0.556694 0.550113 0.000000
0.094318 0.530060 0.000000
0.563246 0.571677 0.000000
0.563825 0.961795 0.000000
0.155902 0.972929 0.000000
0.577162 0.940912 0.000000
0.545227 0.533787 0.000000
0.864670 0.884377 0.000000
0.860690 0.911575 0.000000
0.840756 0.895862 0.000000
0.137227 0.926016 0.000000
0.139814 0.950758 0.000000
0.109156 0.913646 0.000000
0.884976 0.899786 0.000000
0.910807 0.890052 0.000000
0.830819 0.844574 0.000000
0.157710 0.484545 0.000000
0.180718 0.468069 0.000000
0.154331 0.510861 0.000000
0.124262 0.522394 0.000000
0.341085 0.732964 0.000000
0.323736 0.758404 0.000000
0.312899 0.730066 0.000000
0.857321 0.949854 0.000000
0.839840 0.975483 0.000000
0.053549 0.857833 0.000000
0.031143 0.832960 0.000000
0.840338 0.925315 0.000000
0.300796 0.756054 0.000000
0.080783 0.856286 0.000000
0.096939 0.884378 0.000000
0.544800 0.977874 0.000000
0.949430 0.731579 0.000000
0.955247 0.752582 0.000000
0.934712 0.748859 0.000000
0.030153 0.591093 0.000000
[...]
POINT_DATA 1445
SCALARS UX float 1
LOOKUP_TABLE default
-0.189000
-0.000000
0.000000
-0.189000
-0.189000
0.000000
-0.183441
-0.177882
-0.172323
-0.166765
-0.161206
-0.155647
-0.150088
-0.144529
-0.138970
-0.133412
-0.127853
-0.122294
-0.116735
-0.111176
-0.105618
-0.100059
-0.094500
-0.088941
-0.083382
-0.077823
-0.072265
-0.066706
-0.061147
-0.055588
-0.050029
-0.044471
-0.038912
-0.033353
-0.027794
-0.022235
-0.016676
-0.011118
-0.005559
-0.000000
-0.000000
-0.000000
-0.000000
-0.000000
-0.000000
-0.000000
-0.000000
-0.000000
-0.000000
-0.000000
-0.000000
-0.000000
-0.000000
-0.000000
-0.000000
-0.000000
0.000000
0.000000
-0.000000
-0.000000
0.000000
-0.000000
-0.000000
-0.000000
-0.000000
0.000000
-0.000000
0.000000
-0.000000
0.000000
-0.000000
-0.005559
-0.011118
-0.016676
-0.022235
-0.027794
-0.033353
-0.038912
-0.044471
-0.050029
-0.055588
-0.061147
-0.066706
-0.072265
-0.077823
-0.083382
-0.088941
-0.094500
-0.100059
-0.105618
-0.111176
-0.116735
-0.122294
-0.127853
-0.133412
-0.138970
-0.144529
-0.150088
-0.155647
-0.161206
-0.166765
-0.172323
-0.177882
-0.183441
-0.189000
-0.189000
-0.189000
-0.189000
-0.189000
-0.189000
-0.189000
-0.189000
-0.189000
-0.189000
-0.189000
-0.189000
-0.189000
-0.189000
-0.189000
-0.189000
-0.189000
-0.189000
-0.189000
-0.189000
-0.189000
-0.189000
-0.189000
-0.189000
-0.189000
-0.189000
-0.189000
-0.189000
-0.189000
-0.189000
-0.189000
-0.189000
-0.183441
-0.177882
-0.172323
-0.166765
-0.161206
-0.155647
-0.150088
-0.144529
-0.138970
-0.133412
-0.127853
-0.122294
-0.116735
-0.111176
-0.105618
-0.100059
-0.094500
-0.088941
-0.083382
-0.077823
-0.072265
-0.066706
-0.061147
-0.055588
-0.050029
-0.044471
-0.038912
-0.033353
-0.027794
-0.022235
-0.016676
-0.011118
-0.005559
-0.009735
-0.015453
-0.165164
-0.170040
-0.169532
-0.166714
-0.183492
-0.180160
-0.184277
-0.178356
-0.004202
-0.006884
-0.004947
-0.074607
-0.079499
-0.081266
-0.019503
-0.015228
-0.013667
-0.018997
-0.004899
-0.004317
-0.174527
-0.169613
-0.026140
-0.028564
-0.030330
-0.033936
-0.024147
-0.022187
-0.019780
-0.074404
-0.070900
-0.075642
-0.157251
-0.151354
-0.153490
-0.040115
-0.046343
-0.041847
-0.152812
-0.037552
-0.032155
-0.036756
-0.035385
-0.033478
-0.031407
-0.028353
-0.039421
-0.042910
-0.154971
-0.158631
-0.156462
-0.077844
-0.162130
-0.032586
-0.026502
-0.022224
-0.024049
-0.019920
-0.016988
-0.018710
-0.023236
-0.069421
-0.034320
-0.040131
-0.035529
-0.036165
-0.176406
-0.173141
-0.177996
-0.181903
-0.184139
-0.131427
-0.136822
-0.135300
-0.038728
-0.038300
-0.024600
-0.030075
-0.025428
-0.180829
-0.183558
-0.185078
-0.028932
-0.177850
-0.179190
-0.175437
-0.179872
-0.184011
-0.006216
-0.010053
-0.011307
-0.008172
-0.174499
-0.173441
-0.176399
-0.167447
-0.171748
-0.164722
-0.183893
-0.180091
-0.010700
-0.014508
-0.004821
-0.005144
-0.010597
-0.005917
-0.041450
-0.046061
-0.042174
-0.012233
-0.013765
-0.008651
-0.048051
-0.009072
-0.176136
-0.179264
-0.183754
-0.184612
-0.003324
-0.009247
-0.008123
-0.011788
-0.006254
-0.014472
-0.003353
-0.171445
-0.004397
-0.176155
-0.021444
-0.015329
-0.019235
-0.171446
-0.013406
-0.173665
-0.076966
-0.160571
-0.162803
-0.165231
-0.159647
-0.162641
-0.163512
-0.168387
-0.167787
-0.025170
-0.183912
-0.123150
-0.124805
-0.119156
-0.013989
-0.017070
-0.013351
-0.014359
-0.022739
-0.023587
-0.018163
-0.009306
-0.180024
-0.175833
-0.173556
-0.080617
-0.083785
-0.171174
-0.082546
-0.082437
-0.159534
-0.079916
-0.085952
-0.025577
-0.026330
-0.030097
-0.163064
-0.162575
-0.168369
-0.021740
-0.016857
-0.031975
-0.159193
-0.154844
-0.159831
-0.165514
-0.124535
-0.127814
-0.129862
-0.026966
-0.030270
-0.178879
-0.183114
-0.030176
-0.132149
-0.173732
-0.170678
-0.086033
-0.009558
-0.008458
-0.012339
-0.183301
-0.171743
-0.168217
-0.015385
-0.099220
-0.098733
-0.104696
-0.103160
-0.158721
-0.164020
-0.039891
-0.043958
-0.154379
-0.148581
-0.154863
-0.161965
-0.004951
-0.010216
-0.004977
-0.176660
-0.184743
-0.170590
-0.020187
-0.138505
-0.142350
-0.139647
-0.177304
-0.182368
-0.144043
-0.165287
-0.168081
-0.133485
-0.137799
-0.132920
-0.122464
-0.126006
-0.127496
-0.121694
-0.146873
-0.132118
-0.128758
-0.153743
-0.129758
-0.131834
-0.134641
-0.137888
-0.149150
-0.125636
-0.122747
-0.167391
-0.166246
-0.171824
-0.151703
-0.157955
-0.143867
-0.134573
-0.131999
-0.127163
-0.137077
-0.139969
-0.175737
-0.142741
-0.184008
-0.021976
-0.025237
-0.027008
-0.134845
-0.129792
-0.126475
-0.140827
-0.136216
-0.143262
-0.137415
-0.131687
-0.143396
-0.014915
-0.138951
-0.018965
-0.139470
-0.143435
-0.139245
-0.143134
-0.137791
-0.146269
-0.138454
-0.142867
-0.146372
-0.129025
-0.128300
-0.134491
-0.123828
-0.124193
-0.183488
-0.179676
-0.177981
-0.175135
-0.154010
-0.148561
-0.149365
-0.132631
-0.139626
-0.137316
-0.152618
-0.150733
-0.142088
-0.147344
-0.165593
-0.170032
-0.171276
-0.172089
-0.159737
-0.159496
-0.154483
-0.159627
-0.162850
-0.162935
-0.141069
-0.146346
-0.143668
-0.141937
-0.154054
-0.157025
-0.158773
-0.180800
-0.130072
-0.124363
-0.126199
-0.148089
-0.142179
-0.145269
-0.179318
-0.166251
-0.170403
-0.166974
-0.172670
-0.143233
-0.120662
-0.044603
-0.043895
-0.049758
-0.174719
-0.176134
-0.048548
-0.004780
-0.151645
-0.154902
-0.148711
-0.010297
-0.157301
-0.118784
-0.120839
-0.170894
-0.179583
-0.036093
-0.041685
-0.037286
-0.040401
-0.153276
-0.127005
-0.151800
-0.050770
-0.044939
-0.049229
-0.114396
-0.112506
-0.184205
-0.117013
-0.065611
-0.064382
-0.071139
-0.069950
-0.148668
-0.029874
-0.171969
-0.146291
-0.158913
-0.023188
-0.037738
-0.149168
-0.129731
-0.130248
-0.125956
-0.026608
-0.076066
-0.081300
-0.080065
-0.074911
-0.046864
-0.043835
-0.050162
-0.046498
-0.085647
-0.183375
-0.086454
-0.121384
-0.115772
-0.162240
-0.053682
-0.052615
-0.157227
-0.123942
-0.047406
-0.060341
-0.059062
-0.110837
-0.114184
-0.108355
-0.149264
-0.027202
-0.084066
-0.087473
-0.083451
-0.085489
-0.089170
-0.074050
-0.079267
-0.075432
-0.077995
-0.079887
-0.069177
-0.070032
-0.072398
-0.134473
-0.138826
-0.054887
-0.058569
-0.058329
-0.054907
-0.051427
-0.043205
-0.063595
-0.064484
-0.066810
-0.061371
-0.020638
-0.018604
-0.031057
-0.034842
-0.115990
-0.122177
-0.117545
-0.120358
-0.120238
-0.117990
-0.043403
-0.047999
-0.042629
-0.049103
-0.053586
-0.052691
-0.113057
-0.114406
-0.052037
-0.053416
-0.050464
-0.047093
-0.052508
-0.054854
-0.058181
-0.043362
-0.032397
-0.108211
-0.106486
-0.110967
-0.107631
-0.101959
-0.104506
-0.048118
-0.053804
-0.127593
-0.056616
-0.055357
-0.109805
-0.136383
-0.132213
-0.118459
-0.109967
-0.113840
-0.034503
-0.110143
-0.111649
-0.114378
-0.059313
-0.058030
-0.107244
-0.108537
-0.063597
-0.060486
-0.063751
-0.095547
-0.100637
-0.095912
-0.099586
-0.059585
-0.057944
-0.091752
-0.090476
-0.095912
-0.053698
-0.055936
-0.104428
-0.105904
-0.108626
-0.104052
-0.105218
-0.112738
-0.035588
-0.066054
-0.069331
-0.101541
-0.102846
-0.183923
-0.177830
-0.166599
-0.167289
-0.098774
-0.100201
-0.102977
-0.038031
-0.161654
-0.093142
-0.094582
-0.182052
-0.097328
-0.107103
-0.069176
-0.065032
-0.039889
-0.095892
-0.163764
-0.097193
-0.087521
-0.088910
-0.062284
-0.060967
-0.132520
-0.090269
-0.091578
-0.032750
-0.101498
-0.102362
-0.084646
-0.085990
-0.083296
-0.079037
-0.080376
-0.127625
-0.071640
-0.074923
-0.065195
-0.063858
-0.150413
-0.168908
-0.074771
-0.070617
-0.062553
-0.056954
-0.059273
-0.077694
-0.073440
-0.072669
-0.078262
-0.176112
-0.132681
-0.083849
-0.080525
-0.092846
-0.089484
-0.094926
-0.091723
-0.067088
-0.070417
-0.070764
-0.076342
-0.072103
-0.067856
-0.162130
-0.061513
-0.066533
-0.039089
-0.146676
-0.091556
-0.091109
-0.064842
-0.081910
-0.086133
-0.077235
-0.094483
-0.094171
-0.098564
-0.092982
-0.184855
-0.085721
-0.119909
-0.117321
-0.067559
-0.051357
-0.076213
-0.045953
-0.082837
-0.081817
-0.088438
-0.087409
-0.093774
-0.106962
-0.111339
-0.109635
-0.072018
-0.094542
-0.090194
-0.093484
-0.098703
-0.099460
-0.097342
-0.098120
-0.056253
-0.151907
-0.147867
-0.057861
-0.118322
-0.115619
-0.107333
-0.104557
-0.103668
-0.060947
-0.110596
-0.154683
-0.101210
-0.035337
-0.063924
-0.114514
-0.113405
-0.090148
-0.088190
-0.116780
-0.097484
-0.066962
-0.119640
-0.102660
-0.123268
-0.158410
-0.179265
-0.173547
-0.023836
-0.018960
-0.019468
-0.022286
-0.005508
-0.008840
-0.004723
-0.010644
-0.184798
-0.182116
-0.184053
-0.114393
-0.109501
-0.107733
-0.169497
-0.173771
-0.175332
-0.170003
-0.184101
-0.184683
-0.014473
-0.019387
-0.162860
-0.160436
-0.158669
-0.155064
-0.164853
-0.166813
-0.169220
-0.114596
-0.118100
-0.113358
-0.031749
-0.037646
-0.035510
-0.148885
-0.142657
-0.147153
-0.036188
-0.151448
-0.156845
-0.152244
-0.153614
-0.155522
-0.157593
-0.160646
-0.149578
-0.146090
-0.034029
-0.030369
-0.032538
-0.111155
-0.026870
-0.156414
-0.162498
-0.166776
-0.164951
-0.169079
-0.172012
-0.170290
-0.165764
-0.119579
-0.154680
-0.148869
-0.153471
-0.152835
-0.012594
-0.015859
-0.011004
-0.007097
-0.004861
-0.057573
-0.052178
-0.053700
-0.150271
-0.150700
-0.164400
-0.158924
-0.163572
-0.008171
-0.005442
-0.003922
-0.160067
-0.011149
-0.009810
-0.013562
-0.009128
-0.004989
-0.182783
-0.178946
-0.177693
-0.180828
-0.014500
-0.015559
-0.012600
-0.021553
-0.017252
-0.024278
-0.005107
-0.008909
-0.178300
-0.174492
-0.184179
-0.183856
-0.178403
-0.183083
-0.147549
-0.142939
-0.146826
-0.176767
-0.175235
-0.180349
-0.140948
-0.179928
-0.012864
-0.009736
-0.005246
-0.004388
-0.185675
-0.179752
-0.180877
-0.177212
-0.182746
-0.174528
-0.185646
-0.017554
-0.184603
-0.012844
-0.167556
-0.173671
-0.169765
-0.017554
-0.175594
-0.015335
-0.112034
-0.028429
-0.026197
-0.023769
-0.029352
-0.026359
-0.025488
-0.020613
-0.021213
-0.163830
-0.005088
-0.065850
-0.064195
-0.069844
-0.175011
-0.171930
-0.175649
-0.174641
-0.166261
-0.165413
-0.170837
-0.179694
-0.008976
-0.013167
-0.015444
-0.108383
-0.105215
-0.017826
-0.106453
-0.106563
-0.029465
-0.109083
-0.103048
-0.163422
-0.162670
-0.158903
-0.025936
-0.026425
-0.020630
-0.167260
-0.172142
-0.157025
-0.029807
-0.034156
-0.029168
-0.023485
-0.064465
-0.061186
-0.059138
-0.162033
-0.158730
-0.010121
-0.005886
-0.158824
-0.056850
-0.015268
-0.018322
-0.102967
-0.179442
-0.180541
-0.176660
-0.005699
-0.017257
-0.020783
-0.173615
-0.089780
-0.090267
-0.084304
-0.085839
-0.030279
-0.024980
-0.149109
-0.145041
-0.034620
-0.040419
-0.034137
-0.027035
-0.184049
-0.178784
-0.184023
-0.012340
-0.004256
-0.018410
-0.168813
-0.050494
-0.046650
-0.049353
-0.011696
-0.006632
-0.044957
-0.023713
-0.020919
-0.055515
-0.051201
-0.056080
-0.066536
-0.062994
-0.061504
-0.067305
-0.042127
-0.056882
-0.060242
-0.035256
-0.059242
-0.057166
-0.054359
-0.051112
-0.039849
-0.063364
-0.066253
-0.021609
-0.022754
-0.017176
-0.037296
-0.031045
-0.045132
-0.054427
-0.057001
-0.061836
-0.051923
-0.049031
-0.013262
-0.046259
-0.004992
-0.167024
-0.163763
-0.161991
-0.054155
-0.059208
-0.062525
-0.048172
-0.052784
-0.045738
-0.051585
-0.057313
-0.045604
-0.174085
-0.050049
-0.170035
-0.049530
-0.045565
-0.049754
-0.045865
-0.051209
-0.042731
-0.050546
-0.046133
-0.042628
-0.059975
-0.060700
-0.054509
-0.065172
-0.064807
-0.005511
-0.009324
-0.011019
-0.013865
-0.034990
-0.040439
-0.039635
-0.056369
-0.049374
-0.051683
-0.036381
-0.038267
-0.046912
-0.041656
-0.023407
-0.018968
-0.017723
-0.016910
-0.029263
-0.029504
-0.034516
-0.029373
-0.026150
-0.026065
-0.047931
-0.042654
-0.045332
-0.047063
-0.034946
-0.031975
-0.030227
-0.008200
-0.058927
-0.064637
-0.062801
-0.040911
-0.046821
-0.043731
-0.009682
-0.022749
-0.018597
-0.022025
-0.016330
-0.045767
-0.068338
-0.144397
-0.145105
-0.139241
-0.014281
-0.012866
-0.140452
-0.184220
-0.037355
-0.034098
-0.040289
-0.178703
-0.031699
-0.070216
-0.068161
-0.018106
-0.009417
-0.152907
-0.147315
-0.151713
-0.148599
-0.035724
-0.061994
-0.037200
-0.138230
-0.144061
-0.139771
-0.074604
-0.076494
-0.004795
-0.071987
-0.123389
-0.124617
-0.117860
-0.119050
-0.040332
-0.159125
-0.017031
-0.042709
-0.030087
-0.165812
-0.151262
-0.039831
-0.059269
-0.058751
-0.063044
-0.162392
-0.112933
-0.107700
-0.108935
-0.114089
-0.142136
-0.145165
-0.138838
-0.142502
-0.103353
-0.005625
-0.102546
-0.067616
-0.073228
-0.026760
-0.135318
-0.136385
-0.031773
-0.065058
-0.141594
-0.128659
-0.129938
-0.078163
-0.074815
-0.080645
-0.039736
-0.161797
-0.104934
-0.101526
-0.105549
-0.103510
-0.099830
-0.114950
-0.109733
-0.113567
-0.111005
-0.109113
-0.119823
-0.118968
-0.116602
-0.054527
-0.050174
-0.134113
-0.130431
-0.130671
-0.134092
-0.137573
-0.145795
-0.125404
-0.124516
-0.122190
-0.127629
-0.168362
-0.170396
-0.157943
-0.154158
-0.073010
-0.066823
-0.071455
-0.068642
-0.068762
-0.071010
-0.145596
-0.141001
-0.146371
-0.139897
-0.135414
-0.136309
-0.075942
-0.074594
-0.136963
-0.135583
-0.138536
-0.141906
-0.136492
-0.134146
-0.130819
-0.145638
-0.156603
-0.080789
-0.082514
-0.078032
-0.081369
-0.087041
-0.084494
-0.140882
-0.135195
-0.061407
-0.132384
-0.133643
-0.079195
-0.052617
-0.056787
-0.070541
-0.079033
-0.075159
-0.154497
-0.078857
-0.077351
-0.074622
-0.129687
-0.130970
-0.081756
-0.080463
-0.125403
-0.128514
-0.125249
-0.093453
-0.088363
-0.093087
-0.089414
-0.129414
-0.131056
-0.097248
-0.098523
-0.093088
-0.135301
-0.133064
-0.084572
-0.083096
-0.080373
-0.084948
-0.083782
-0.076261
-0.153412
-0.122946
-0.119669
-0.087458
-0.086154
-0.005077
-0.011170
-0.022401
-0.021711
-0.090225
-0.088799
-0.086023
-0.150968
-0.027346
-0.095857
-0.094418
-0.006948
-0.091672
-0.081897
-0.119824
-0.123968
-0.149111
-0.093108
-0.025236
-0.091806
-0.101479
-0.100090
-0.126716
-0.128033
-0.056480
-0.098731
-0.097422
-0.156250
-0.087502
-0.086637
-0.104354
-0.103010
-0.105704
-0.109963
-0.108624
-0.061375
-0.117360
-0.114077
-0.123805
-0.125142
-0.038587
-0.020092
-0.114229
-0.118383
-0.126447
-0.132046
-0.129726
-0.111306
-0.115560
-0.116331
-0.110738
-0.012888
-0.056319
-0.105151
-0.108475
-0.096154
-0.099516
-0.094073
-0.097277
-0.121912
-0.118583
-0.118236
-0.112658
-0.116897
-0.121144
-0.026870
-0.127487
-0.122467
-0.149911
-0.042324
-0.097443
-0.097891
-0.124157
-0.107090
-0.102867
-0.111764
-0.094517
-0.094829
-0.090436
-0.096017
-0.004145
-0.103279
-0.069091
-0.071679
-0.121441
-0.137642
-0.112786
-0.143047
-0.106163
-0.107183
-0.100562
-0.101591
-0.095226
-0.082037
-0.077660
-0.079365
-0.116981
-0.094457
-0.098806
-0.095515
-0.090296
-0.089540
-0.091658
-0.090880
-0.132746
-0.037093
-0.041133
-0.131138
-0.070677
-0.073380
-0.081666
-0.084443
-0.085332
-0.128053
-0.078404
-0.034316
-0.087790
-0.153663
-0.125076
-0.074486
-0.075594
-0.098852
-0.100810
-0.072220
-0.091515
-0.122038
-0.069360
-0.086340
-0.065731
-0.030590
SCALARS UY float 1
LOOKUP_TABLE default
-0.000000
-0.000000
-0.441000
-0.441000
-0.176400
-0.264600
-0.000000
-0.000000
-0.000000
-0.000000
-0.000000
-0.000000
-0.000000
-0.000000
-0.000000
-0.000000
-0.000000
-0.000000
-0.000000
-0.000000
-0.000000
-0.000000
-0.000000
-0.000000
-0.000000
-0.000000
-0.000000
-0.000000
-0.000000
-0.000000
-0.000000
-0.000000
-0.000000
-0.000000
-0.000000
-0.000000
-0.000000
-0.000000
-0.000000
-0.013230
-0.026460
-0.039690
-0.052920
-0.066150
-0.079380
-0.092610
-0.105840
-0.119070
-0.132300
-0.145530
-0.158760
-0.171990
-0.185220
-0.198450
-0.211680
-0.224910
-0.238140
-0.251370
-0.277200
-0.289800
-0.302400
-0.315000
-0.327600
-0.340200
-0.352800
-0.365400
-0.378000
-0.390600
-0.403200
-0.415800
-0.428400
-0.441000
-0.441000
-0.441000
-0.441000
-0.441000
-0.441000
-0.441000
-0.441000
-0.441000
-0.441000
-0.441000
-0.441000
-0.441000
-0.441000
-0.441000
-0.441000
-0.441000
-0.441000
-0.441000
-0.441000
-0.441000
-0.441000
-0.441000
-0.441000
-0.441000
-0.441000
-0.441000
-0.441000
-0.441000
-0.441000
-0.441000
-0.441000
-0.441000
-0.427770
-0.414540
-0.401310
-0.388080
-0.374850
-0.361620
-0.348390
-0.335160
-0.321930
-0.308700
-0.295470
-0.282240
-0.269010
-0.255780
-0.242550
-0.229320
-0.216090
-0.202860
-0.189630
-0.163800
-0.151200
-0.138600
-0.126000
-0.113400
-0.100800
-0.088200
-0.075600
-0.063000
-0.050400
-0.037800
-0.025200
-0.012600
-0.178994
-0.181588
-0.184182
-0.186777
-0.189371
-0.191965
-0.194559
-0.197153
-0.199747
-0.202341
-0.204935
-0.207529
-0.210124
-0.212718
-0.215312
-0.217906
-0.220500
-0.223094
-0.225688
-0.228282
-0.230876
-0.233471
-0.236065
-0.238659
-0.241253
-0.243847
-0.246441
-0.249035
-0.251629
-0.254223
-0.256818
-0.259412
-0.262006
-0.272355
-0.268953
-0.200587
-0.205232
-0.194972
-0.211980
-0.394953
-0.404852
-0.408511
-0.396534
-0.306928
-0.315195
-0.324632
-0.242283
-0.242462
-0.235413
-0.428634
-0.422337
-0.430511
-0.416579
-0.407769
-0.396349
-0.429352
-0.429728
-0.308111
-0.318920
-0.309363
-0.317793
-0.297992
-0.306373
-0.296674
-0.417943
-0.429099
-0.430992
-0.416312
-0.418397
-0.429049
-0.377498
-0.376818
-0.367277
-0.406775
-0.358187
-0.360419
-0.369512
-0.349171
-0.339491
-0.349172
-0.340787
-0.348918
-0.356715
-0.273937
-0.273904
-0.263800
-0.424457
-0.265839
-0.329874
-0.328580
-0.328089
-0.336456
-0.337383
-0.328804
-0.320351
-0.317355
-0.416748
-0.389505
-0.389682
-0.380170
-0.400355
-0.235923
-0.243725
-0.249357
-0.239296
-0.249515
-0.428398
-0.430061
-0.417312
-0.325351
-0.338841
-0.289650
-0.285798
-0.278233
-0.194486
-0.206927
-0.195711
-0.298299
-0.204345
-0.426360
-0.417895
-0.414296
-0.421600
-0.418539
-0.409429
-0.420403
-0.429691
-0.207952
-0.198149
-0.192209
-0.417224
-0.419914
-0.429637
-0.221224
-0.214951
-0.282192
-0.278073
-0.272661
-0.297087
-0.293181
-0.283356
-0.430844
-0.419544
-0.419594
-0.392728
-0.382594
-0.389040
-0.429965
-0.400237
-0.215744
-0.226628
-0.433122
-0.231804
-0.429072
-0.305572
-0.378130
-0.370607
-0.367860
-0.411860
-0.374110
-0.215292
-0.384199
-0.406556
-0.266158
-0.289678
-0.280902
-0.410297
-0.401945
-0.225297
-0.254085
-0.368305
-0.379142
-0.368364
-0.202201
-0.210056
-0.218787
-0.222638
-0.378970
-0.429878
-0.381839
-0.384376
-0.370836
-0.374377
-0.360842
-0.371373
-0.316415
-0.302222
-0.421395
-0.409814
-0.404964
-0.361527
-0.387478
-0.388218
-0.399101
-0.432455
-0.242600
-0.233757
-0.252110
-0.424151
-0.429061
-0.414942
-0.235400
-0.390010
-0.402004
-0.395075
-0.408373
-0.419284
-0.402918
-0.396805
-0.392513
-0.372457
-0.213684
-0.206418
-0.225289
-0.230376
-0.323237
-0.334456
-0.321959
-0.418886
-0.430188
-0.378304
-0.367335
-0.408064
-0.333420
-0.377622
-0.390011
-0.431242
-0.322626
-0.331888
-0.330247
-0.260672
-0.255625
-0.242431
-0.340341
-0.230378
-0.242673
-0.239978
-0.227372
-0.401995
-0.392503
-0.409105
-0.410820
-0.219122
-0.209786
-0.234585
-0.239352
-0.357383
-0.352014
-0.347164
-0.367334
-0.355952
-0.366396
-0.383001
-0.243693
-0.241697
-0.234327
-0.264783
-0.275588
-0.231965
-0.252643
-0.265537
-0.245292
-0.255332
-0.258990
-0.274356
-0.283359
-0.272707
-0.288705
-0.427744
-0.271549
-0.262375
-0.392242
-0.345431
-0.358146
-0.344435
-0.356612
-0.225021
-0.344049
-0.334601
-0.310576
-0.323245
-0.318967
-0.245966
-0.251079
-0.218459
-0.320998
-0.312199
-0.310524
-0.331324
-0.319086
-0.278968
-0.330640
-0.289637
-0.372699
-0.380807
-0.369019
-0.369421
-0.369942
-0.358077
-0.268113
-0.266536
-0.254519
-0.278699
-0.284884
-0.280756
-0.350153
-0.223516
-0.346939
-0.341853
-0.362517
-0.368718
-0.375201
-0.380076
-0.294457
-0.294206
-0.306142
-0.318284
-0.236466
-0.250116
-0.230990
-0.243477
-0.229529
-0.303288
-0.295797
-0.305306
-0.293714
-0.319073
-0.331245
-0.306772
-0.404826
-0.408450
-0.393772
-0.294991
-0.281106
-0.387334
-0.386731
-0.334525
-0.341287
-0.331265
-0.307660
-0.328989
-0.341582
-0.336039
-0.351567
-0.346588
-0.356986
-0.421286
-0.412104
-0.398172
-0.432375
-0.307685
-0.297200
-0.305880
-0.314959
-0.416958
-0.426451
-0.409063
-0.354299
-0.351183
-0.342211
-0.356311
-0.274115
-0.276599
-0.284533
-0.268401
-0.207014
-0.361125
-0.333539
-0.345539
-0.341920
-0.357120
-0.343191
-0.353516
-0.335481
-0.378376
-0.366746
-0.367864
-0.341404
-0.379709
-0.325151
-0.312732
-0.352370
-0.286000
-0.282148
-0.278163
-0.270557
-0.289952
-0.255367
-0.294844
-0.266116
-0.385325
-0.387508
-0.395910
-0.314991
-0.327272
-0.186135
-0.337863
-0.245816
-0.258633
-0.256336
-0.241654
-0.254571
-0.382367
-0.286221
-0.243980
-0.390495
-0.345991
-0.421091
-0.236212
-0.223635