# vtk DataFile Version 2.0
Test
ASCII
DATASET POLYDATA
POINTS 1445 float
0.000000 0.000000 0.000000
1.000000 0.000000 0.000000
1.000000 1.000000 0.000000
0.000000 1.000000 0.000000
0.000000 0.400000 0.000000
1.000000 0.600000 0.000000
0.029412 0.000000 0.000000
0.058824 0.000000 0.000000
0.088235 0.000000 0.000000
0.117647 0.000000 0.000000
0.147059 0.000000 0.000000
0.176471 0.000000 0.000000
0.205882 0.000000 0.000000
0.235294 0.000000 0.000000
0.264706 0.000000 0.000000
0.294118 0.000000 0.000000
0.323529 0.000000 0.000000
0.352941 0.000000 0.000000
0.382353 0.000000 0.000000
0.411765 0.000000 0.000000
0.441176 0.000000 0.000000
0.470588 0.000000 0.000000
0.500000 0.000000 0.000000
0.529412 0.000000 0.000000
0.558824 0.000000 0.000000
0.588235 0.000000 0.000000
0.617647 0.000000 0.000000
0.647059 0.000000 0.000000
0.676471 0.000000 0.000000
0.705882 0.000000 0.000000
0.735294 0.000000 0.000000
0.764706 0.000000 0.000000
0.794118 0.000000 0.000000
0.823529 0.000000 0.000000
0.852941 0.000000 0.000000
0.882353 0.000000 0.000000
0.911765 0.000000 0.000000
0.941176 0.000000 0.000000
0.970588 0.000000 0.000000
1.000000 0.030000 0.000000
1.000000 0.060000 0.000000
1.000000 0.090000 0.000000
1.000000 0.120000 0.000000
1.000000 0.150000 0.000000
1.000000 0.180000 0.000000
1.000000 0.210000 0.000000
1.000000 0.240000 0.000000
1.000000 0.270000 0.000000
1.000000 0.300000 0.000000
1.000000 0.330000 0.000000
1.000000 0.360000 0.000000
1.000000 0.390000 0.000000
1.000000 0.420000 0.000000
1.000000 0.450000 0.000000
1.000000 0.480000 0.000000
1.000000 0.510000 0.000000
1.000000 0.540000 0.000000
1.000000 0.570000 0.000000
1.000000 0.628571 0.000000
1.000000 0.657143 0.000000
1.000000 0.685714 0.000000
1.000000 0.714286 0.000000
1.000000 0.742857 0.000000
1.000000 0.771429 0.000000
1.000000 0.800000 0.000000
1.000000 0.828571 0.000000
1.000000 0.857143 0.000000
1.000000 0.885714 0.000000
1.000000 0.914286 0.000000
1.000000 0.942857 0.000000
1.000000 0.971429 0.000000
0.970588 1.000000 0.000000
0.941176 1.000000 0.000000
0.911765 1.000000 0.000000
0.882353 1.000000 0.000000
0.852941 1.000000 0.000000
0.823529 1.000000 0.000000
0.794118 1.000000 0.000000
0.764706 1.000000 0.000000
0.735294 1.000000 0.000000
0.705882 1.000000 0.000000
0.676471 1.000000 0.000000
0.647059 1.000000 0.000000
0.617647 1.000000 0.000000
0.588235 1.000000 0.000000
0.558824 1.000000 0.000000
0.529412 1.000000 0.000000
0.500000 1.000000 0.000000
0.470588 1.000000 0.000000
0.441176 1.000000 0.000000
0.411765 1.000000 0.000000
0.382353 1.000000 0.000000
0.352941 1.000000 0.000000
0.323529 1.000000 0.000000
0.294118 1.000000 0.000000
0.264706 1.000000 0.000000
0.235294 1.000000 0.000000
0.205882 1.000000 0.000000
0.176471 1.000000 0.000000
0.147059 1.000000 0.000000
0.117647 1.000000 0.000000
0.088235 1.000000 0.000000
0.058824 1.000000 0.000000
0.029412 1.000000 0.000000
0.000000 0.970000 0.000000
0.000000 0.940000 0.000000
0.000000 0.910000 0.000000
0.000000 0.880000 0.000000
0.000000 0.850000 0.000000
0.000000 0.820000 0.000000
0.000000 0.790000 0.000000
0.000000 0.760000 0.000000
0.000000 0.730000 0.000000
0.000000 0.700000 0.000000
0.000000 0.670000 0.000000
0.000000 0.640000 0.000000
0.000000 0.610000 0.000000
0.000000 0.580000 0.000000
0.000000 0.550000 0.000000
0.000000 0.520000 0.000000
0.000000 0.490000 0.000000
0.000000 0.460000 0.000000
0.000000 0.430000 0.000000
0.000000 0.371429 0.000000
0.000000 0.342857 0.000000
0.000000 0.314286 0.000000
0.000000 0.285714 0.000000
0.000000 0.257143 0.000000
0.000000 0.228571 0.000000
0.000000 0.200000 0.000000
0.000000 0.171429 0.000000
0.000000 0.142857 0.000000
0.000000 0.114286 0.000000
0.000000 0.085714 0.000000
0.000000 0.057143 0.000000
0.000000 0.028571 0.000000
0.029412 0.405882 0.000000
0.058824 0.411765 0.000000
0.088235 0.417647 0.000000
0.117647 0.423529 0.000000
0.147059 0.429412 0.000000
0.176471 0.435294 0.000000
0.205882 0.441176 0.000000
0.235294 0.447059 0.000000
0.264706 0.452941 0.000000
0.294118 0.458824 0.000000
0.323529 0.464706 0.000000
0.352941 0.470588 0.000000
0.382353 0.476471 0.000000
0.411765 0.482353 0.000000
0.441176 0.488235 0.000000
0.470588 0.494118 0.000000
0.500000 0.500000 0.000000
0.529412 0.505882 0.000000
0.558824 0.511765 0.000000
0.588235 0.517647 0.000000
0.617647 0.523529 0.000000
0.647059 0.529412 0.000000
0.676471 0.535294 0.000000
0.705882 0.541176 0.000000
0.735294 0.547059 0.000000
0.764706 0.552941 0.000000
0.794118 0.558824 0.000000
0.823529 0.564706 0.000000
0.852941 0.570588 0.000000
0.882353 0.576471 0.000000
0.911765 0.582353 0.000000
0.941176 0.588235 0.000000
0.970588 0.594118 0.000000
0.948492 0.617586 0.000000
0.918239 0.609871 0.000000
0.126115 0.454845 0.000000
0.100318 0.465379 0.000000
0.103006 0.442114 0.000000
0.117916 0.480680 0.000000
0.029145 0.895585 0.000000
0.046774 0.918032 0.000000
0.024990 0.926329 0.000000
0.056315 0.899171 0.000000
0.977770 0.695981 0.000000
0.963577 0.714729 0.000000
0.973827 0.736127 0.000000
0.605253 0.549394 0.000000
0.579370 0.549801 0.000000
0.570019 0.533816 0.000000
0.896809 0.971959 0.000000
0.919426 0.957680 0.000000
0.927686 0.976215 0.000000
0.899487 0.944624 0.000000
0.974081 0.924646 0.000000
0.977161 0.898750 0.000000
0.076578 0.973587 0.000000
0.102577 0.974440 0.000000
0.861693 0.698664 0.000000
0.848870 0.723174 0.000000
0.839521 0.701504 0.000000
0.820447 0.720618 0.000000
0.872237 0.675719 0.000000
0.882611 0.694724 0.000000
0.895344 0.672729 0.000000
0.606326 0.947716 0.000000
0.624868 0.973015 0.000000
0.599776 0.977307 0.000000
0.167986 0.944019 0.000000
0.199183 0.948746 0.000000
0.187884 0.972901 0.000000
0.787752 0.856005 0.000000
0.754801 0.854462 0.000000
0.778588 0.832828 0.000000
0.191471 0.922393 0.000000
0.801312 0.812216 0.000000
0.829867 0.817276 0.000000
0.805526 0.837896 0.000000
0.812775 0.791772 0.000000
0.822869 0.769821 0.000000
0.833826 0.791773 0.000000
0.849982 0.772760 0.000000
0.791421 0.791198 0.000000
0.772962 0.808877 0.000000
0.180049 0.621172 0.000000
0.160680 0.621098 0.000000
0.172158 0.598185 0.000000
0.588124 0.962489 0.000000
0.142171 0.602810 0.000000
0.827587 0.748015 0.000000
0.859778 0.745080 0.000000
0.882413 0.743965 0.000000
0.872759 0.762938 0.000000
0.894601 0.765041 0.000000
0.910115 0.745588 0.000000
0.901004 0.726420 0.000000
0.877058 0.719626 0.000000
0.632694 0.945006 0.000000
0.818411 0.883232 0.000000
0.787667 0.883633 0.000000
0.812018 0.862064 0.000000
0.808649 0.907835 0.000000
0.066636 0.534974 0.000000
0.083909 0.552665 0.000000
0.058224 0.565435 0.000000
0.037551 0.542621 0.000000
0.025720 0.565794 0.000000
0.304619 0.971425 0.000000
0.276072 0.975195 0.000000
0.284125 0.946285 0.000000
0.795087 0.737757 0.000000
0.797357 0.768346 0.000000
0.869843 0.656802 0.000000
0.840870 0.648068 0.000000
0.865462 0.630915 0.000000
0.043233 0.441011 0.000000
0.028792 0.469222 0.000000
0.020751 0.443790 0.000000
0.846918 0.676414 0.000000
0.058991 0.463368 0.000000
0.051906 0.966804 0.000000
0.071758 0.947609 0.000000
0.048298 0.939447 0.000000
0.026398 0.956010 0.000000
0.967109 0.949068 0.000000
0.946807 0.928411 0.000000
0.940173 0.953295 0.000000
0.956764 0.974357 0.000000
0.076722 0.471546 0.000000
0.082324 0.449317 0.000000
0.066669 0.435847 0.000000
0.114035 0.946088 0.000000
0.091278 0.952186 0.000000
0.128453 0.974235 0.000000
0.027019 0.501643 0.000000
0.047138 0.487417 0.000000
0.943388 0.639892 0.000000
0.923239 0.630552 0.000000
0.974491 0.618278 0.000000
0.972785 0.673666 0.000000
0.943930 0.664809 0.000000
0.968693 0.642530 0.000000
0.780685 0.976970 0.000000
0.756289 0.951349 0.000000
0.776857 0.951460 0.000000
0.935276 0.890540 0.000000
0.927168 0.867561 0.000000
0.954227 0.882176 0.000000
0.745760 0.974977 0.000000
0.952002 0.907568 0.000000
0.068063 0.489215 0.000000
0.051512 0.513895 0.000000
0.027757 0.982136 0.000000
0.023217 0.525632 0.000000
0.982410 0.972952 0.000000
0.951072 0.692907 0.000000
0.957020 0.857438 0.000000
0.937630 0.840379 0.000000
0.966912 0.834149 0.000000
0.923427 0.933924 0.000000
0.982257 0.848323 0.000000
0.092881 0.488189 0.000000
0.976737 0.871201 0.000000
0.067960 0.921895 0.000000
0.886538 0.603532 0.000000
0.918896 0.656866 0.000000
0.898227 0.636966 0.000000
0.092880 0.930380 0.000000
0.929071 0.911440 0.000000
0.081137 0.510877 0.000000
0.592772 0.576158 0.000000
0.150419 0.835159 0.000000
0.138607 0.859733 0.000000
0.125762 0.835294 0.000000
0.155304 0.458505 0.000000
0.139466 0.476317 0.000000
0.134858 0.496115 0.000000
0.109061 0.504849 0.000000
0.112238 0.859343 0.000000
0.866826 0.974780 0.000000
0.026919 0.865848 0.000000
0.348411 0.871602 0.000000
0.339654 0.840899 0.000000
0.369544 0.848927 0.000000
0.925986 0.818235 0.000000
0.909684 0.842117 0.000000
0.929360 0.717495 0.000000
0.924028 0.685311 0.000000
0.879688 0.955544 0.000000
0.875200 0.929284 0.000000
0.903901 0.918287 0.000000
0.950764 0.819790 0.000000
0.047492 0.878635 0.000000
0.069665 0.880314 0.000000
0.081712 0.904992 0.000000
0.573454 0.980624 0.000000
0.556694 0.550113 0.000000
0.094318 0.530060 0.000000
0.563246 0.571677 0.000000
0.563825 0.961795 0.000000
0.155902 0.972929 0.000000
0.577162 0.940912 0.000000
0.545227 0.533787 0.000000
0.864670 0.884377 0.000000
0.860690 0.911575 0.000000
0.840756 0.895862 0.000000
0.137227 0.926016 0.000000
0.139814 0.950758 0.000000
0.109156 0.913646 0.000000
0.884976 0.899786 0.000000
0.910807 0.890052 0.000000
0.830819 0.844574 0.000000
0.157710 0.484545 0.000000
0.180718 0.468069 0.000000
0.154331 0.510861 0.000000
0.124262 0.522394 0.000000
0.341085 0.732964 0.000000
0.323736 0.758404 0.000000
0.312899 0.730066 0.000000
0.857321 0.949854 0.000000
0.839840 0.975483 0.000000
0.053549 0.857833 0.000000
0.031143 0.832960 0.000000
0.840338 0.925315 0.000000
0.300796 0.756054 0.000000
0.080783 0.856286 0.000000
0.096939 0.884378 0.000000
0.544800 0.977874 0.000000
0.949430 0.731579 0.000000
0.955247 0.752582 0.000000
0.934712 0.748859 0.000000
0.030153 0.591093 0.000000
[...]
POINT_DATA 1445
SCALARS UX float 1
LOOKUP_TABLE default
-0.052190
0.000476
-0.000000
-0.052705
-0.052464
0.000000
-0.050641
-0.049093
-0.047544
-0.045995
-0.044446
-0.042898
-0.041349
-0.039800
-0.038251
-0.036702
-0.035153
-0.033604
-0.032055
-0.030506
-0.028958
-0.027409
-0.025860
-0.024311
-0.022762
-0.021212
-0.019663
-0.018114
-0.016565
-0.015016
-0.013467
-0.011917
-0.010368
-0.008819
-0.007270
-0.005720
-0.004171
-0.002622
-0.001073
0.000476
0.000476
0.000476
0.000476
0.000476
0.000475
0.000475
0.000474
0.000474
0.000473
0.000472
0.000470
0.000468
0.000466
0.000462
0.000458
0.000451
0.000439
0.000399
-0.000000
0.000000
-0.000000
-0.000000
-0.000000
-0.000000
-0.000000
-0.000000
-0.000000
-0.000000
-0.000000
-0.000000
-0.000000
-0.001550
-0.003101
-0.004652
-0.006202
-0.007753
-0.009304
-0.010855
-0.012406
-0.013956
-0.015507
-0.017058
-0.018609
-0.020160
-0.021710
-0.023261
-0.024811
-0.026361
-0.027911
-0.029461
-0.031011
-0.032561
-0.034111
-0.035661
-0.037210
-0.038760
-0.040310
-0.041859
-0.043408
-0.044958
-0.046507
-0.048057
-0.049606
-0.051156
-0.052705
-0.052705
-0.052706
-0.052706
-0.052707
-0.052708
-0.052709
-0.052710
-0.052711
-0.052712
-0.052714
-0.052715
-0.052717
-0.052718
-0.052720
-0.052722
-0.052724
-0.052724
-0.052704
-0.052200
-0.052186
-0.052184
-0.052185
-0.052186
-0.052187
-0.052188
-0.052188
-0.052189
-0.052189
-0.052190
-0.052190
-0.052190
-0.050910
-0.049377
-0.047830
-0.046272
-0.044718
-0.043170
-0.041620
-0.040071
-0.038521
-0.036971
-0.035414
-0.033864
-0.032312
-0.030754
-0.029212
-0.027659
-0.026120
-0.024582
-0.023029
-0.021488
-0.019931
-0.018380
-0.016832
-0.015277
-0.013731
-0.012184
-0.010641
-0.009098
-0.007560
-0.006018
-0.004481
-0.002964
-0.001479
-0.002758
-0.004344
-0.046063
-0.047435
-0.047229
-0.046510
-0.051171
-0.050242
-0.051389
-0.049739
-0.001176
-0.001925
-0.001382
-0.020817
-0.022198
-0.022611
-0.005440
-0.004248
-0.003812
-0.005299
-0.001366
-0.001204
-0.048671
-0.047301
-0.007312
-0.007983
-0.008481
-0.009484
-0.006762
-0.006209
-0.005543
-0.020757
-0.019779
-0.021102
-0.043856
-0.042212
-0.042807
-0.011194
-0.012932
-0.011679
-0.042619
-0.010482
-0.008975
-0.010258
-0.009879
-0.009349
-0.008768
-0.007918
-0.011005
-0.011977
-0.043233
-0.044253
-0.043650
-0.021716
-0.045229
-0.009103
-0.007404
-0.006209
-0.006717
-0.005564
-0.004746
-0.005230
-0.006496
-0.019367
-0.009576
-0.011197
-0.009914
-0.010090
-0.049212
-0.048301
-0.049653
-0.050743
-0.051365
-0.036657
-0.038161
-0.037737
-0.010819
-0.010695
-0.006895
-0.008424
-0.007133
-0.050427
-0.051208
-0.051620
-0.008097
-0.049617
-0.049971
-0.048925
-0.050161
-0.051315
-0.001734
-0.002804
-0.003154
-0.002279
-0.048682
-0.048369
-0.049145
-0.046698
-0.047897
-0.045938
-0.051301
-0.050242
-0.003015
-0.004084
-0.001374
-0.001443
-0.002977
-0.001670
-0.011563
-0.012850
-0.011765
-0.003413
-0.003840
-0.002413
-0.013405
-0.002531
-0.049140
-0.050010
-0.051243
-0.051499
-0.000927
-0.002589
-0.002266
-0.003289
-0.001745
-0.004037
-0.000936
-0.047832
-0.001227
-0.049125
-0.006013
-0.004305
-0.005404
-0.047813
-0.003740
-0.048449
-0.021496
-0.044784
-0.045405
-0.046082
-0.044516
-0.045370
-0.045619
-0.046979
-0.046794
-0.007021
-0.051289
-0.034352
-0.034814
-0.033239
-0.003904
-0.004763
-0.003733
-0.004023
-0.006343
-0.006580
-0.005067
-0.002597
-0.050204
-0.049036
-0.048401
-0.022489
-0.023386
-0.047754
-0.023054
-0.022997
-0.044492
-0.022295
-0.023957
-0.007136
-0.007345
-0.008397
-0.045476
-0.045340
-0.046955
-0.006065
-0.004703
-0.008923
-0.044414
-0.043196
-0.044594
-0.046177
-0.034744
-0.035657
-0.036229
-0.007522
-0.008444
-0.049886
-0.051067
-0.008418
-0.036865
-0.048451
-0.047599
-0.024000
-0.002671
-0.002363
-0.003447
-0.051130
-0.047909
-0.046929
-0.004296
-0.027678
-0.027562
-0.029224
-0.028765
-0.044266
-0.045743
-0.011129
-0.012263
-0.043074
-0.041455
-0.043208
-0.045187
-0.001382
-0.002852
-0.001389
-0.049268
-0.051522
-0.047576
-0.005632
-0.038649
-0.039720
-0.038968
-0.049458
-0.050868
-0.040194
-0.046111
-0.046887
-0.037250
-0.038450
-0.037090
-0.034174
-0.035160
-0.035577
-0.033957
-0.040963
-0.036865
-0.035930
-0.042879
-0.036197
-0.036775
-0.037558
-0.038462
-0.041617
-0.035048
-0.034244
-0.046690
-0.046369
-0.047924
-0.042326
-0.044068
-0.040139
-0.037542
-0.036826
-0.035479
-0.038239
-0.039046
-0.049019
-0.039818
-0.051323
-0.006132
-0.007042
-0.007537
-0.037613
-0.036204
-0.035281
-0.039292
-0.038008
-0.039973
-0.038340
-0.036743
-0.040006
-0.004164
-0.038772
-0.005295
-0.038905
-0.040008
-0.038840
-0.039923
-0.038433
-0.040805
-0.038627
-0.039856
-0.040831
-0.036008
-0.035805
-0.037530
-0.034560
-0.034659
-0.051177
-0.050115
-0.049642
-0.048850
-0.042960
-0.041440
-0.041667
-0.036994
-0.038943
-0.038300
-0.042575
-0.042051
-0.039631
-0.041096
-0.046186
-0.047423
-0.047770
-0.047999
-0.044555
-0.044486
-0.043090
-0.044522
-0.045421
-0.045443
-0.039345
-0.040816
-0.040070
-0.039587
-0.042973
-0.043802
-0.044288
-0.050426
-0.036280
-0.034688
-0.035200
-0.041306
-0.039659
-0.040521
-0.050010
-0.046376
-0.047533
-0.046577
-0.048166
-0.039902
-0.033660
-0.012455
-0.012255
-0.013892
-0.048728
-0.049123
-0.013551
-0.001335
-0.042295
-0.043204
-0.041478
-0.002875
-0.043871
-0.033141
-0.033715
-0.047662
-0.050090
-0.010104
-0.011664
-0.010439
-0.011300
-0.042763
-0.035437
-0.042350
-0.014166
-0.012539
-0.013735
-0.031919
-0.031391
-0.051296
-0.032646
-0.018310
-0.017988
-0.019872
-0.019496
-0.041479
-0.008336
-0.047968
-0.040818
-0.044320
-0.006474
-0.010527
-0.041621
-0.036196
-0.036266
-0.035101
-0.007465
-0.021246
-0.022706
-0.022358
-0.020921
-0.013104
-0.012253
-0.014018
-0.012991
-0.023919
-0.051141
-0.024140
-0.033863
-0.032298
-0.045258
-0.014976
-0.014678
-0.043860
-0.034588
-0.013230
-0.016844
-0.016508
-0.030939
-0.031864
-0.030230
-0.041630
-0.007593
-0.023460
-0.024412
-0.023290
-0.023860
-0.024883
-0.020668
-0.022123
-0.021056
-0.021766
-0.022298
-0.019309
-0.019550
-0.020205
-0.037516
-0.038699
-0.015323
-0.016349
-0.016285
-0.015326
-0.014360
-0.012054
-0.017752
-0.018002
-0.018646
-0.017129
-0.005760
-0.005206
-0.008704
-0.009748
-0.032355
-0.034080
-0.032789
-0.033572
-0.033544
-0.032933
-0.012142
-0.013408
-0.011868
-0.013733
-0.014983
-0.014679
-0.031539
-0.031916
-0.014521
-0.014908
-0.014095
-0.013153
-0.014668
-0.015319
-0.016250
-0.012113
-0.009066
-0.030195
-0.029713
-0.030960
-0.030044
-0.028464
-0.029171
-0.013424
-0.015011
-0.035590
-0.015797
-0.015445
-0.030635
-0.038048
-0.036887
-0.033042
-0.030693
-0.031775
-0.009648
-0.030724
-0.031145
-0.031905
-0.016553
-0.016193
-0.029918
-0.030280
-0.017747
-0.016890
-0.017804
-0.026663
-0.028082
-0.026766
-0.027787
-0.016624
-0.016165
-0.025596
-0.025239
-0.026755
-0.015008
-0.015628
-0.029131
-0.029543
-0.030301
-0.029031
-0.029357
-0.031447
-0.009927
-0.018443
-0.019360
-0.028328
-0.028693
-0.051296
-0.049597
-0.046465
-0.046657
-0.027554
-0.027953
-0.028726
-0.010628
-0.045090
-0.025984
-0.026386
-0.050773
-0.027150
-0.029876
-0.019303
-0.018149
-0.011148
-0.026753
-0.045680
-0.027117
-0.024416
-0.024805
-0.017379
-0.017010
-0.036964
-0.025185
-0.025551
-0.009136
-0.028313
-0.028565
-0.023617
-0.023993
-0.023239
-0.022052
-0.022427
-0.035600
-0.020001
-0.020919
-0.018189
-0.017815
-0.041955
-0.047114
-0.020864
-0.019707
-0.017480
-0.015920
-0.016563
-0.021676
-0.020491
-0.020294
-0.021853
-0.049120
-0.037008
-0.023410
-0.022481
-0.025921
-0.024981
-0.026498
-0.025603
-0.018738
-0.019669
-0.019742
-0.021298
-0.020117
-0.018933
-0.045226
-0.017183
-0.018563
-0.010930
-0.040922
-0.025549
-0.025427
-0.018115
-0.022851
-0.024044
-0.021561
-0.026364
-0.026276
-0.027500
-0.025944
-0.051557
-0.023913
-0.033466
-0.032743
-0.018875
-0.014360
-0.021268
-0.012855
-0.023123
-0.022830
-0.024685
-0.024390
-0.026172
-0.029854
-0.031073
-0.030596
-0.020117
-0.026396
-0.025185
-0.026104
-0.027554
-0.027762
-0.027169
-0.027384
-0.015715
-0.042369
-0.041242
-0.016142
-0.033019
-0.032264
-0.029953
-0.029178
-0.028933
-0.017003
-0.030862
-0.043144
-0.028246
-0.009858
-0.017833
-0.031958
-0.031645
-0.025168
-0.024630
-0.032586
-0.027217
-0.018681
-0.033383
-0.028655
-0.034394
-0.044182
-0.049486
-0.047903
-0.006216
-0.004846
-0.005060
-0.005764
-0.001059
-0.001988
-0.000840
-0.002490
-0.051014
-0.050267
-0.050808
-0.031421
-0.030040
-0.029628
-0.046756
-0.047947
-0.048382
-0.046897
-0.050825
-0.050987
-0.003557
-0.004927
-0.044902
-0.044227
-0.043734
-0.042731
-0.045456
-0.046003
-0.046672
-0.031459
-0.032436
-0.031114
-0.008372
-0.010015
-0.009420
-0.041012
-0.039277
-0.040529
-0.009609
-0.041726
-0.043229
-0.041948
-0.042329
-0.042860
-0.043437
-0.044287
-0.041204
-0.040233
-0.009014
-0.007994
-0.008600
-0.030501
-0.007021
-0.043107
-0.044802
-0.045994
-0.045487
-0.046637
-0.047453
-0.046973
-0.045711
-0.032848
-0.042627
-0.041008
-0.042290
-0.042114
-0.003050
-0.003957
-0.002603
-0.001517
-0.000890
-0.015569
-0.014065
-0.014490
-0.041396
-0.041516
-0.045329
-0.043803
-0.045099
-0.001875
-0.001074
-0.000677
-0.044123
-0.002669
-0.002258
-0.003303
-0.002068
-0.000914
-0.050458
-0.049389
-0.049040
-0.049913
-0.003599
-0.003922
-0.003158
-0.005530
-0.004332
-0.006290
-0.000969
-0.002033
-0.049207
-0.048147
-0.050882
-0.050751
-0.049231
-0.050540
-0.040641
-0.039357
-0.040440
-0.048781
-0.048354
-0.049779
-0.038802
-0.049662
-0.003135
-0.002257
-0.000986
-0.000764
-0.051264
-0.049608
-0.049926
-0.048904
-0.050446
-0.048158
-0.051254
-0.004442
-0.050964
-0.003103
-0.046233
-0.047912
-0.046824
-0.004416
-0.048455
-0.003818
-0.030740
-0.007447
-0.006825
-0.006149
-0.007755
-0.006901
-0.006649
-0.005289
-0.005436
-0.045178
-0.000942
-0.017876
-0.017415
-0.018989
-0.048291
-0.047433
-0.048465
-0.048183
-0.045855
-0.045618
-0.047130
-0.049596
-0.002026
-0.003193
-0.003828
-0.029728
-0.028853
-0.004509
-0.029183
-0.029221
-0.007736
-0.029923
-0.028282
-0.045063
-0.044854
-0.043804
-0.006752
-0.006888
-0.005273
-0.046133
-0.047493
-0.043280
-0.007854
-0.009069
-0.007670
-0.006086
-0.017490
-0.016577
-0.016006
-0.044677
-0.043756
-0.002345
-0.001165
-0.043782
-0.015369
-0.003779
-0.004630
-0.028219
-0.049523
-0.049830
-0.048748
-0.001121
-0.004344
-0.005330
-0.047901
-0.024563
-0.024678
-0.023017
-0.023476
-0.007962
-0.006486
-0.041076
-0.039942
-0.009188
-0.010806
-0.009050
-0.007072
-0.050808
-0.049341
-0.050801
-0.002963
-0.000711
-0.004655
-0.046565
-0.013601
-0.012531
-0.013284
-0.002792
-0.001379
-0.012060
-0.006144
-0.005362
-0.014998
-0.013798
-0.015156
-0.018067
-0.017081
-0.016666
-0.018282
-0.011264
-0.015379
-0.016314
-0.009350
-0.016035
-0.015456
-0.014674
-0.013769
-0.010642
-0.017183
-0.017988
-0.005549
-0.005868
-0.004313
-0.009928
-0.008186
-0.012117
-0.014694
-0.015411
-0.016758
-0.013996
-0.013190
-0.003226
-0.012418
-0.000920
-0.046066
-0.045158
-0.044664
-0.014617
-0.016025
-0.016950
-0.012954
-0.014238
-0.012277
-0.013904
-0.015499
-0.012238
-0.048032
-0.013481
-0.046904
-0.013329
-0.012223
-0.013391
-0.012307
-0.013796
-0.011436
-0.013614
-0.012383
-0.011406
-0.016240
-0.016441
-0.014720
-0.017686
-0.017588
-0.001064
-0.002127
-0.002598
-0.003393
-0.009278
-0.010796
-0.010573
-0.015234
-0.013284
-0.013928
-0.009667
-0.010194
-0.012598
-0.011133
-0.006049
-0.004811
-0.004465
-0.004240
-0.007681
-0.007748
-0.009145
-0.007711
-0.006813
-0.006789
-0.012882
-0.011411
-0.012158
-0.012640
-0.009266
-0.008439
-0.007951
-0.001812
-0.015947
-0.017538
-0.017026
-0.010926
-0.012574
-0.011713
-0.002223
-0.005871
-0.004713
-0.005668
-0.004083
-0.012354
-0.018569
-0.039760
-0.039957
-0.038324
-0.003505
-0.003111
-0.038662
-0.050855
-0.009935
-0.009027
-0.010753
-0.049318
-0.008358
-0.019093
-0.018520
-0.004571
-0.002154
-0.042125
-0.040567
-0.041796
-0.040926
-0.009489
-0.016802
-0.009898
-0.038044
-0.039669
-0.038473
-0.020315
-0.020841
-0.001041
-0.019586
-0.033929
-0.034248
-0.032364
-0.032743
-0.010772
-0.043866
-0.004276
-0.011435
-0.007909
-0.045727
-0.041676
-0.010634
-0.016053
-0.015982
-0.017146
-0.044777
-0.030989
-0.029530
-0.029876
-0.031312
-0.039125
-0.039971
-0.038208
-0.039230
-0.028318
-0.001093
-0.028096
-0.018368
-0.019932
-0.006988
-0.037233
-0.037530
-0.008384
-0.017655
-0.038980
-0.035395
-0.035728
-0.021304
-0.020379
-0.022012
-0.010598
-0.044609
-0.028765
-0.027815
-0.028936
-0.028368
-0.027343
-0.031555
-0.030102
-0.031169
-0.030457
-0.029928
-0.032913
-0.032674
-0.032016
-0.014735
-0.013554
-0.036895
-0.035869
-0.035935
-0.036890
-0.037858
-0.040152
-0.034468
-0.034220
-0.033573
-0.035089
-0.046438
-0.047001
-0.043530
-0.042476
-0.019871
-0.018147
-0.019438
-0.018654
-0.018702
-0.019311
-0.040094
-0.038832
-0.040376
-0.038502
-0.037253
-0.037562
-0.020688
-0.020312
-0.037690
-0.037305
-0.038125
-0.039065
-0.037555
-0.036902
-0.035974
-0.040104
-0.043176
-0.022038
-0.022519
-0.021270
-0.022196
-0.023776
-0.023067
-0.038783
-0.037199
-0.016638
-0.036415
-0.036766
-0.021594
-0.014190
-0.015352
-0.019183
-0.021547
-0.020467
-0.042571
-0.021500
-0.021081
-0.020320
-0.035663
-0.036021
-0.022308
-0.021948
-0.034469
-0.035333
-0.034422
-0.025566
-0.024148
-0.025464
-0.024441
-0.035588
-0.036046
-0.026625
-0.026981
-0.025466
-0.037221
-0.036599
-0.023093
-0.022682
-0.021923
-0.023197
-0.022872
-0.020777
-0.042275
-0.033782
-0.032868
-0.023897
-0.023533
-0.000941
-0.002639
-0.005768
-0.005575
-0.024668
-0.024271
-0.023497
-0.041614
-0.007148
-0.026238
-0.025836
-0.001462
-0.025071
-0.022348
-0.032915
-0.034069
-0.041071
-0.025471
-0.006561
-0.025108
-0.027804
-0.027417
-0.034835
-0.035203
-0.015265
-0.027038
-0.026673
-0.043065
-0.023909
-0.023667
-0.028605
-0.028230
-0.028981
-0.030167
-0.029794
-0.016629
-0.032225
-0.031310
-0.034025
-0.034398
-0.010279
-0.005128
-0.031356
-0.032513
-0.034753
-0.036313
-0.035668
-0.030542
-0.031727
-0.031937
-0.030379
-0.003118
-0.015220
-0.028823
-0.029750
-0.026315
-0.027253
-0.025737
-0.026630
-0.033492
-0.032564
-0.032473
-0.030919
-0.032100
-0.033283
-0.007017
-0.035045
-0.033652
-0.041293
-0.011325
-0.026678
-0.026802
-0.034116
-0.029367
-0.028187
-0.030667
-0.025863
-0.025963
-0.024726
-0.026281
-0.000682
-0.028306
-0.018778
-0.019499
-0.033359
-0.037872
-0.030954
-0.039378
-0.029106
-0.029392
-0.027546
-0.027834
-0.026059
-0.022384
-0.021165
-0.021640
-0.032117
-0.025841
-0.027052
-0.026134
-0.024683
-0.024474
-0.025065
-0.024849
-0.036524
-0.009862
-0.010988
-0.036069
-0.019221
-0.019974
-0.022282
-0.023055
-0.023302
-0.035209
-0.021373
-0.009089
-0.023988
-0.042344
-0.034379
-0.020281
-0.020591
-0.027071
-0.027608
-0.019651
-0.025021
-0.033533
-0.018854
-0.023582
-0.017843
-0.008050
SCALARS UY float 1
LOOKUP_TABLE default
-0.000000
-0.000000
-0.123000
-0.123000
-0.049200
-0.073806
-0.000000
-0.000000
-0.000000
-0.000000
-0.000000
-0.000000
-0.000000
-0.000000
-0.000000
-0.000000
-0.000000
-0.000000
-0.000000
-0.000000
-0.000000
-0.000000
-0.000000
-0.000000
-0.000000
-0.000000
-0.000000
-0.000000
-0.000000
-0.000000
-0.000000
-0.000000
-0.000000
-0.000000
-0.000000
-0.000000
-0.000000
-0.000000
-0.000000
-0.003687
-0.007374
-0.011061
-0.014748
-0.018435
-0.022122
-0.025808
-0.029495
-0.033182
-0.036869
-0.040555
-0.044242
-0.047929
-0.051615
-0.055301
-0.058988
-0.062674
-0.066361
-0.070055
-0.077355
-0.080872
-0.084382
-0.087893
-0.091403
-0.094914
-0.098425
-0.101936
-0.105446
-0.108957
-0.112468
-0.115978
-0.119489
-0.123000
-0.123000
-0.123000
-0.123000
-0.123000
-0.123000
-0.123000
-0.123000
-0.123000
-0.123000
-0.123000
-0.123000
-0.123000
-0.123000
-0.123000
-0.123000
-0.123000
-0.123000
-0.123000
-0.123000
-0.123000
-0.123000
-0.123000
-0.123000
-0.123000
-0.123000
-0.123000
-0.123000
-0.123000
-0.123000
-0.123000
-0.123000
-0.123000
-0.119312
-0.115624
-0.111936
-0.108248
-0.104561
-0.100873
-0.097185
-0.093498
-0.089810
-0.086123
-0.082436
-0.078748
-0.075061
-0.071374
-0.067687
-0.064000
-0.060313
-0.056625
-0.052931
-0.045638
-0.042124
-0.038613
-0.035103
-0.031593
-0.028082
-0.024572
-0.021062
-0.017551
-0.014041
-0.010531
-0.007021
-0.003510
-0.049921
-0.050653
-0.051377
-0.052092
-0.052827
-0.053543
-0.054274
-0.054991
-0.055716
-0.056436
-0.057159
-0.057882
-0.058598
-0.059330
-0.060053
-0.060767
-0.061496
-0.062226
-0.062940
-0.063663
-0.064395
-0.065111
-0.065835
-0.066557
-0.067279
-0.068003
-0.068722
-0.069453
-0.070171
-0.070907
-0.071624
-0.072353
-0.073090
-0.075984
-0.075041
-0.055994
-0.057289
-0.054419
-0.059173
-0.110165
-0.112924
-0.113944
-0.110606
-0.085641
-0.087944
-0.090575
-0.067612
-0.067663
-0.065683
-0.119554
-0.117800
-0.120077
-0.116195
-0.113741
-0.110559
-0.119753
-0.119858
-0.085961
-0.088974
-0.086310
-0.088659
-0.083141
-0.085478
-0.082773
-0.116573
-0.119683
-0.120211
-0.116119
-0.116700
-0.119669
-0.105301
-0.105111
-0.102452
-0.113461
-0.099919
-0.100542
-0.103076
-0.097406
-0.094708
-0.097407
-0.095070
-0.097335
-0.099508
-0.076440
-0.076431
-0.073615
-0.118389
-0.074183
-0.092028
-0.091668
-0.091532
-0.093864
-0.094124
-0.091733
-0.089376
-0.088539
-0.116240
-0.108649
-0.108697
-0.106047
-0.111672
-0.065844
-0.068019
-0.069587
-0.066782
-0.069630
-0.119488
-0.119951
-0.116398
-0.090766
-0.094526
-0.080816
-0.079742
-0.077636
-0.054296
-0.057762
-0.054632
-0.083226
-0.057044
-0.118919
-0.116560
-0.115557
-0.117592
-0.116742
-0.114203
-0.117261
-0.119849
-0.058049
-0.055313
-0.053646
-0.116373
-0.117123
-0.119833
-0.061746
-0.059999
-0.078731
-0.077582
-0.076066
-0.082895
-0.081799
-0.079059
-0.120169
-0.117020
-0.117034
-0.109549
-0.106726
-0.108522
-0.119924
-0.111642
-0.060221
-0.063253
-0.120804
-0.064694
-0.119676
-0.085259
-0.105482
-0.103385
-0.102621
-0.114880
-0.104363
-0.060095
-0.107174
-0.113399
-0.074267
-0.080821
-0.078376
-0.114442
-0.112118
-0.062883
-0.070908
-0.102739
-0.105759
-0.102755
-0.056446
-0.058638
-0.061071
-0.062144
-0.105711
-0.119901
-0.106509
-0.107219
-0.103445
-0.104432
-0.100664
-0.103598
-0.088280
-0.084321
-0.117537
-0.114309
-0.112959
-0.100856
-0.108082
-0.108288
-0.111322
-0.120618
-0.067703
-0.065241
-0.070355
-0.118304
-0.119672
-0.115737
-0.065690
-0.108790
-0.112133
-0.110201
-0.113906
-0.116947
-0.112386
-0.110685
-0.109489
-0.103897
-0.059648
-0.057626
-0.062883
-0.064300
-0.090180
-0.093306
-0.089823
-0.116837
-0.119987
-0.105525
-0.102467
-0.113821
-0.093017
-0.105335
-0.108788
-0.120280
-0.090014
-0.092596
-0.092137
-0.072739
-0.071335
-0.067659
-0.094950
-0.064296
-0.067726
-0.066977
-0.063457
-0.112129
-0.109483
-0.114111
-0.114588
-0.061166
-0.058564
-0.065475
-0.066802
-0.099702
-0.098205
-0.096854
-0.102467
-0.099294
-0.102206
-0.106838
-0.068014
-0.067457
-0.065403
-0.073886
-0.076896
-0.064745
-0.070505
-0.074098
-0.068459
-0.071257
-0.072276
-0.076557
-0.079066
-0.076098
-0.080556
-0.119305
-0.075775
-0.073219
-0.109411
-0.096365
-0.099908
-0.096087
-0.099481
-0.062811
-0.095980
-0.093346
-0.086650
-0.090180
-0.088988
-0.068646
-0.070070
-0.060981
-0.089556
-0.087103
-0.086637
-0.092433
-0.089023
-0.077840
-0.092243
-0.080811
-0.103967
-0.106226
-0.102940
-0.103051
-0.103196
-0.099889
-0.074818
-0.074379
-0.071030
-0.077768
-0.079491
-0.078341
-0.097685
-0.062389
-0.096788
-0.095368
-0.101127
-0.102855
-0.104661
-0.106020
-0.082159
-0.082089
-0.085416
-0.088799
-0.065999
-0.069803
-0.064474
-0.067952
-0.064064
-0.084616
-0.082529
-0.085179
-0.081949
-0.089019
-0.092411
-0.085591
-0.112918
-0.113928
-0.109837
-0.082308
-0.078438
-0.108043
-0.107875
-0.093324
-0.095208
-0.092415
-0.085836
-0.091782
-0.095291
-0.093747
-0.098074
-0.096686
-0.099584
-0.117506
-0.114946
-0.111064
-0.120596
-0.085845
-0.082923
-0.085342
-0.087869
-0.116299
-0.118945
-0.114099
-0.098836
-0.097968
-0.095467
-0.099395
-0.076489
-0.077180
-0.079392
-0.074895
-0.057773
-0.100738
-0.093048
-0.096393
-0.095384
-0.099621
-0.095738
-0.098616
-0.093599
-0.105546
-0.102305
-0.102616
-0.095248
-0.105918
-0.090713
-0.087252
-0.098297
-0.079799
-0.078724
-0.077614
-0.075495
-0.080899
-0.071266
-0.082267
-0.074261
-0.107482
-0.108091
-0.110433
-0.087881
-0.091304
-0.051944
-0.094255
-0.068601
-0.072175
-0.071535
-0.067436
-0.071044
-0.106660
-0.079862
-0.068093
-0.108924
-0.096522
-0.117451
-0.065929
-0.062424
-0.059214