# vtk DataFile Version 2.0
Test
ASCII
DATASET POLYDATA
POINTS 1445 float
0.000000 0.000000 0.000000
1.000000 0.000000 0.000000
1.000000 1.000000 0.000000
0.000000 1.000000 0.000000
0.000000 0.400000 0.000000
1.000000 0.600000 0.000000
0.029412 0.000000 0.000000
0.058824 0.000000 0.000000
0.088235 0.000000 0.000000
0.117647 0.000000 0.000000
0.147059 0.000000 0.000000
0.176471 0.000000 0.000000
0.205882 0.000000 0.000000
0.235294 0.000000 0.000000
0.264706 0.000000 0.000000
0.294118 0.000000 0.000000
0.323529 0.000000 0.000000
0.352941 0.000000 0.000000
0.382353 0.000000 0.000000
0.411765 0.000000 0.000000
0.441176 0.000000 0.000000
0.470588 0.000000 0.000000
0.500000 0.000000 0.000000
0.529412 0.000000 0.000000
0.558824 0.000000 0.000000
0.588235 0.000000 0.000000
0.617647 0.000000 0.000000
0.647059 0.000000 0.000000
0.676471 0.000000 0.000000
0.705882 0.000000 0.000000
0.735294 0.000000 0.000000
0.764706 0.000000 0.000000
0.794118 0.000000 0.000000
0.823529 0.000000 0.000000
0.852941 0.000000 0.000000
0.882353 0.000000 0.000000
0.911765 0.000000 0.000000
0.941176 0.000000 0.000000
0.970588 0.000000 0.000000
1.000000 0.030000 0.000000
1.000000 0.060000 0.000000
1.000000 0.090000 0.000000
1.000000 0.120000 0.000000
1.000000 0.150000 0.000000
1.000000 0.180000 0.000000
1.000000 0.210000 0.000000
1.000000 0.240000 0.000000
1.000000 0.270000 0.000000
1.000000 0.300000 0.000000
1.000000 0.330000 0.000000
1.000000 0.360000 0.000000
1.000000 0.390000 0.000000
1.000000 0.420000 0.000000
1.000000 0.450000 0.000000
1.000000 0.480000 0.000000
1.000000 0.510000 0.000000
1.000000 0.540000 0.000000
1.000000 0.570000 0.000000
1.000000 0.628571 0.000000
1.000000 0.657143 0.000000
1.000000 0.685714 0.000000
1.000000 0.714286 0.000000
1.000000 0.742857 0.000000
1.000000 0.771429 0.000000
1.000000 0.800000 0.000000
1.000000 0.828571 0.000000
1.000000 0.857143 0.000000
1.000000 0.885714 0.000000
1.000000 0.914286 0.000000
1.000000 0.942857 0.000000
1.000000 0.971429 0.000000
0.970588 1.000000 0.000000
0.941176 1.000000 0.000000
0.911765 1.000000 0.000000
0.882353 1.000000 0.000000
0.852941 1.000000 0.000000
0.823529 1.000000 0.000000
0.794118 1.000000 0.000000
0.764706 1.000000 0.000000
0.735294 1.000000 0.000000
0.705882 1.000000 0.000000
0.676471 1.000000 0.000000
0.647059 1.000000 0.000000
0.617647 1.000000 0.000000
0.588235 1.000000 0.000000
0.558824 1.000000 0.000000
0.529412 1.000000 0.000000
0.500000 1.000000 0.000000
0.470588 1.000000 0.000000
0.441176 1.000000 0.000000
0.411765 1.000000 0.000000
0.382353 1.000000 0.000000
0.352941 1.000000 0.000000
0.323529 1.000000 0.000000
0.294118 1.000000 0.000000
0.264706 1.000000 0.000000
0.235294 1.000000 0.000000
0.205882 1.000000 0.000000
0.176471 1.000000 0.000000
0.147059 1.000000 0.000000
0.117647 1.000000 0.000000
0.088235 1.000000 0.000000
0.058824 1.000000 0.000000
0.029412 1.000000 0.000000
0.000000 0.970000 0.000000
0.000000 0.940000 0.000000
0.000000 0.910000 0.000000
0.000000 0.880000 0.000000
0.000000 0.850000 0.000000
0.000000 0.820000 0.000000
0.000000 0.790000 0.000000
0.000000 0.760000 0.000000
0.000000 0.730000 0.000000
0.000000 0.700000 0.000000
0.000000 0.670000 0.000000
0.000000 0.640000 0.000000
0.000000 0.610000 0.000000
0.000000 0.580000 0.000000
0.000000 0.550000 0.000000
0.000000 0.520000 0.000000
0.000000 0.490000 0.000000
0.000000 0.460000 0.000000
0.000000 0.430000 0.000000
0.000000 0.371429 0.000000
0.000000 0.342857 0.000000
0.000000 0.314286 0.000000
0.000000 0.285714 0.000000
0.000000 0.257143 0.000000
0.000000 0.228571 0.000000
0.000000 0.200000 0.000000
0.000000 0.171429 0.000000
0.000000 0.142857 0.000000
0.000000 0.114286 0.000000
0.000000 0.085714 0.000000
0.000000 0.057143 0.000000
0.000000 0.028571 0.000000
0.029412 0.405882 0.000000
0.058824 0.411765 0.000000
0.088235 0.417647 0.000000
0.117647 0.423529 0.000000
0.147059 0.429412 0.000000
0.176471 0.435294 0.000000
0.205882 0.441176 0.000000
0.235294 0.447059 0.000000
0.264706 0.452941 0.000000
0.294118 0.458824 0.000000
0.323529 0.464706 0.000000
0.352941 0.470588 0.000000
0.382353 0.476471 0.000000
0.411765 0.482353 0.000000
0.441176 0.488235 0.000000
0.470588 0.494118 0.000000
0.500000 0.500000 0.000000
0.529412 0.505882 0.000000
0.558824 0.511765 0.000000
0.588235 0.517647 0.000000
0.617647 0.523529 0.000000
0.647059 0.529412 0.000000
0.676471 0.535294 0.000000
0.705882 0.541176 0.000000
0.735294 0.547059 0.000000
0.764706 0.552941 0.000000
0.794118 0.558824 0.000000
0.823529 0.564706 0.000000
0.852941 0.570588 0.000000
0.882353 0.576471 0.000000
0.911765 0.582353 0.000000
0.941176 0.588235 0.000000
0.970588 0.594118 0.000000
0.948492 0.617586 0.000000
0.918239 0.609871 0.000000
0.126115 0.454845 0.000000
0.100318 0.465379 0.000000
0.103006 0.442114 0.000000
0.117916 0.480680 0.000000
0.029145 0.895585 0.000000
0.046774 0.918032 0.000000
0.024990 0.926329 0.000000
0.056315 0.899171 0.000000
0.977770 0.695981 0.000000
0.963577 0.714729 0.000000
0.973827 0.736127 0.000000
0.605253 0.549394 0.000000
0.579370 0.549801 0.000000
0.570019 0.533816 0.000000
0.896809 0.971959 0.000000
0.919426 0.957680 0.000000
0.927686 0.976215 0.000000
0.899487 0.944624 0.000000
0.974081 0.924646 0.000000
0.977161 0.898750 0.000000
0.076578 0.973587 0.000000
0.102577 0.974440 0.000000
0.861693 0.698664 0.000000
0.848870 0.723174 0.000000
0.839521 0.701504 0.000000
0.820447 0.720618 0.000000
0.872237 0.675719 0.000000
0.882611 0.694724 0.000000
0.895344 0.672729 0.000000
0.606326 0.947716 0.000000
0.624868 0.973015 0.000000
0.599776 0.977307 0.000000
0.167986 0.944019 0.000000
0.199183 0.948746 0.000000
0.187884 0.972901 0.000000
0.787752 0.856005 0.000000
0.754801 0.854462 0.000000
0.778588 0.832828 0.000000
0.191471 0.922393 0.000000
0.801312 0.812216 0.000000
0.829867 0.817276 0.000000
0.805526 0.837896 0.000000
0.812775 0.791772 0.000000
0.822869 0.769821 0.000000
0.833826 0.791773 0.000000
0.849982 0.772760 0.000000
0.791421 0.791198 0.000000
0.772962 0.808877 0.000000
0.180049 0.621172 0.000000
0.160680 0.621098 0.000000
0.172158 0.598185 0.000000
0.588124 0.962489 0.000000
0.142171 0.602810 0.000000
0.827587 0.748015 0.000000
0.859778 0.745080 0.000000
0.882413 0.743965 0.000000
0.872759 0.762938 0.000000
0.894601 0.765041 0.000000
0.910115 0.745588 0.000000
0.901004 0.726420 0.000000
0.877058 0.719626 0.000000
0.632694 0.945006 0.000000
0.818411 0.883232 0.000000
0.787667 0.883633 0.000000
0.812018 0.862064 0.000000
0.808649 0.907835 0.000000
0.066636 0.534974 0.000000
0.083909 0.552665 0.000000
0.058224 0.565435 0.000000
0.037551 0.542621 0.000000
0.025720 0.565794 0.000000
0.304619 0.971425 0.000000
0.276072 0.975195 0.000000
0.284125 0.946285 0.000000
0.795087 0.737757 0.000000
0.797357 0.768346 0.000000
0.869843 0.656802 0.000000
0.840870 0.648068 0.000000
0.865462 0.630915 0.000000
0.043233 0.441011 0.000000
0.028792 0.469222 0.000000
0.020751 0.443790 0.000000
0.846918 0.676414 0.000000
0.058991 0.463368 0.000000
0.051906 0.966804 0.000000
0.071758 0.947609 0.000000
0.048298 0.939447 0.000000
0.026398 0.956010 0.000000
0.967109 0.949068 0.000000
0.946807 0.928411 0.000000
0.940173 0.953295 0.000000
0.956764 0.974357 0.000000
0.076722 0.471546 0.000000
0.082324 0.449317 0.000000
0.066669 0.435847 0.000000
0.114035 0.946088 0.000000
0.091278 0.952186 0.000000
0.128453 0.974235 0.000000
0.027019 0.501643 0.000000
0.047138 0.487417 0.000000
0.943388 0.639892 0.000000
0.923239 0.630552 0.000000
0.974491 0.618278 0.000000
0.972785 0.673666 0.000000
0.943930 0.664809 0.000000
0.968693 0.642530 0.000000
0.780685 0.976970 0.000000
0.756289 0.951349 0.000000
0.776857 0.951460 0.000000
0.935276 0.890540 0.000000
0.927168 0.867561 0.000000
0.954227 0.882176 0.000000
0.745760 0.974977 0.000000
0.952002 0.907568 0.000000
0.068063 0.489215 0.000000
0.051512 0.513895 0.000000
0.027757 0.982136 0.000000
0.023217 0.525632 0.000000
0.982410 0.972952 0.000000
0.951072 0.692907 0.000000
0.957020 0.857438 0.000000
0.937630 0.840379 0.000000
0.966912 0.834149 0.000000
0.923427 0.933924 0.000000
0.982257 0.848323 0.000000
0.092881 0.488189 0.000000
0.976737 0.871201 0.000000
0.067960 0.921895 0.000000
0.886538 0.603532 0.000000
0.918896 0.656866 0.000000
0.898227 0.636966 0.000000
0.092880 0.930380 0.000000
0.929071 0.911440 0.000000
0.081137 0.510877 0.000000
0.592772 0.576158 0.000000
0.150419 0.835159 0.000000
0.138607 0.859733 0.000000
0.125762 0.835294 0.000000
0.155304 0.458505 0.000000
0.139466 0.476317 0.000000
0.134858 0.496115 0.000000
0.109061 0.504849 0.000000
0.112238 0.859343 0.000000
0.866826 0.974780 0.000000
0.026919 0.865848 0.000000
0.348411 0.871602 0.000000
0.339654 0.840899 0.000000
0.369544 0.848927 0.000000
0.925986 0.818235 0.000000
0.909684 0.842117 0.000000
0.929360 0.717495 0.000000
0.924028 0.685311 0.000000
0.879688 0.955544 0.000000
0.875200 0.929284 0.000000
0.903901 0.918287 0.000000
0.950764 0.819790 0.000000
0.047492 0.878635 0.000000
0.069665 0.880314 0.000000
0.081712 0.904992 0.000000
0.573454 0.980624 0.000000
0.556694 0.550113 0.000000
0.094318 0.530060 0.000000
0.563246 0.571677 0.000000
0.563825 0.961795 0.000000
0.155902 0.972929 0.000000
0.577162 0.940912 0.000000
0.545227 0.533787 0.000000
0.864670 0.884377 0.000000
0.860690 0.911575 0.000000
0.840756 0.895862 0.000000
0.137227 0.926016 0.000000
0.139814 0.950758 0.000000
0.109156 0.913646 0.000000
0.884976 0.899786 0.000000
0.910807 0.890052 0.000000
0.830819 0.844574 0.000000
0.157710 0.484545 0.000000
0.180718 0.468069 0.000000
0.154331 0.510861 0.000000
0.124262 0.522394 0.000000
0.341085 0.732964 0.000000
0.323736 0.758404 0.000000
0.312899 0.730066 0.000000
0.857321 0.949854 0.000000
0.839840 0.975483 0.000000
0.053549 0.857833 0.000000
0.031143 0.832960 0.000000
0.840338 0.925315 0.000000
0.300796 0.756054 0.000000
0.080783 0.856286 0.000000
0.096939 0.884378 0.000000
0.544800 0.977874 0.000000
0.949430 0.731579 0.000000
0.955247 0.752582 0.000000
0.934712 0.748859 0.000000
0.030153 0.591093 0.000000
[...]
POINT_DATA 1445
SCALARS UX float 1
LOOKUP_TABLE default
-0.300428
-0.000000
0.000000
-0.300428
-0.300428
0.000000
-0.291592
-0.282756
-0.273920
-0.265084
-0.256248
-0.247411
-0.238575
-0.229739
-0.220903
-0.212067
-0.203231
-0.194395
-0.185559
-0.176722
-0.167886
-0.159050
-0.150214
-0.141378
-0.132542
-0.123706
-0.114870
-0.106033
-0.097197
-0.088361
-0.079525
-0.070689
-0.061853
-0.053017
-0.044181
-0.035344
-0.026508
-0.017672
-0.008836
-0.000000
-0.000000
-0.000000
-0.000000
-0.000000
-0.000000
-0.000000
-0.000000
-0.000000
-0.000000
-0.000000
-0.000000
-0.000000
-0.000000
-0.000000
-0.000000
-0.000000
0.000000
0.000000
-0.000000
-0.000000
0.000000
-0.000000
-0.000000
-0.000000
-0.000000
0.000000
-0.000000
0.000000
-0.000000
0.000000
-0.000000
-0.008836
-0.017672
-0.026508
-0.035344
-0.044181
-0.053017
-0.061853
-0.070689
-0.079525
-0.088361
-0.097197
-0.106033
-0.114870
-0.123706
-0.132542
-0.141378
-0.150214
-0.159050
-0.167886
-0.176722
-0.185559
-0.194395
-0.203231
-0.212067
-0.220903
-0.229739
-0.238575
-0.247411
-0.256248
-0.265084
-0.273920
-0.282756
-0.291592
-0.300428
-0.300428
-0.300428
-0.300428
-0.300428
-0.300428
-0.300428
-0.300428
-0.300428
-0.300428
-0.300428
-0.300428
-0.300428
-0.300428
-0.300428
-0.300428
-0.300428
-0.300428
-0.300428
-0.300428
-0.300428
-0.300428
-0.300428
-0.300428
-0.300428
-0.300428
-0.300428
-0.300428
-0.300428
-0.300428
-0.300428
-0.300428
-0.291592
-0.282756
-0.273920
-0.265084
-0.256248
-0.247411
-0.238575
-0.229739
-0.220903
-0.212067
-0.203231
-0.194395
-0.185559
-0.176722
-0.167886
-0.159050
-0.150214
-0.141378
-0.132542
-0.123706
-0.114870
-0.106033
-0.097197
-0.088361
-0.079525
-0.070689
-0.061853
-0.053017
-0.044181
-0.035344
-0.026508
-0.017672
-0.008836
-0.015475
-0.024563
-0.262540
-0.270290
-0.269482
-0.265003
-0.291672
-0.286376
-0.292920
-0.283509
-0.006679
-0.010943
-0.007863
-0.118593
-0.126369
-0.129178
-0.031001
-0.024207
-0.021725
-0.030197
-0.007787
-0.006862
-0.277422
-0.269611
-0.041551
-0.045404
-0.048212
-0.053943
-0.038384
-0.035267
-0.031441
-0.118271
-0.112700
-0.120239
-0.249960
-0.240588
-0.243982
-0.063765
-0.073665
-0.066518
-0.242905
-0.059691
-0.051113
-0.058426
-0.056248
-0.053215
-0.049923
-0.045070
-0.062663
-0.068209
-0.246336
-0.252155
-0.248707
-0.123739
-0.257716
-0.051798
-0.042127
-0.035327
-0.038227
-0.031665
-0.027004
-0.029741
-0.036935
-0.110349
-0.054554
-0.063791
-0.056475
-0.057487
-0.280409
-0.275220
-0.282936
-0.289147
-0.292701
-0.208912
-0.217488
-0.215069
-0.061562
-0.060880
-0.039103
-0.047807
-0.040419
-0.287440
-0.291778
-0.294194
-0.045990
-0.282705
-0.284834
-0.278870
-0.285918
-0.292497
-0.009881
-0.015981
-0.017974
-0.012989
-0.277379
-0.275696
-0.280399
-0.266169
-0.273006
-0.261837
-0.292311
-0.286267
-0.017008
-0.023061
-0.007664
-0.008176
-0.016845
-0.009406
-0.065888
-0.073218
-0.067038
-0.019445
-0.021881
-0.013751
-0.076381
-0.014420
-0.279980
-0.284952
-0.292089
-0.293453
-0.005284
-0.014699
-0.012912
-0.018738
-0.009940
-0.023005
-0.005331
-0.272524
-0.006989
-0.280011
-0.034087
-0.024366
-0.030575
-0.272524
-0.021309
-0.276052
-0.122343
-0.255238
-0.258787
-0.262646
-0.253770
-0.258529
-0.259913
-0.267663
-0.266709
-0.040009
-0.292341
-0.195756
-0.198386
-0.189407
-0.022236
-0.027133
-0.021222
-0.022824
-0.036145
-0.037493
-0.028871
-0.014792
-0.286160
-0.279499
-0.275880
-0.128146
-0.133182
-0.272092
-0.131213
-0.131039
-0.253591
-0.127033
-0.136627
-0.040657
-0.041853
-0.047842
-0.259201
-0.258424
-0.267635
-0.034556
-0.026796
-0.050827
-0.253048
-0.246135
-0.254063
-0.263096
-0.197957
-0.203169
-0.206425
-0.042865
-0.048117
-0.284341
-0.291072
-0.047967
-0.210061
-0.276159
-0.271305
-0.136755
-0.015193
-0.013445
-0.019614
-0.291369
-0.272997
-0.267393
-0.024455
-0.157717
-0.156942
-0.166421
-0.163980
-0.252298
-0.260721
-0.063409
-0.069875
-0.245396
-0.236180
-0.246165
-0.257454
-0.007870
-0.016239
-0.007911
-0.280813
-0.293662
-0.271164
-0.032088
-0.220164
-0.226274
-0.221979
-0.281836
-0.289887
-0.228966
-0.262735
-0.267176
-0.212184
-0.219041
-0.211285
-0.194664
-0.200296
-0.202663
-0.193442
-0.233464
-0.210010
-0.204670
-0.244386
-0.206259
-0.209558
-0.214021
-0.219183
-0.237085
-0.199706
-0.195115
-0.266080
-0.264259
-0.273126
-0.241143
-0.251080
-0.228687
-0.213913
-0.209821
-0.202135
-0.217893
-0.222490
-0.279347
-0.226896
-0.292494
-0.034933
-0.040116
-0.042932
-0.214345
-0.206313
-0.201040
-0.223855
-0.216524
-0.227724
-0.218430
-0.209326
-0.227937
-0.023708
-0.220872
-0.030146
-0.221697
-0.228000
-0.221340
-0.227522
-0.219028
-0.232505
-0.220081
-0.227097
-0.232668
-0.205094
-0.203941
-0.213782
-0.196832
-0.197414
-0.291667
-0.285607
-0.282912
-0.278389
-0.244810
-0.236148
-0.237426
-0.210825
-0.221945
-0.218274
-0.242597
-0.239601
-0.225859
-0.234214
-0.263221
-0.270278
-0.272256
-0.273548
-0.253913
-0.253529
-0.245562
-0.253738
-0.258861
-0.258996
-0.224239
-0.232627
-0.228370
-0.225619
-0.244880
-0.249602
-0.252380
-0.287394
-0.206759
-0.197684
-0.200602
-0.235398
-0.226003
-0.230915
-0.285038
-0.264267
-0.270868
-0.265417
-0.274471
-0.227679
-0.191800
-0.070899
-0.069775
-0.079094
-0.277728
-0.279977
-0.077170
-0.007598
-0.241050
-0.246227
-0.236387
-0.016367
-0.250041
-0.188815
-0.192081
-0.271647
-0.285459
-0.057373
-0.066261
-0.059269
-0.064220
-0.243642
-0.201884
-0.241296
-0.080703
-0.071434
-0.078253
-0.181840
-0.178836
-0.292806
-0.186000
-0.104293
-0.102340
-0.113081
-0.111190
-0.236318
-0.047487
-0.273356
-0.232539
-0.252603
-0.036859
-0.059986
-0.237113
-0.206216
-0.207039
-0.200215
-0.042296
-0.120913
-0.129231
-0.127268
-0.119076
-0.074493
-0.069679
-0.079736
-0.073912
-0.136142
-0.291486
-0.137424
-0.192948
-0.184027
-0.257891
-0.085330
-0.083636
-0.249923
-0.197014
-0.075355
-0.095916
-0.093883
-0.176183
-0.181504
-0.172237
-0.237266
-0.043240
-0.133628
-0.139045
-0.132650
-0.135891
-0.141741
-0.117708
-0.126000
-0.119905
-0.123978
-0.126986
-0.109961
-0.111320
-0.115082
-0.213754
-0.220673
-0.087246
-0.093099
-0.092718
-0.087279
-0.081746
-0.068677
-0.101089
-0.102502
-0.106198
-0.097553
-0.032806
-0.029572
-0.049367
-0.055383
-0.184374
-0.194209
-0.186845
-0.191317
-0.191126
-0.187553
-0.068993
-0.076297
-0.067761
-0.078052
-0.085178
-0.083756
-0.179712
-0.181856
-0.082717
-0.084909
-0.080215
-0.074858
-0.083465
-0.087194
-0.092483
-0.068927
-0.051497
-0.172008
-0.169267
-0.176390
-0.171087
-0.162071
-0.166119
-0.076487
-0.085526
-0.202818
-0.089995
-0.087993
-0.174543
-0.216790
-0.210161
-0.188299
-0.174799
-0.180957
-0.054845
-0.175080
-0.177474
-0.181812
-0.094282
-0.092242
-0.170471
-0.172526
-0.101092
-0.096147
-0.101337
-0.151879
-0.159969
-0.152459
-0.158299
-0.094715
-0.092105
-0.145846
-0.143819
-0.152459
-0.085357
-0.088914
-0.165995
-0.168341
-0.172669
-0.165398
-0.167251
-0.179205
-0.056569
-0.104997
-0.110206
-0.161407
-0.163481
-0.292358
-0.282673
-0.264820
-0.265917
-0.157009
-0.159276
-0.163688
-0.060454
-0.256959
-0.148056
-0.150344
-0.289384
-0.154709
-0.170248
-0.109960
-0.103373
-0.063406
-0.152426
-0.260314
-0.154496
-0.139120
-0.141329
-0.099005
-0.096911
-0.210649
-0.143489
-0.145570
-0.052059
-0.161338
-0.162712
-0.134551
-0.136686
-0.132405
-0.125635
-0.127763
-0.202869
-0.113876
-0.119096
-0.103632
-0.101507
-0.239092
-0.268491
-0.118853
-0.112250
-0.099432
-0.090532
-0.094219
-0.123500
-0.116738
-0.115513
-0.124403
-0.279942
-0.210905
-0.133284
-0.127999
-0.147585
-0.142241
-0.150892
-0.145800
-0.106641
-0.111932
-0.112484
-0.121351
-0.114613
-0.107861
-0.257717
-0.097779
-0.105758
-0.062134
-0.233151
-0.145535
-0.144824
-0.103071
-0.130202
-0.136915
-0.122771
-0.150187
-0.149691
-0.156674
-0.147802
-0.293839
-0.136259
-0.190603
-0.186489
-0.107389
-0.081636
-0.121147
-0.073046
-0.131674
-0.130053
-0.140577
-0.138942
-0.149060
-0.170024
-0.176982
-0.174273
-0.114478
-0.150282
-0.143370
-0.148600
-0.156896
-0.158098
-0.154732
-0.155969
-0.089419
-0.241466
-0.235044
-0.091975
-0.188082
-0.183785
-0.170614
-0.166200
-0.164788
-0.096879
-0.175800
-0.245880
-0.160880
-0.056171
-0.101611
-0.182027
-0.180266
-0.143296
-0.140184
-0.185630
-0.154958
-0.106440
-0.190176
-0.163185
-0.195944
-0.251804
-0.284954
-0.275865
-0.037889
-0.030138
-0.030946
-0.035425
-0.008756
-0.014052
-0.007508
-0.016919
-0.293749
-0.289485
-0.292565
-0.181835
-0.174059
-0.171250
-0.269427
-0.276221
-0.278703
-0.270231
-0.292641
-0.293567
-0.023006
-0.030817
-0.258877
-0.255024
-0.252216
-0.246485
-0.262045
-0.265161
-0.268987
-0.182157
-0.187728
-0.180189
-0.050468
-0.059840
-0.056446
-0.236663
-0.226763
-0.233910
-0.057523
-0.240737
-0.249315
-0.242003
-0.244181
-0.247213
-0.250505
-0.255359
-0.237765
-0.232219
-0.054092
-0.048273
-0.051721
-0.176689
-0.042712
-0.248630
-0.258302
-0.265102
-0.262201
-0.268763
-0.273424
-0.270687
-0.263493
-0.190079
-0.245874
-0.236637
-0.243953
-0.242941
-0.020019
-0.025209
-0.017492
-0.011281
-0.007727
-0.091516
-0.082940
-0.085359
-0.238867
-0.239548
-0.261325
-0.252621
-0.260009
-0.012988
-0.008650
-0.006234
-0.254438
-0.017723
-0.015594
-0.021558
-0.014510
-0.007931
-0.290547
-0.284447
-0.282455
-0.287439
-0.023049
-0.024732
-0.020029
-0.034259
-0.027423
-0.038591
-0.008117
-0.014162
-0.283420
-0.277367
-0.292764
-0.292252
-0.283583
-0.291022
-0.234540
-0.227211
-0.233390
-0.280983
-0.278547
-0.286677
-0.224047
-0.286008
-0.020448
-0.015476
-0.008339
-0.006975
-0.295144
-0.285729
-0.287516
-0.281690
-0.290488
-0.277424
-0.295098
-0.027904
-0.293439
-0.020417
-0.266341
-0.276062
-0.269853
-0.027904
-0.279119
-0.024376
-0.178085
-0.045190
-0.041641
-0.037782
-0.046658
-0.041900
-0.040515
-0.032765
-0.033719
-0.260419
-0.008087
-0.104672
-0.102042
-0.111022
-0.278192
-0.273295
-0.279206
-0.277604
-0.264283
-0.262935
-0.271557
-0.285636
-0.014268
-0.020929
-0.024549
-0.172282
-0.167247
-0.028336
-0.169215
-0.169389
-0.046837
-0.173396
-0.163801
-0.259771
-0.258575
-0.252587
-0.041227
-0.042004
-0.032793
-0.265872
-0.273632
-0.249601
-0.047381
-0.054293
-0.046365
-0.037332
-0.102472
-0.097259
-0.094004
-0.257563
-0.252312
-0.016088
-0.009356
-0.252461
-0.090368
-0.024269
-0.029123
-0.163673
-0.285236
-0.286983
-0.280814
-0.009059
-0.027431
-0.033036
-0.275973
-0.142712
-0.143486
-0.134007
-0.136448
-0.048130
-0.039707
-0.237019
-0.230553
-0.055032
-0.064248
-0.054263
-0.042974
-0.292558
-0.284189
-0.292517
-0.019615
-0.006766
-0.029264
-0.268340
-0.080264
-0.074154
-0.078449
-0.018592
-0.010542
-0.071462
-0.037693
-0.033252
-0.088244
-0.081387
-0.089143
-0.105764
-0.100133
-0.097765
-0.106987
-0.066964
-0.090418
-0.095759
-0.056042
-0.094169
-0.090870
-0.086408
-0.081245
-0.063343
-0.100722
-0.105313
-0.034348
-0.036169
-0.027302
-0.059285
-0.049348
-0.071741
-0.086515
-0.090607
-0.098293
-0.082535
-0.077938
-0.021082
-0.073532
-0.007935
-0.265495
-0.260312
-0.257496
-0.086083
-0.094115
-0.099388
-0.076573
-0.083904
-0.072704
-0.081998
-0.091102
-0.072491
-0.276720
-0.079556
-0.270282
-0.078732
-0.072428
-0.079088
-0.072906
-0.081400
-0.067924
-0.080347
-0.073331
-0.067760
-0.095334
-0.096487
-0.086646
-0.103596
-0.103015
-0.008761
-0.014821
-0.017516
-0.022040
-0.055618
-0.064280
-0.063002
-0.089603
-0.078483
-0.082154
-0.057831
-0.060827
-0.074569
-0.066214
-0.037207
-0.030150
-0.028173
-0.026880
-0.046515
-0.046899
-0.054866
-0.046690
-0.041567
-0.041432
-0.076189
-0.067801
-0.072058
-0.074809
-0.055548
-0.050826
-0.048048
-0.013034
-0.093669
-0.102744
-0.099826
-0.065030
-0.074426
-0.069513
-0.015390
-0.036161
-0.029560
-0.035011
-0.025957
-0.072749
-0.108628
-0.229529
-0.230654
-0.221334
-0.022700
-0.020451
-0.223258
-0.292830
-0.059379
-0.054201
-0.064041
-0.284061
-0.050388
-0.111614
-0.108347
-0.028781
-0.014969
-0.243055
-0.234167
-0.241159
-0.236208
-0.056786
-0.098544
-0.059132
-0.219726
-0.228995
-0.222175
-0.118588
-0.121592
-0.007622
-0.114428
-0.196135
-0.198088
-0.187347
-0.189238
-0.064110
-0.252941
-0.027072
-0.067889
-0.047825
-0.263569
-0.240442
-0.063315
-0.094212
-0.093389
-0.100213
-0.258132
-0.179515
-0.171197
-0.173160
-0.181353
-0.225935
-0.230749
-0.220692
-0.226516
-0.164286
-0.008942
-0.163004
-0.107480
-0.116401
-0.042537
-0.215098
-0.216793
-0.050505
-0.103414
-0.225073
-0.204513
-0.206545
-0.124245
-0.118924
-0.128191
-0.063162
-0.257188
-0.166800
-0.161383
-0.167778
-0.164537
-0.158687
-0.182721
-0.174429
-0.180523
-0.176450
-0.173442
-0.190467
-0.189108
-0.185347
-0.086675
-0.079755
-0.213182
-0.207329
-0.207711
-0.213149
-0.218682
-0.231752
-0.199339
-0.197927
-0.194230
-0.202875
-0.267622
-0.270856
-0.251061
-0.245045
-0.116054
-0.106219
-0.113583
-0.109111
-0.109302
-0.112875
-0.231436
-0.224131
-0.232667
-0.222376
-0.215250
-0.216672
-0.120716
-0.118572
-0.217711
-0.215519
-0.220213
-0.225570
-0.216964
-0.213234
-0.207945
-0.231501
-0.248931
-0.128420
-0.131161
-0.124038
-0.129341
-0.138358
-0.134309
-0.223941
-0.214902
-0.097610
-0.210433
-0.212435
-0.125886
-0.083638
-0.090267
-0.112130
-0.125629
-0.119471
-0.245583
-0.125348
-0.122955
-0.118616
-0.206146
-0.208186
-0.129957
-0.127902
-0.199336
-0.204281
-0.199091
-0.148549
-0.140459
-0.147969
-0.142129
-0.205713
-0.208323
-0.154582
-0.156610
-0.147969
-0.215071
-0.211514
-0.134433
-0.132087
-0.127759
-0.135030
-0.133177
-0.121223
-0.243859
-0.195431
-0.190222
-0.139021
-0.136947
-0.008070
-0.017756
-0.035608
-0.034511
-0.143419
-0.141152
-0.136740
-0.239975
-0.043469
-0.152372
-0.150084
-0.011044
-0.145719
-0.130180
-0.190468
-0.197055
-0.237022
-0.148002
-0.040114
-0.145932
-0.161308
-0.159099
-0.201423
-0.203518
-0.089779
-0.156939
-0.154859
-0.248369
-0.139090
-0.137716
-0.165877
-0.163742
-0.168024
-0.174793
-0.172665
-0.097559
-0.186552
-0.181333
-0.196796
-0.198921
-0.061336
-0.031937
-0.181575
-0.188178
-0.200996
-0.209896
-0.206209
-0.176928
-0.183690
-0.184915
-0.176025
-0.020486
-0.089523
-0.167144
-0.172429
-0.152843
-0.158187
-0.149536
-0.154628
-0.193787
-0.188496
-0.187944
-0.179077
-0.185815
-0.192567
-0.042711
-0.202649
-0.194670
-0.238294
-0.067277
-0.154893
-0.155604
-0.197357
-0.170226
-0.163513
-0.177657
-0.150241
-0.150737
-0.143754
-0.152626
-0.006589
-0.164169
-0.109825
-0.113939
-0.193039
-0.218792
-0.179282
-0.227382
-0.168754
-0.170375
-0.159851
-0.161486
-0.151368
-0.130404
-0.123446
-0.126155
-0.185950
-0.150146
-0.157059
-0.151828
-0.143532
-0.142330
-0.145696
-0.144459
-0.211009
-0.058962
-0.065384
-0.208453
-0.112347
-0.116643
-0.129814
-0.134228
-0.135641
-0.203549
-0.124628
-0.054548
-0.139548
-0.244257
-0.198817
-0.118401
-0.120163
-0.157132
-0.160244
-0.114798
-0.145470
-0.193988
-0.110252
-0.137243
-0.104485
-0.048624
SCALARS UY float 1
LOOKUP_TABLE default
-0.000001
-0.000001
-0.700999
-0.700999
-0.280400
-0.420600
-0.000001
-0.000001
-0.000001
-0.000001
-0.000001
-0.000001
-0.000001
-0.000001
-0.000001
-0.000001
-0.000001
-0.000001
-0.000001
-0.000001
-0.000001
-0.000001
-0.000001
-0.000001
-0.000001
-0.000001
-0.000001
-0.000001
-0.000001
-0.000001
-0.000001
-0.000001
-0.000001
-0.000001
-0.000001
-0.000001
-0.000001
-0.000001
-0.000001
-0.021031
-0.042060
-0.063090
-0.084120
-0.105150
-0.126180
-0.147210
-0.168240
-0.189270
-0.210300
-0.231330
-0.252360
-0.273390
-0.294420
-0.315450
-0.336480
-0.357510
-0.378540
-0.399570
-0.440628
-0.460657
-0.480686
-0.500714
-0.520743
-0.540771
-0.560800
-0.580828
-0.600857
-0.620885
-0.640914
-0.660942
-0.680971
-0.700999
-0.700999
-0.700999
-0.700999
-0.700999
-0.700999
-0.700999
-0.700999
-0.700999
-0.700999
-0.700999
-0.700999
-0.700999
-0.700999
-0.700999
-0.700999
-0.700999
-0.700999
-0.700999
-0.700999
-0.700999
-0.700999
-0.700999
-0.700999
-0.700999
-0.700999
-0.700999
-0.700999
-0.700999
-0.700999
-0.700999
-0.700999
-0.700999
-0.679969
-0.658940
-0.637910
-0.616880
-0.595850
-0.574820
-0.553790
-0.532760
-0.511730
-0.490700
-0.469670
-0.448640
-0.427610
-0.406580
-0.385550
-0.364520
-0.343490
-0.322460
-0.301430
-0.260372
-0.240343
-0.220314
-0.200286
-0.180257
-0.160229
-0.140200
-0.120172
-0.100143
-0.080115
-0.060086
-0.040058
-0.020029
-0.284524
-0.288647
-0.292771
-0.296894
-0.301018
-0.305141
-0.309265
-0.313388
-0.317512
-0.321635
-0.325759
-0.329882
-0.334006
-0.338129
-0.342253
-0.346376
-0.350500
-0.354624
-0.358747
-0.362871
-0.366994
-0.371118
-0.375241
-0.379365
-0.383488
-0.387612
-0.391735
-0.395859
-0.399982
-0.404106
-0.408229
-0.412353
-0.416476
-0.432928
-0.427519
-0.318847
-0.326231
-0.309922
-0.336957
-0.627804
-0.643540
-0.649356
-0.630318
-0.487882
-0.501025
-0.516025
-0.385125
-0.385410
-0.374205
-0.681343
-0.671334
-0.684326
-0.662181
-0.648176
-0.630023
-0.682484
-0.683082
-0.489763
-0.506945
-0.491754
-0.505153
-0.473679
-0.487002
-0.471583
-0.664349
-0.682083
-0.685092
-0.661757
-0.665071
-0.682003
-0.600059
-0.598978
-0.583812
-0.646597
-0.569363
-0.572910
-0.587365
-0.555032
-0.539644
-0.555032
-0.541704
-0.554630
-0.567022
-0.435441
-0.435390
-0.419328
-0.674704
-0.422570
-0.524358
-0.522301
-0.521519
-0.534819
-0.536293
-0.522657
-0.509220
-0.504458
-0.662449
-0.619145
-0.619427
-0.604307
-0.636392
-0.375016
-0.387418
-0.396370
-0.380378
-0.396621
-0.680969
-0.683611
-0.663346
-0.517168
-0.538610
-0.460418
-0.454296
-0.442271
-0.309149
-0.328925
-0.311097
-0.474166
-0.324821
-0.677729
-0.664273
-0.658552
-0.670163
-0.665296
-0.650816
-0.668259
-0.683024
-0.330553
-0.314971
-0.305529
-0.663207
-0.667482
-0.682938
-0.351651
-0.341679
-0.448564
-0.442016
-0.433413
-0.472240
-0.466031
-0.450413
-0.684856
-0.666895
-0.666973
-0.624268
-0.608160
-0.618405
-0.683458
-0.636205
-0.342940
-0.360240
-0.688477
-0.368468
-0.682039
-0.485728
-0.601063
-0.589105
-0.584738
-0.654680
-0.594674
-0.342221
-0.610711
-0.646248
-0.423076
-0.460463
-0.446513
-0.652196
-0.638919
-0.358125
-0.403886
-0.585446
-0.602673
-0.585541
-0.321412
-0.333898
-0.347777
-0.353899
-0.602399
-0.683321
-0.606959
-0.610993
-0.589470
-0.595097
-0.573583
-0.590323
-0.502964
-0.480403
-0.669836
-0.651427
-0.643719
-0.574672
-0.615923
-0.617100
-0.634399
-0.687417
-0.385629
-0.371572
-0.400746
-0.674218
-0.682023
-0.659579
-0.374185
-0.619948
-0.639013
-0.627999
-0.649137
-0.666481
-0.640466
-0.630750
-0.623926
-0.592046
-0.339666
-0.328116
-0.358113
-0.366198
-0.513808
-0.531641
-0.511776
-0.665847
-0.683813
-0.601341
-0.583905
-0.648646
-0.529993
-0.600256
-0.619949
-0.685489
-0.512837
-0.527560
-0.524950
-0.414356
-0.406334
-0.385361
-0.540996
-0.366201
-0.385745
-0.381461
-0.361423
-0.638999
-0.623910
-0.650301
-0.653026
-0.348309
-0.333470
-0.372889
-0.380467
-0.568085
-0.559550
-0.551841
-0.583903
-0.565811
-0.582412
-0.608807
-0.387367
-0.384194
-0.372479
-0.420891
-0.438066
-0.368725
-0.401593
-0.422089
-0.389908
-0.405867
-0.411682
-0.436107
-0.450418
-0.433487
-0.458917
-0.679928
-0.431646
-0.417062
-0.623496
-0.549086
-0.569298
-0.547504
-0.566860
-0.357687
-0.546889
-0.531871
-0.493682
-0.513820
-0.507020
-0.390979
-0.399107
-0.347256
-0.510248
-0.496261
-0.493599
-0.526662
-0.507210
-0.443439
-0.525575
-0.460397
-0.592431
-0.605319
-0.586581
-0.587221
-0.588049
-0.569188
-0.426185
-0.423678
-0.404576
-0.443011
-0.452842
-0.446280
-0.556592
-0.355295
-0.551483
-0.543399
-0.576246
-0.586102
-0.596408
-0.604157
-0.468060
-0.467661
-0.486634
-0.505935
-0.375878
-0.397577
-0.367174
-0.387023
-0.364852
-0.482097
-0.470189
-0.485305
-0.466878
-0.507189
-0.526537
-0.487635
-0.643499
-0.649260
-0.625928
-0.468909
-0.446837
-0.615694
-0.614735
-0.531750
-0.542499
-0.526568
-0.489047
-0.522951
-0.542968
-0.534157
-0.558839
-0.550926
-0.567454
-0.669663
-0.655067
-0.632922
-0.687290
-0.489086
-0.472420
-0.486217
-0.500650
-0.662784
-0.677874
-0.650233
-0.563182
-0.558230
-0.543968
-0.566381
-0.435725
-0.439673
-0.452285
-0.426641
-0.329064
-0.574033
-0.530183
-0.549259
-0.543505
-0.567667
-0.545526
-0.561938
-0.533271
-0.601455
-0.582968
-0.584745
-0.542686
-0.603574
-0.516850
-0.497110
-0.560116
-0.454617
-0.448493
-0.442159
-0.430069
-0.460898
-0.405924
-0.468675
-0.423010
-0.612500
-0.615971
-0.629327
-0.500699
-0.520222
-0.295874
-0.537056
-0.390742
-0.411114
-0.407464
-0.384125
-0.404658
-0.607799
-0.454969
-0.387823
-0.620718
-0.549977
-0.669353
-0.375475
-0.355483