# vtk DataFile Version 2.0
Test
ASCII
DATASET POLYDATA
POINTS 1445 float
0.000000 0.000000 0.000000
1.000000 0.000000 0.000000
1.000000 1.000000 0.000000
0.000000 1.000000 0.000000
0.000000 0.400000 0.000000
1.000000 0.600000 0.000000
0.029412 0.000000 0.000000
0.058824 0.000000 0.000000
0.088235 0.000000 0.000000
0.117647 0.000000 0.000000
0.147059 0.000000 0.000000
0.176471 0.000000 0.000000
0.205882 0.000000 0.000000
0.235294 0.000000 0.000000
0.264706 0.000000 0.000000
0.294118 0.000000 0.000000
0.323529 0.000000 0.000000
0.352941 0.000000 0.000000
0.382353 0.000000 0.000000
0.411765 0.000000 0.000000
0.441176 0.000000 0.000000
0.470588 0.000000 0.000000
0.500000 0.000000 0.000000
0.529412 0.000000 0.000000
0.558824 0.000000 0.000000
0.588235 0.000000 0.000000
0.617647 0.000000 0.000000
0.647059 0.000000 0.000000
0.676471 0.000000 0.000000
0.705882 0.000000 0.000000
0.735294 0.000000 0.000000
0.764706 0.000000 0.000000
0.794118 0.000000 0.000000
0.823529 0.000000 0.000000
0.852941 0.000000 0.000000
0.882353 0.000000 0.000000
0.911765 0.000000 0.000000
0.941176 0.000000 0.000000
0.970588 0.000000 0.000000
1.000000 0.030000 0.000000
1.000000 0.060000 0.000000
1.000000 0.090000 0.000000
1.000000 0.120000 0.000000
1.000000 0.150000 0.000000
1.000000 0.180000 0.000000
1.000000 0.210000 0.000000
1.000000 0.240000 0.000000
1.000000 0.270000 0.000000
1.000000 0.300000 0.000000
1.000000 0.330000 0.000000
1.000000 0.360000 0.000000
1.000000 0.390000 0.000000
1.000000 0.420000 0.000000
1.000000 0.450000 0.000000
1.000000 0.480000 0.000000
1.000000 0.510000 0.000000
1.000000 0.540000 0.000000
1.000000 0.570000 0.000000
1.000000 0.628571 0.000000
1.000000 0.657143 0.000000
1.000000 0.685714 0.000000
1.000000 0.714286 0.000000
1.000000 0.742857 0.000000
1.000000 0.771429 0.000000
1.000000 0.800000 0.000000
1.000000 0.828571 0.000000
1.000000 0.857143 0.000000
1.000000 0.885714 0.000000
1.000000 0.914286 0.000000
1.000000 0.942857 0.000000
1.000000 0.971429 0.000000
0.970588 1.000000 0.000000
0.941176 1.000000 0.000000
0.911765 1.000000 0.000000
0.882353 1.000000 0.000000
0.852941 1.000000 0.000000
0.823529 1.000000 0.000000
0.794118 1.000000 0.000000
0.764706 1.000000 0.000000
0.735294 1.000000 0.000000
0.705882 1.000000 0.000000
0.676471 1.000000 0.000000
0.647059 1.000000 0.000000
0.617647 1.000000 0.000000
0.588235 1.000000 0.000000
0.558824 1.000000 0.000000
0.529412 1.000000 0.000000
0.500000 1.000000 0.000000
0.470588 1.000000 0.000000
0.441176 1.000000 0.000000
0.411765 1.000000 0.000000
0.382353 1.000000 0.000000
0.352941 1.000000 0.000000
0.323529 1.000000 0.000000
0.294118 1.000000 0.000000
0.264706 1.000000 0.000000
0.235294 1.000000 0.000000
0.205882 1.000000 0.000000
0.176471 1.000000 0.000000
0.147059 1.000000 0.000000
0.117647 1.000000 0.000000
0.088235 1.000000 0.000000
0.058824 1.000000 0.000000
0.029412 1.000000 0.000000
0.000000 0.970000 0.000000
0.000000 0.940000 0.000000
0.000000 0.910000 0.000000
0.000000 0.880000 0.000000
0.000000 0.850000 0.000000
0.000000 0.820000 0.000000
0.000000 0.790000 0.000000
0.000000 0.760000 0.000000
0.000000 0.730000 0.000000
0.000000 0.700000 0.000000
0.000000 0.670000 0.000000
0.000000 0.640000 0.000000
0.000000 0.610000 0.000000
0.000000 0.580000 0.000000
0.000000 0.550000 0.000000
0.000000 0.520000 0.000000
0.000000 0.490000 0.000000
0.000000 0.460000 0.000000
0.000000 0.430000 0.000000
0.000000 0.371429 0.000000
0.000000 0.342857 0.000000
0.000000 0.314286 0.000000
0.000000 0.285714 0.000000
0.000000 0.257143 0.000000
0.000000 0.228571 0.000000
0.000000 0.200000 0.000000
0.000000 0.171429 0.000000
0.000000 0.142857 0.000000
0.000000 0.114286 0.000000
0.000000 0.085714 0.000000
0.000000 0.057143 0.000000
0.000000 0.028571 0.000000
0.029412 0.405882 0.000000
0.058824 0.411765 0.000000
0.088235 0.417647 0.000000
0.117647 0.423529 0.000000
0.147059 0.429412 0.000000
0.176471 0.435294 0.000000
0.205882 0.441176 0.000000
0.235294 0.447059 0.000000
0.264706 0.452941 0.000000
0.294118 0.458824 0.000000
0.323529 0.464706 0.000000
0.352941 0.470588 0.000000
0.382353 0.476471 0.000000
0.411765 0.482353 0.000000
0.441176 0.488235 0.000000
0.470588 0.494118 0.000000
0.500000 0.500000 0.000000
0.529412 0.505882 0.000000
0.558824 0.511765 0.000000
0.588235 0.517647 0.000000
0.617647 0.523529 0.000000
0.647059 0.529412 0.000000
0.676471 0.535294 0.000000
0.705882 0.541176 0.000000
0.735294 0.547059 0.000000
0.764706 0.552941 0.000000
0.794118 0.558824 0.000000
0.823529 0.564706 0.000000
0.852941 0.570588 0.000000
0.882353 0.576471 0.000000
0.911765 0.582353 0.000000
0.941176 0.588235 0.000000
0.970588 0.594118 0.000000
0.948492 0.617586 0.000000
0.918239 0.609871 0.000000
0.126115 0.454845 0.000000
0.100318 0.465379 0.000000
0.103006 0.442114 0.000000
0.117916 0.480680 0.000000
0.029145 0.895585 0.000000
0.046774 0.918032 0.000000
0.024990 0.926329 0.000000
0.056315 0.899171 0.000000
0.977770 0.695981 0.000000
0.963577 0.714729 0.000000
0.973827 0.736127 0.000000
0.605253 0.549394 0.000000
0.579370 0.549801 0.000000
0.570019 0.533816 0.000000
0.896809 0.971959 0.000000
0.919426 0.957680 0.000000
0.927686 0.976215 0.000000
0.899487 0.944624 0.000000
0.974081 0.924646 0.000000
0.977161 0.898750 0.000000
0.076578 0.973587 0.000000
0.102577 0.974440 0.000000
0.861693 0.698664 0.000000
0.848870 0.723174 0.000000
0.839521 0.701504 0.000000
0.820447 0.720618 0.000000
0.872237 0.675719 0.000000
0.882611 0.694724 0.000000
0.895344 0.672729 0.000000
0.606326 0.947716 0.000000
0.624868 0.973015 0.000000
0.599776 0.977307 0.000000
0.167986 0.944019 0.000000
0.199183 0.948746 0.000000
0.187884 0.972901 0.000000
0.787752 0.856005 0.000000
0.754801 0.854462 0.000000
0.778588 0.832828 0.000000
0.191471 0.922393 0.000000
0.801312 0.812216 0.000000
0.829867 0.817276 0.000000
0.805526 0.837896 0.000000
0.812775 0.791772 0.000000
0.822869 0.769821 0.000000
0.833826 0.791773 0.000000
0.849982 0.772760 0.000000
0.791421 0.791198 0.000000
0.772962 0.808877 0.000000
0.180049 0.621172 0.000000
0.160680 0.621098 0.000000
0.172158 0.598185 0.000000
0.588124 0.962489 0.000000
0.142171 0.602810 0.000000
0.827587 0.748015 0.000000
0.859778 0.745080 0.000000
0.882413 0.743965 0.000000
0.872759 0.762938 0.000000
0.894601 0.765041 0.000000
0.910115 0.745588 0.000000
0.901004 0.726420 0.000000
0.877058 0.719626 0.000000
0.632694 0.945006 0.000000
0.818411 0.883232 0.000000
0.787667 0.883633 0.000000
0.812018 0.862064 0.000000
0.808649 0.907835 0.000000
0.066636 0.534974 0.000000
0.083909 0.552665 0.000000
0.058224 0.565435 0.000000
0.037551 0.542621 0.000000
0.025720 0.565794 0.000000
0.304619 0.971425 0.000000
0.276072 0.975195 0.000000
0.284125 0.946285 0.000000
0.795087 0.737757 0.000000
0.797357 0.768346 0.000000
0.869843 0.656802 0.000000
0.840870 0.648068 0.000000
0.865462 0.630915 0.000000
0.043233 0.441011 0.000000
0.028792 0.469222 0.000000
0.020751 0.443790 0.000000
0.846918 0.676414 0.000000
0.058991 0.463368 0.000000
0.051906 0.966804 0.000000
0.071758 0.947609 0.000000
0.048298 0.939447 0.000000
0.026398 0.956010 0.000000
0.967109 0.949068 0.000000
0.946807 0.928411 0.000000
0.940173 0.953295 0.000000
0.956764 0.974357 0.000000
0.076722 0.471546 0.000000
0.082324 0.449317 0.000000
0.066669 0.435847 0.000000
0.114035 0.946088 0.000000
0.091278 0.952186 0.000000
0.128453 0.974235 0.000000
0.027019 0.501643 0.000000
0.047138 0.487417 0.000000
0.943388 0.639892 0.000000
0.923239 0.630552 0.000000
0.974491 0.618278 0.000000
0.972785 0.673666 0.000000
0.943930 0.664809 0.000000
0.968693 0.642530 0.000000
0.780685 0.976970 0.000000
0.756289 0.951349 0.000000
0.776857 0.951460 0.000000
0.935276 0.890540 0.000000
0.927168 0.867561 0.000000
0.954227 0.882176 0.000000
0.745760 0.974977 0.000000
0.952002 0.907568 0.000000
0.068063 0.489215 0.000000
0.051512 0.513895 0.000000
0.027757 0.982136 0.000000
0.023217 0.525632 0.000000
0.982410 0.972952 0.000000
0.951072 0.692907 0.000000
0.957020 0.857438 0.000000
0.937630 0.840379 0.000000
0.966912 0.834149 0.000000
0.923427 0.933924 0.000000
0.982257 0.848323 0.000000
0.092881 0.488189 0.000000
0.976737 0.871201 0.000000
0.067960 0.921895 0.000000
0.886538 0.603532 0.000000
0.918896 0.656866 0.000000
0.898227 0.636966 0.000000
0.092880 0.930380 0.000000
0.929071 0.911440 0.000000
0.081137 0.510877 0.000000
0.592772 0.576158 0.000000
0.150419 0.835159 0.000000
0.138607 0.859733 0.000000
0.125762 0.835294 0.000000
0.155304 0.458505 0.000000
0.139466 0.476317 0.000000
0.134858 0.496115 0.000000
0.109061 0.504849 0.000000
0.112238 0.859343 0.000000
0.866826 0.974780 0.000000
0.026919 0.865848 0.000000
0.348411 0.871602 0.000000
0.339654 0.840899 0.000000
0.369544 0.848927 0.000000
0.925986 0.818235 0.000000
0.909684 0.842117 0.000000
0.929360 0.717495 0.000000
0.924028 0.685311 0.000000
0.879688 0.955544 0.000000
0.875200 0.929284 0.000000
0.903901 0.918287 0.000000
0.950764 0.819790 0.000000
0.047492 0.878635 0.000000
0.069665 0.880314 0.000000
0.081712 0.904992 0.000000
0.573454 0.980624 0.000000
0.556694 0.550113 0.000000
0.094318 0.530060 0.000000
0.563246 0.571677 0.000000
0.563825 0.961795 0.000000
0.155902 0.972929 0.000000
0.577162 0.940912 0.000000
0.545227 0.533787 0.000000
0.864670 0.884377 0.000000
0.860690 0.911575 0.000000
0.840756 0.895862 0.000000
0.137227 0.926016 0.000000
0.139814 0.950758 0.000000
0.109156 0.913646 0.000000
0.884976 0.899786 0.000000
0.910807 0.890052 0.000000
0.830819 0.844574 0.000000
0.157710 0.484545 0.000000
0.180718 0.468069 0.000000
0.154331 0.510861 0.000000
0.124262 0.522394 0.000000
0.341085 0.732964 0.000000
0.323736 0.758404 0.000000
0.312899 0.730066 0.000000
0.857321 0.949854 0.000000
0.839840 0.975483 0.000000
0.053549 0.857833 0.000000
0.031143 0.832960 0.000000
0.840338 0.925315 0.000000
0.300796 0.756054 0.000000
0.080783 0.856286 0.000000
0.096939 0.884378 0.000000
0.544800 0.977874 0.000000
0.949430 0.731579 0.000000
0.955247 0.752582 0.000000
0.934712 0.748859 0.000000
0.030153 0.591093 0.000000
[...]
POINT_DATA 1445
SCALARS UX float 1
LOOKUP_TABLE default
-0.146143
-0.000000
0.000000
-0.146143
-0.146143
0.000000
-0.141844
-0.137546
-0.133248
-0.128949
-0.124651
-0.120353
-0.116055
-0.111756
-0.107458
-0.103160
-0.098861
-0.094563
-0.090265
-0.085966
-0.081668
-0.077370
-0.073071
-0.068773
-0.064475
-0.060176
-0.055878
-0.051580
-0.047281
-0.042983
-0.038685
-0.034387
-0.030088
-0.025790
-0.021492
-0.017193
-0.012895
-0.008597
-0.004298
-0.000000
-0.000000
-0.000000
-0.000000
-0.000000
-0.000000
-0.000000
-0.000000
-0.000000
-0.000000
-0.000000
-0.000000
-0.000000
-0.000000
-0.000000
-0.000000
-0.000000
0.000000
0.000000
-0.000000
-0.000000
0.000000
-0.000000
-0.000000
-0.000000
-0.000000
0.000000
-0.000000
0.000000
-0.000000
0.000000
-0.000000
-0.004298
-0.008597
-0.012895
-0.017193
-0.021492
-0.025790
-0.030088
-0.034387
-0.038685
-0.042983
-0.047281
-0.051580
-0.055878
-0.060176
-0.064475
-0.068773
-0.073071
-0.077370
-0.081668
-0.085966
-0.090265
-0.094563
-0.098861
-0.103160
-0.107458
-0.111756
-0.116055
-0.120353
-0.124651
-0.128949
-0.133248
-0.137546
-0.141844
-0.146143
-0.146143
-0.146143
-0.146143
-0.146143
-0.146143
-0.146143
-0.146143
-0.146143
-0.146143
-0.146143
-0.146143
-0.146143
-0.146143
-0.146143
-0.146143
-0.146143
-0.146143
-0.146143
-0.146143
-0.146143
-0.146143
-0.146143
-0.146143
-0.146143
-0.146143
-0.146143
-0.146143
-0.146143
-0.146143
-0.146143
-0.146143
-0.141844
-0.137546
-0.133248
-0.128949
-0.124651
-0.120353
-0.116055
-0.111756
-0.107458
-0.103160
-0.098861
-0.094563
-0.090265
-0.085966
-0.081668
-0.077370
-0.073071
-0.068773
-0.064475
-0.060176
-0.055878
-0.051580
-0.047281
-0.042983
-0.038685
-0.034387
-0.030088
-0.025790
-0.021492
-0.017193
-0.012895
-0.008597
-0.004298
-0.007528
-0.011949
-0.127712
-0.131482
-0.131089
-0.128910
-0.141883
-0.139307
-0.142491
-0.137913
-0.003249
-0.005323
-0.003825
-0.057689
-0.061472
-0.062839
-0.015081
-0.011775
-0.010568
-0.014689
-0.003788
-0.003338
-0.134951
-0.131152
-0.020213
-0.022087
-0.023453
-0.026240
-0.018672
-0.017156
-0.015295
-0.057533
-0.054823
-0.058490
-0.121593
-0.117034
-0.118685
-0.031019
-0.035834
-0.032358
-0.118161
-0.029037
-0.024864
-0.028421
-0.027362
-0.025886
-0.024285
-0.021924
-0.030482
-0.033180
-0.119830
-0.122661
-0.120983
-0.060193
-0.125366
-0.025197
-0.020492
-0.017185
-0.018595
-0.015403
-0.013136
-0.014468
-0.017967
-0.053679
-0.026538
-0.031031
-0.027472
-0.027965
-0.136404
-0.133880
-0.137634
-0.140655
-0.142384
-0.101625
-0.105797
-0.104620
-0.029947
-0.029615
-0.019021
-0.023256
-0.019662
-0.139825
-0.141935
-0.143110
-0.022372
-0.137522
-0.138557
-0.135656
-0.139084
-0.142285
-0.004807
-0.007774
-0.008743
-0.006319
-0.134930
-0.134112
-0.136400
-0.129477
-0.132803
-0.127370
-0.142194
-0.139254
-0.008273
-0.011218
-0.003728
-0.003977
-0.008194
-0.004575
-0.032051
-0.035617
-0.032611
-0.009459
-0.010644
-0.006689
-0.037155
-0.007015
-0.136196
-0.138615
-0.142086
-0.142750
-0.002571
-0.007151
-0.006281
-0.009115
-0.004836
-0.011191
-0.002593
-0.132569
-0.003400
-0.136211
-0.016582
-0.011853
-0.014873
-0.132569
-0.010366
-0.134285
-0.059513
-0.124160
-0.125886
-0.127764
-0.123446
-0.125761
-0.126434
-0.130204
-0.129740
-0.019462
-0.142209
-0.095225
-0.096505
-0.092137
-0.010817
-0.013199
-0.010323
-0.011103
-0.017583
-0.018239
-0.014044
-0.007195
-0.139202
-0.135962
-0.134201
-0.062337
-0.064786
-0.132359
-0.063828
-0.063744
-0.123359
-0.061795
-0.066462
-0.019778
-0.020359
-0.023272
-0.126088
-0.125710
-0.130190
-0.016810
-0.013035
-0.024725
-0.123095
-0.119732
-0.123588
-0.127983
-0.096296
-0.098831
-0.100415
-0.020852
-0.023406
-0.138317
-0.141591
-0.023333
-0.102184
-0.134337
-0.131976
-0.066524
-0.007390
-0.006540
-0.009541
-0.141736
-0.132799
-0.130073
-0.011896
-0.076721
-0.076344
-0.080955
-0.079768
-0.122730
-0.126827
-0.030845
-0.033990
-0.119373
-0.114889
-0.119747
-0.125238
-0.003829
-0.007899
-0.003848
-0.136601
-0.142852
-0.131907
-0.015609
-0.107098
-0.110071
-0.107981
-0.137099
-0.141015
-0.111380
-0.127807
-0.129967
-0.103216
-0.106552
-0.102779
-0.094694
-0.097433
-0.098585
-0.094099
-0.113568
-0.102159
-0.099561
-0.118881
-0.100334
-0.101939
-0.104110
-0.106621
-0.115329
-0.097147
-0.094913
-0.129434
-0.128548
-0.132862
-0.117304
-0.122138
-0.111244
-0.104058
-0.102067
-0.098328
-0.105994
-0.108230
-0.135888
-0.110373
-0.142283
-0.016993
-0.019514
-0.020884
-0.104268
-0.100360
-0.097796
-0.108894
-0.105328
-0.110776
-0.106255
-0.101826
-0.110880
-0.011533
-0.107443
-0.014665
-0.107844
-0.110910
-0.107671
-0.110678
-0.106546
-0.113101
-0.107058
-0.110471
-0.113181
-0.099768
-0.099207
-0.103994
-0.095749
-0.096032
-0.141881
-0.138933
-0.137622
-0.135422
-0.119087
-0.114874
-0.115496
-0.102556
-0.107965
-0.106179
-0.118011
-0.116553
-0.109869
-0.113933
-0.128043
-0.131476
-0.132438
-0.133067
-0.123516
-0.123329
-0.119453
-0.123430
-0.125922
-0.125988
-0.109081
-0.113161
-0.111090
-0.109752
-0.119121
-0.121419
-0.122770
-0.139802
-0.100578
-0.096163
-0.097583
-0.114509
-0.109939
-0.112328
-0.138656
-0.128552
-0.131763
-0.129112
-0.133516
-0.110754
-0.093301
-0.034489
-0.033942
-0.038475
-0.135100
-0.136194
-0.037539
-0.003696
-0.117258
-0.119777
-0.114990
-0.007962
-0.121632
-0.091849
-0.093438
-0.132142
-0.138861
-0.027909
-0.032232
-0.028831
-0.031240
-0.118519
-0.098206
-0.117378
-0.039258
-0.034749
-0.038066
-0.088456
-0.086995
-0.142435
-0.090479
-0.050733
-0.049783
-0.055008
-0.054088
-0.114956
-0.023100
-0.132973
-0.113118
-0.122878
-0.017930
-0.029180
-0.115343
-0.100314
-0.100714
-0.097394
-0.020575
-0.058818
-0.062864
-0.061909
-0.057924
-0.036237
-0.033895
-0.038788
-0.035954
-0.066226
-0.141793
-0.066850
-0.093859
-0.089520
-0.125451
-0.041509
-0.040684
-0.121574
-0.095837
-0.036656
-0.046658
-0.045669
-0.085704
-0.088292
-0.083784
-0.115418
-0.021034
-0.065003
-0.067638
-0.064528
-0.066104
-0.068950
-0.057259
-0.061292
-0.058328
-0.060309
-0.061772
-0.053490
-0.054152
-0.055981
-0.103980
-0.107346
-0.042441
-0.045288
-0.045102
-0.042457
-0.039765
-0.033408
-0.049175
-0.049862
-0.051660
-0.047455
-0.015958
-0.014385
-0.024014
-0.026941
-0.089689
-0.094473
-0.090891
-0.093066
-0.092973
-0.091235
-0.033561
-0.037115
-0.032962
-0.037968
-0.041435
-0.040743
-0.087421
-0.088464
-0.040237
-0.041304
-0.039021
-0.036415
-0.040601
-0.042415
-0.044988
-0.033530
-0.025051
-0.083673
-0.082340
-0.085805
-0.083225
-0.078839
-0.080808
-0.037207
-0.041604
-0.098660
-0.043778
-0.042804
-0.084906
-0.105457
-0.102233
-0.091598
-0.085031
-0.088026
-0.026679
-0.085167
-0.086332
-0.088442
-0.045863
-0.044871
-0.082925
-0.083925
-0.049176
-0.046770
-0.049295
-0.073881
-0.077817
-0.074164
-0.077004
-0.046074
-0.044804
-0.070947
-0.069960
-0.074163
-0.041522
-0.043252
-0.080748
-0.081889
-0.083995
-0.080458
-0.081359
-0.087174
-0.027518
-0.051076
-0.053609
-0.078516
-0.079525
-0.142217
-0.137506
-0.128821
-0.129355
-0.076377
-0.077480
-0.079626
-0.029408
-0.124997
-0.072022
-0.073135
-0.140771
-0.075258
-0.082817
-0.053490
-0.050286
-0.030844
-0.074148
-0.126629
-0.075154
-0.067675
-0.068749
-0.048161
-0.047142
-0.102470
-0.069800
-0.070812
-0.025324
-0.078483
-0.079151
-0.065452
-0.066491
-0.064408
-0.061115
-0.062150
-0.098685
-0.055395
-0.057934
-0.050411
-0.049378
-0.116306
-0.130607
-0.057816
-0.054604
-0.048369
-0.044039
-0.045833
-0.060076
-0.056787
-0.056191
-0.060516
-0.136178
-0.102595
-0.064836
-0.062265
-0.071793
-0.069193
-0.073401
-0.070924
-0.051875
-0.054449
-0.054718
-0.059031
-0.055753
-0.052469
-0.125366
-0.047565
-0.051446
-0.030225
-0.113416
-0.070795
-0.070449
-0.050139
-0.063337
-0.066602
-0.059722
-0.073058
-0.072817
-0.076214
-0.071898
-0.142937
-0.066283
-0.092719
-0.090717
-0.052239
-0.039712
-0.058932
-0.035533
-0.064053
-0.063264
-0.068384
-0.067588
-0.072510
-0.082708
-0.086092
-0.084775
-0.055688
-0.073104
-0.069742
-0.072286
-0.076322
-0.076907
-0.075269
-0.075871
-0.043498
-0.117461
-0.114337
-0.044741
-0.091492
-0.089402
-0.082995
-0.080848
-0.080161
-0.047127
-0.085518
-0.119608
-0.078260
-0.027324
-0.049429
-0.088547
-0.087690
-0.069706
-0.068192
-0.090299
-0.075379
-0.051778
-0.092511
-0.079381
-0.095316
-0.122490
-0.138615
-0.134194
-0.018431
-0.014661
-0.015054
-0.017233
-0.004259
-0.006836
-0.003652
-0.008230
-0.142894
-0.140820
-0.142318
-0.088453
-0.084671
-0.083304
-0.131062
-0.134367
-0.135575
-0.131454
-0.142355
-0.142805
-0.011191
-0.014991
-0.125930
-0.124056
-0.122690
-0.119902
-0.127471
-0.128987
-0.130848
-0.088610
-0.091320
-0.087653
-0.024550
-0.029109
-0.027458
-0.115124
-0.110309
-0.113785
-0.027982
-0.117106
-0.121279
-0.117722
-0.118781
-0.120256
-0.121858
-0.124219
-0.115660
-0.112963
-0.026313
-0.023482
-0.025160
-0.085950
-0.020777
-0.120946
-0.125650
-0.128958
-0.127547
-0.130739
-0.133007
-0.131675
-0.128176
-0.092464
-0.119605
-0.115112
-0.118671
-0.118178
-0.009738
-0.012263
-0.008509
-0.005488
-0.003759
-0.044518
-0.040346
-0.041523
-0.116196
-0.116528
-0.127121
-0.122887
-0.126481
-0.006318
-0.004208
-0.003033
-0.123771
-0.008621
-0.007586
-0.010487
-0.007058
-0.003858
-0.141336
-0.138369
-0.137400
-0.139824
-0.011212
-0.012031
-0.009743
-0.016665
-0.013340
-0.018772
-0.003949
-0.006889
-0.137869
-0.134925
-0.142415
-0.142165
-0.137948
-0.141567
-0.114091
-0.110526
-0.113532
-0.136684
-0.135499
-0.139453
-0.108987
-0.139128
-0.009947
-0.007528
-0.004056
-0.003393
-0.143572
-0.138992
-0.139862
-0.137028
-0.141307
-0.134952
-0.143550
-0.013574
-0.142743
-0.009932
-0.129561
-0.134290
-0.131269
-0.013574
-0.135777
-0.011858
-0.086629
-0.021983
-0.020256
-0.018379
-0.022697
-0.020382
-0.019708
-0.015938
-0.016403
-0.126680
-0.003934
-0.050918
-0.049638
-0.054006
-0.135326
-0.132944
-0.135819
-0.135040
-0.128560
-0.127904
-0.132099
-0.138947
-0.006941
-0.010181
-0.011942
-0.083806
-0.081357
-0.013784
-0.082314
-0.082399
-0.022784
-0.084348
-0.079681
-0.126365
-0.125784
-0.122870
-0.020055
-0.020433
-0.015952
-0.129333
-0.133108
-0.121418
-0.023048
-0.026411
-0.022554
-0.018160
-0.049847
-0.047312
-0.045728
-0.125291
-0.122737
-0.007826
-0.004551
-0.122809
-0.043959
-0.011806
-0.014167
-0.079619
-0.138752
-0.139602
-0.136601
-0.004407
-0.013344
-0.016070
-0.134247
-0.069422
-0.069798
-0.065188
-0.066375
-0.023413
-0.019316
-0.115298
-0.112152
-0.026770
-0.031254
-0.026396
-0.020905
-0.142314
-0.138243
-0.142294
-0.009542
-0.003291
-0.014236
-0.130534
-0.039044
-0.036072
-0.038162
-0.009044
-0.005128
-0.034762
-0.018336
-0.016176
-0.042926
-0.039591
-0.043364
-0.051449
-0.048709
-0.047558
-0.052043
-0.032574
-0.043984
-0.046582
-0.027262
-0.045808
-0.044203
-0.042033
-0.039522
-0.030813
-0.048996
-0.051229
-0.016709
-0.017594
-0.013281
-0.028839
-0.024005
-0.034898
-0.042085
-0.044076
-0.047815
-0.040149
-0.037913
-0.010255
-0.035770
-0.003860
-0.129150
-0.126628
-0.125259
-0.041875
-0.045782
-0.048347
-0.037249
-0.040815
-0.035367
-0.039888
-0.044317
-0.035263
-0.134610
-0.038700
-0.131478
-0.038299
-0.035232
-0.038472
-0.035465
-0.039597
-0.033041
-0.039085
-0.035672
-0.032962
-0.046375
-0.046936
-0.042149
-0.050394
-0.050111
-0.004262
-0.007209
-0.008521
-0.010721
-0.027056
-0.031269
-0.030647
-0.043587
-0.038178
-0.039964
-0.028132
-0.029589
-0.036274
-0.032210
-0.018099
-0.014667
-0.013704
-0.013076
-0.022627
-0.022814
-0.026690
-0.022713
-0.020220
-0.020154
-0.037062
-0.032982
-0.035053
-0.036391
-0.027021
-0.024724
-0.023373
-0.006341
-0.045565
-0.049980
-0.048560
-0.031634
-0.036204
-0.033815
-0.007486
-0.017590
-0.014380
-0.017031
-0.012627
-0.035389
-0.052842
-0.111654
-0.112201
-0.107667
-0.011043
-0.009948
-0.108604
-0.142447
-0.028885
-0.026366
-0.031153
-0.138181
-0.024511
-0.054294
-0.052705
-0.014000
-0.007282
-0.118234
-0.113910
-0.117311
-0.114903
-0.027623
-0.047937
-0.028765
-0.106885
-0.111394
-0.108077
-0.057687
-0.059148
-0.003708
-0.055663
-0.095410
-0.096360
-0.091135
-0.092054
-0.031186
-0.123043
-0.013169
-0.033025
-0.023264
-0.128213
-0.116962
-0.030799
-0.045829
-0.045429
-0.048748
-0.125568
-0.087325
-0.083278
-0.084233
-0.088219
-0.109906
-0.112248
-0.107355
-0.110188
-0.079917
-0.004350
-0.079293
-0.052283
-0.056623
-0.020692
-0.104634
-0.105458
-0.024568
-0.050306
-0.109487
-0.099485
-0.100474
-0.060439
-0.057850
-0.062358
-0.030725
-0.125109
-0.081140
-0.078505
-0.081615
-0.080039
-0.077193
-0.088884
-0.084850
-0.087815
-0.085834
-0.084371
-0.092652
-0.091991
-0.090162
-0.042163
-0.038797
-0.103702
-0.100855
-0.101040
-0.103686
-0.106377
-0.112735
-0.096968
-0.096281
-0.094483
-0.098688
-0.130184
-0.131758
-0.122128
-0.119202
-0.056454
-0.051670
-0.055252
-0.053077
-0.053170
-0.054908
-0.112581
-0.109028
-0.113180
-0.108174
-0.104708
-0.105400
-0.058722
-0.057679
-0.105905
-0.104839
-0.107122
-0.109728
-0.105542
-0.103727
-0.101155
-0.112613
-0.121092
-0.062470
-0.063803
-0.060338
-0.062918
-0.067304
-0.065335
-0.108936
-0.104539
-0.047482
-0.102365
-0.103339
-0.061237
-0.040686
-0.043910
-0.054545
-0.061112
-0.058116
-0.119464
-0.060975
-0.059811
-0.057701
-0.100280
-0.101272
-0.063217
-0.062218
-0.096967
-0.099372
-0.096848
-0.072262
-0.068326
-0.071979
-0.069138
-0.100069
-0.101338
-0.075196
-0.076182
-0.071979
-0.104621
-0.102891
-0.065395
-0.064254
-0.062148
-0.065685
-0.064784
-0.058969
-0.118625
-0.095067
-0.092533
-0.067627
-0.066618
-0.003926
-0.008637
-0.017321
-0.016788
-0.069766
-0.068663
-0.066517
-0.116735
-0.021145
-0.074121
-0.073008
-0.005372
-0.070885
-0.063326
-0.092653
-0.095857
-0.115299
-0.071995
-0.019513
-0.070989
-0.078468
-0.077394
-0.097982
-0.099001
-0.043673
-0.076343
-0.075331
-0.120819
-0.067660
-0.066992
-0.080691
-0.079652
-0.081735
-0.085028
-0.083993
-0.047458
-0.090748
-0.088209
-0.095731
-0.096765
-0.029837
-0.015536
-0.088327
-0.091539
-0.097774
-0.102104
-0.100310
-0.086067
-0.089356
-0.089952
-0.085627
-0.009965
-0.043548
-0.081307
-0.083878
-0.074350
-0.076950
-0.072742
-0.075218
-0.094267
-0.091694
-0.091425
-0.087112
-0.090390
-0.093674
-0.020777
-0.098578
-0.094697
-0.115918
-0.032727
-0.075347
-0.075693
-0.096004
-0.082806
-0.079541
-0.086421
-0.073085
-0.073326
-0.069929
-0.074245
-0.003205
-0.079860
-0.053424
-0.055425
-0.093903
-0.106431
-0.087211
-0.110610
-0.082090
-0.082879
-0.077759
-0.078555
-0.073633
-0.063435
-0.060050
-0.061368
-0.090455
-0.073038
-0.076401
-0.073857
-0.069821
-0.069236
-0.070874
-0.070272
-0.102645
-0.028682
-0.031806
-0.101402
-0.054651
-0.056741
-0.063148
-0.065295
-0.065982
-0.099016
-0.060625
-0.026535
-0.067883
-0.118819
-0.096714
-0.057596
-0.058453
-0.076437
-0.077950
-0.055843
-0.070764
-0.094365
-0.053632
-0.066762
-0.050826
-0.023653
SCALARS UY float 1
LOOKUP_TABLE default
-0.000000
-0.000000
-0.341000
-0.341000
-0.136400
-0.204600
-0.000000
-0.000000
-0.000000
-0.000000
-0.000000
-0.000000
-0.000000
-0.000000
-0.000000
-0.000000
-0.000000
-0.000000
-0.000000
-0.000000
-0.000000
-0.000000
-0.000000
-0.000000
-0.000000
-0.000000
-0.000000
-0.000000
-0.000000
-0.000000
-0.000000
-0.000000
-0.000000
-0.000000
-0.000000
-0.000000
-0.000000
-0.000000
-0.000000
-0.010230
-0.020460
-0.030690
-0.040920
-0.051150
-0.061380
-0.071610
-0.081840
-0.092070
-0.102300
-0.112530
-0.122760
-0.132990
-0.143220
-0.153450
-0.163680
-0.173910
-0.184140
-0.194370
-0.214343
-0.224086
-0.233829
-0.243571
-0.253314
-0.263057
-0.272800
-0.282543
-0.292286
-0.302028
-0.311771
-0.321514
-0.331257
-0.341000
-0.341000
-0.341000
-0.341000
-0.341000
-0.341000
-0.341000
-0.341000
-0.341000
-0.341000
-0.341000
-0.341000
-0.341000
-0.341000
-0.341000
-0.341000
-0.341000
-0.341000
-0.341000
-0.341000
-0.341000
-0.341000
-0.341000
-0.341000
-0.341000
-0.341000
-0.341000
-0.341000
-0.341000
-0.341000
-0.341000
-0.341000
-0.341000
-0.330770
-0.320540
-0.310310
-0.300080
-0.289850
-0.279620
-0.269390
-0.259160
-0.248930
-0.238700
-0.228470
-0.218240
-0.208010
-0.197780
-0.187550
-0.177320
-0.167090
-0.156860
-0.146630
-0.126657
-0.116914
-0.107171
-0.097429
-0.087686
-0.077943
-0.068200
-0.058457
-0.048714
-0.038972
-0.029229
-0.019486
-0.009743
-0.138406
-0.140412
-0.142418
-0.144424
-0.146429
-0.148435
-0.150441
-0.152447
-0.154453
-0.156459
-0.158465
-0.160471
-0.162476
-0.164482
-0.166488
-0.168494
-0.170500
-0.172506
-0.174512
-0.176518
-0.178524
-0.180529
-0.182535
-0.184541
-0.186547
-0.188553
-0.190559
-0.192565
-0.194571
-0.196576
-0.198582
-0.200588
-0.202594
-0.210597
-0.207966
-0.155102
-0.158694
-0.150761
-0.163912
-0.305394
-0.313049
-0.315878
-0.306617
-0.237329
-0.243723
-0.251019
-0.187343
-0.187482
-0.182031
-0.331438
-0.326569
-0.332889
-0.322117
-0.315304
-0.306474
-0.331993
-0.332284
-0.238244
-0.246602
-0.239213
-0.245731
-0.230420
-0.236901
-0.229401
-0.323171
-0.331798
-0.333262
-0.321910
-0.323522
-0.331759
-0.291898
-0.291372
-0.283994
-0.314536
-0.276965
-0.278691
-0.285722
-0.269994
-0.262509
-0.269994
-0.263511
-0.269799
-0.275827
-0.211819
-0.211794
-0.203981
-0.328209
-0.205558
-0.255073
-0.254072
-0.253692
-0.260162
-0.260879
-0.254245
-0.247709
-0.245392
-0.322247
-0.301182
-0.301319
-0.293964
-0.309572
-0.182426
-0.188459
-0.192813
-0.185034
-0.192936
-0.331256
-0.332542
-0.322683
-0.251575
-0.262006
-0.223969
-0.220991
-0.215142
-0.150385
-0.160005
-0.151332
-0.230657
-0.158008
-0.329680
-0.323135
-0.320351
-0.325999
-0.323632
-0.316588
-0.325074
-0.332256
-0.160797
-0.153217
-0.148624
-0.322616
-0.324695
-0.332214
-0.171060
-0.166209
-0.218203
-0.215018
-0.210833
-0.229720
-0.226700
-0.219103
-0.333147
-0.324410
-0.324448
-0.303674
-0.295838
-0.300822
-0.332467
-0.309480
-0.166822
-0.175238
-0.334908
-0.179240
-0.331776
-0.236281
-0.292386
-0.286569
-0.284445
-0.318468
-0.289278
-0.166473
-0.297079
-0.314366
-0.205804
-0.223991
-0.217205
-0.317259
-0.310801
-0.174209
-0.196470
-0.284789
-0.293169
-0.284835
-0.156350
-0.162424
-0.169175
-0.172154
-0.293036
-0.332400
-0.295254
-0.297216
-0.286746
-0.289484
-0.279018
-0.287162
-0.244666
-0.233691
-0.325840
-0.316886
-0.313136
-0.279548
-0.299614
-0.300187
-0.308602
-0.334393
-0.187589
-0.180751
-0.194942
-0.327972
-0.331769
-0.320851
-0.182022
-0.301572
-0.310847
-0.305489
-0.315771
-0.324208
-0.311553
-0.306827
-0.303508
-0.288000
-0.165230
-0.159611
-0.174203
-0.178136
-0.249941
-0.258616
-0.248952
-0.323900
-0.332640
-0.292521
-0.284039
-0.315532
-0.257814
-0.291993
-0.301573
-0.333455
-0.249468
-0.256630
-0.255361
-0.201563
-0.197660
-0.187458
-0.263167
-0.178138
-0.187645
-0.185561
-0.175813
-0.310840
-0.303500
-0.316338
-0.317663
-0.169434
-0.162216
-0.181391
-0.185077
-0.276344
-0.272192
-0.268442
-0.284038
-0.275237
-0.283313
-0.296153
-0.188434
-0.186890
-0.181192
-0.204742
-0.213096
-0.179365
-0.195354
-0.205325
-0.189670
-0.197433
-0.200262
-0.212144
-0.219105
-0.210869
-0.223239
-0.330750
-0.209973
-0.202879
-0.303299
-0.267102
-0.276934
-0.266332
-0.275748
-0.173996
-0.266033
-0.258728
-0.240151
-0.249947
-0.246639
-0.190191
-0.194145
-0.168922
-0.248209
-0.241405
-0.240110
-0.256194
-0.246731
-0.215710
-0.255665
-0.223959
-0.288187
-0.294456
-0.285341
-0.285652
-0.286055
-0.276880
-0.207317
-0.206097
-0.196805
-0.215502
-0.220284
-0.217092
-0.270753
-0.172832
-0.268268
-0.264335
-0.280314
-0.285108
-0.290121
-0.293891
-0.227687
-0.227493
-0.236722
-0.246111
-0.182845
-0.193401
-0.178611
-0.188267
-0.177481
-0.234515
-0.228723
-0.236075
-0.227112
-0.246721
-0.256133
-0.237209
-0.313029
-0.315831
-0.304481
-0.228100
-0.217363
-0.299503
-0.299037
-0.258669
-0.263898
-0.256148
-0.237896
-0.254388
-0.264126
-0.259840
-0.271846
-0.267997
-0.276037
-0.325756
-0.318656
-0.307884
-0.334331
-0.237915
-0.229808
-0.236519
-0.243540
-0.322410
-0.329750
-0.316305
-0.273959
-0.271550
-0.264612
-0.275515
-0.211958
-0.213878
-0.220013
-0.207539
-0.160072
-0.279237
-0.257906
-0.267186
-0.264387
-0.276141
-0.265370
-0.273354
-0.259408
-0.292577
-0.283583
-0.284448
-0.263988
-0.293607
-0.251421
-0.241818
-0.272468
-0.221148
-0.218169
-0.215088
-0.209206
-0.224203
-0.197461
-0.227986
-0.205773
-0.297950
-0.299638
-0.306135
-0.243564
-0.253061
-0.143927
-0.261250
-0.190076
-0.199986
-0.198210
-0.186857
-0.196845
-0.295663
-0.221319
-0.188656
-0.301947
-0.267535
-0.325605
-0.182649
-0.172924