# vtk DataFile Version 2.0
Test
ASCII
DATASET POLYDATA
POINTS 3011 float
0.000000 0.000000 0.000000
2.000000 0.000000 0.000000
2.000000 4.000000 0.000000
0.000000 4.000000 0.000000
0.000000 0.500000 0.000000
1.500000 2.000000 0.000000
2.000000 2.500000 0.000000
0.285714 0.000000 0.000000
0.571429 0.000000 0.000000
0.857143 0.000000 0.000000
1.142857 0.000000 0.000000
1.428571 0.000000 0.000000
1.714286 0.000000 0.000000
2.000000 0.276366 0.000000
2.000000 0.523709 0.000000
2.000000 0.745076 0.000000
2.000000 0.943195 0.000000
2.000000 1.120508 0.000000
2.000000 1.279199 0.000000
2.000000 1.421225 0.000000
2.000000 1.548336 0.000000
2.000000 1.662097 0.000000
2.000000 1.763911 0.000000
2.000000 1.855033 0.000000
2.000000 1.936585 0.000000
2.000000 2.009573 0.000000
2.000000 2.074896 0.000000
2.000000 2.133358 0.000000
2.000000 2.185681 0.000000
2.000000 2.232509 0.000000
2.000000 2.274419 0.000000
2.000000 2.311927 0.000000
2.000000 2.345497 0.000000
2.000000 2.375541 0.000000
2.000000 2.402430 0.000000
2.000000 2.426495 0.000000
2.000000 2.448033 0.000000
2.000000 2.467309 0.000000
2.000000 2.484560 0.000000
2.000000 2.516256 0.000000
2.000000 2.535859 0.000000
2.000000 2.559499 0.000000
2.000000 2.588006 0.000000
2.000000 2.622383 0.000000
2.000000 2.663839 0.000000
2.000000 2.713831 0.000000
2.000000 2.774116 0.000000
2.000000 2.846815 0.000000
2.000000 2.934483 0.000000
2.000000 3.040202 0.000000
2.000000 3.167691 0.000000
2.000000 3.321430 0.000000
2.000000 3.506825 0.000000
2.000000 3.730395 0.000000
1.714286 4.000000 0.000000
1.428571 4.000000 0.000000
1.142857 4.000000 0.000000
0.857143 4.000000 0.000000
0.571429 4.000000 0.000000
0.285714 4.000000 0.000000
0.000000 3.713462 0.000000
0.000000 3.449209 0.000000
0.000000 3.205508 0.000000
0.000000 2.980761 0.000000
0.000000 2.773493 0.000000
0.000000 2.582346 0.000000
0.000000 2.406065 0.000000
0.000000 2.243495 0.000000
0.000000 2.093568 0.000000
0.000000 1.955302 0.000000
0.000000 1.827789 0.000000
0.000000 1.710194 0.000000
0.000000 1.601745 0.000000
0.000000 1.501730 0.000000
0.000000 1.409494 0.000000
0.000000 1.324431 0.000000
0.000000 1.245984 0.000000
0.000000 1.173639 0.000000
0.000000 1.106920 0.000000
0.000000 1.045390 0.000000
0.000000 0.988645 0.000000
0.000000 0.936314 0.000000
0.000000 0.888053 0.000000
0.000000 0.843545 0.000000
0.000000 0.802499 0.000000
0.000000 0.764646 0.000000
0.000000 0.729736 0.000000
0.000000 0.697541 0.000000
0.000000 0.667851 0.000000
0.000000 0.640469 0.000000
0.000000 0.615217 0.000000
0.000000 0.591929 0.000000
0.000000 0.570453 0.000000
0.000000 0.550646 0.000000
0.000000 0.532380 0.000000
0.000000 0.515535 0.000000
0.000000 0.483768 0.000000
0.000000 0.461535 0.000000
0.000000 0.431083 0.000000
0.000000 0.389372 0.000000
0.000000 0.332241 0.000000
0.000000 0.253989 0.000000
0.000000 0.146807 0.000000
0.010563 0.510563 0.000000
0.021127 0.521127 0.000000
0.031690 0.531690 0.000000
0.042254 0.542254 0.000000
0.052817 0.552817 0.000000
0.063380 0.563380 0.000000
0.073944 0.573944 0.000000
0.084507 0.584507 0.000000
0.095070 0.595070 0.000000
0.105634 0.605634 0.000000
0.116197 0.616197 0.000000
0.126761 0.626761 0.000000
0.137324 0.637324 0.000000
0.147887 0.647887 0.000000
0.158451 0.658451 0.000000
0.169014 0.669014 0.000000
0.179577 0.679577 0.000000
0.190141 0.690141 0.000000
0.200704 0.700704 0.000000
0.211268 0.711268 0.000000
0.221831 0.721831 0.000000
0.232394 0.732394 0.000000
0.242958 0.742958 0.000000
0.253521 0.753521 0.000000
0.264085 0.764085 0.000000
0.274648 0.774648 0.000000
0.285211 0.785211 0.000000
0.295775 0.795775 0.000000
0.306338 0.806338 0.000000
0.316901 0.816901 0.000000
0.327465 0.827465 0.000000
0.338028 0.838028 0.000000
0.348592 0.848592 0.000000
0.359155 0.859155 0.000000
0.369718 0.869718 0.000000
0.380282 0.880282 0.000000
0.390845 0.890845 0.000000
0.401408 0.901408 0.000000
0.411972 0.911972 0.000000
0.422535 0.922535 0.000000
0.433099 0.933099 0.000000
0.443662 0.943662 0.000000
0.454225 0.954225 0.000000
0.464789 0.964789 0.000000
0.475352 0.975352 0.000000
0.485915 0.985915 0.000000
0.496479 0.996479 0.000000
0.507042 1.007042 0.000000
0.517606 1.017606 0.000000
0.528169 1.028169 0.000000
0.538732 1.038732 0.000000
0.549296 1.049296 0.000000
0.559859 1.059859 0.000000
0.570423 1.070423 0.000000
0.580986 1.080986 0.000000
0.591549 1.091549 0.000000
0.602113 1.102113 0.000000
0.612676 1.112676 0.000000
0.623239 1.123239 0.000000
0.633803 1.133803 0.000000
0.644366 1.144366 0.000000
0.654930 1.154930 0.000000
0.665493 1.165493 0.000000
0.676056 1.176056 0.000000
0.686620 1.186620 0.000000
0.697183 1.197183 0.000000
0.707746 1.207746 0.000000
0.718310 1.218310 0.000000
0.728873 1.228873 0.000000
0.739437 1.239437 0.000000
0.750000 1.250000 0.000000
0.760563 1.260563 0.000000
0.771127 1.271127 0.000000
0.781690 1.281690 0.000000
0.792254 1.292254 0.000000
0.802817 1.302817 0.000000
0.813380 1.313380 0.000000
0.823944 1.323944 0.000000
0.834507 1.334507 0.000000
0.845070 1.345070 0.000000
0.855634 1.355634 0.000000
0.866197 1.366197 0.000000
0.876761 1.376761 0.000000
0.887324 1.387324 0.000000
0.897887 1.397887 0.000000
0.908451 1.408451 0.000000
0.919014 1.419014 0.000000
0.929577 1.429577 0.000000
0.940141 1.440141 0.000000
0.950704 1.450704 0.000000
0.961268 1.461268 0.000000
0.971831 1.471831 0.000000
0.982394 1.482394 0.000000
0.992958 1.492958 0.000000
1.003521 1.503521 0.000000
1.014085 1.514085 0.000000
1.024648 1.524648 0.000000
1.035211 1.535211 0.000000
1.045775 1.545775 0.000000
1.056338 1.556338 0.000000
1.066901 1.566901 0.000000
1.077465 1.577465 0.000000
1.088028 1.588028 0.000000
1.098592 1.598592 0.000000
1.109155 1.609155 0.000000
1.119718 1.619718 0.000000
1.130282 1.630282 0.000000
1.140845 1.640845 0.000000
1.151408 1.651408 0.000000
1.161972 1.661972 0.000000
1.172535 1.672535 0.000000
1.183099 1.683099 0.000000
1.193662 1.693662 0.000000
1.204225 1.704225 0.000000
1.214789 1.714789 0.000000
1.225352 1.725352 0.000000
1.235915 1.735915 0.000000
1.246479 1.746479 0.000000
1.257042 1.757042 0.000000
1.267606 1.767606 0.000000
1.278169 1.778169 0.000000
1.288732 1.788732 0.000000
1.299296 1.799296 0.000000
1.309859 1.809859 0.000000
1.320423 1.820423 0.000000
1.330986 1.830986 0.000000
1.341549 1.841549 0.000000
1.352113 1.852113 0.000000
1.362676 1.862676 0.000000
1.373239 1.873239 0.000000
1.383803 1.883803 0.000000
1.394366 1.894366 0.000000
1.404930 1.904930 0.000000
1.415493 1.915493 0.000000
1.426056 1.926056 0.000000
1.436620 1.936620 0.000000
1.447183 1.947183 0.000000
1.457746 1.957746 0.000000
1.468310 1.968310 0.000000
1.478873 1.978873 0.000000
1.489437 1.989437 0.000000
1.510417 2.010417 0.000000
1.520833 2.020833 0.000000
1.531250 2.031250 0.000000
1.541667 2.041667 0.000000
1.552083 2.052083 0.000000
1.562500 2.062500 0.000000
1.572917 2.072917 0.000000
1.583333 2.083333 0.000000
1.593750 2.093750 0.000000
1.604167 2.104167 0.000000
1.614583 2.114583 0.000000
1.625000 2.125000 0.000000
1.635417 2.135417 0.000000
1.645833 2.145833 0.000000
1.656250 2.156250 0.000000
1.666667 2.166667 0.000000
1.677083 2.177083 0.000000
1.687500 2.187500 0.000000
1.697917 2.197917 0.000000
1.708333 2.208333 0.000000
1.718750 2.218750 0.000000
1.729167 2.229167 0.000000
1.739583 2.239583 0.000000
1.750000 2.250000 0.000000
1.760417 2.260417 0.000000
1.770833 2.270833 0.000000
1.781250 2.281250 0.000000
1.791667 2.291667 0.000000
1.802083 2.302083 0.000000
1.812500 2.312500 0.000000
1.822917 2.322917 0.000000
1.833333 2.333333 0.000000
1.843750 2.343750 0.000000
1.854167 2.354167 0.000000
1.864583 2.364583 0.000000
1.875000 2.375000 0.000000
1.885417 2.385417 0.000000
1.895833 2.395833 0.000000
1.906250 2.406250 0.000000
1.916667 2.416667 0.000000
1.927083 2.427083 0.000000
1.937500 2.437500 0.000000
1.947917 2.447917 0.000000
1.958333 2.458333 0.000000
1.968750 2.468750 0.000000
1.979167 2.479167 0.000000
1.989583 2.489583 0.000000
0.206561 0.791563 0.000000
0.205359 0.816165 0.000000
0.186354 0.798211 0.000000
0.221961 0.800924 0.000000
0.280649 1.360489 0.000000
0.304015 1.400469 0.000000
0.229142 1.396096 0.000000
0.275922 1.451476 0.000000
1.869084 2.391788 0.000000
1.857928 2.378421 0.000000
1.238669 2.061899 0.000000
1.278787 2.082276 0.000000
1.238298 2.096047 0.000000
1.277579 2.032995 0.000000
0.402536 1.205823 0.000000
0.415290 1.176040 0.000000
0.428330 1.201952 0.000000
0.387294 1.172617 0.000000
0.146930 1.050586 0.000000
0.109488 1.087198 0.000000
0.102742 1.042403 0.000000
0.157178 1.091184 0.000000
0.588967 1.178581 0.000000
0.593116 1.153718 0.000000
0.608054 1.166752 0.000000
0.612180 1.145944 0.000000
0.860304 1.543784 0.000000
0.868821 1.521840 0.000000
0.878420 1.536650 0.000000
0.845380 1.517623 0.000000
1.129525 1.764330 0.000000
1.142005 1.751560 0.000000
1.145757 1.773681 0.000000
1.159368 1.759106 0.000000
1.968150 2.518865 0.000000
1.986105 2.509269 0.000000
1.986696 2.531115 0.000000
0.668964 1.191005 0.000000
0.683291 1.201259 0.000000
0.557625 1.074830 0.000000
0.569760 1.084377 0.000000
0.557769 1.089278 0.000000
0.707567 1.266174 0.000000
0.719026 1.281845 0.000000
0.700768 1.282275 0.000000
0.722329 1.266956 0.000000
0.468225 2.149688 0.000000
0.419106 2.064198 0.000000
0.523878 2.082648 0.000000
0.838546 1.421191 0.000000
0.823708 1.410355 0.000000
0.840477 1.404206 0.000000
0.818500 1.425973 0.000000
0.953187 1.488222 0.000000
0.959780 1.473222 0.000000
0.967054 1.485637 0.000000
1.047418 1.769126 0.000000
1.080240 1.782403 0.000000
1.047768 1.802712 0.000000
0.971392 1.693320 0.000000
0.949208 1.720793 0.000000
0.940644 1.684781 0.000000
0.381391 2.160909 0.000000
0.944091 1.477800 0.000000
0.530075 1.477351 0.000000
0.521303 1.516669 0.000000
0.474240 1.491166 0.000000
0.489489 1.546185 0.000000
1.537370 2.239326 0.000000
1.555275 2.267640 0.000000
1.532966 2.278201 0.000000
0.962010 1.661716 0.000000
0.986804 1.643200 0.000000
0.986259 1.672729 0.000000
1.049149 1.737940 0.000000
1.075111 1.737123 0.000000
[...]
POINT_DATA 3011
SCALARS UX float 1
LOOKUP_TABLE default
-0.000000
0.000000
-0.557662
-1.246841
-0.447381
-0.171747
-0.332530
-0.000000
-0.000000
-0.000000
-0.000000
0.000000
-0.000000
0.232200
0.326072
0.378622
0.411109
0.430709
0.441016
0.442468
0.432404
0.408548
0.369007
0.309911
0.238712
0.158102
0.080010
0.007403
-0.056503
-0.110294
-0.154931
-0.191979
-0.222518
-0.247567
-0.268476
-0.285979
-0.300692
-0.313096
-0.323623
-0.341561
-0.351905
-0.363888
-0.376825
-0.391506
-0.407883
-0.424491
-0.442676
-0.461412
-0.478820
-0.496704
-0.513529
-0.529806
-0.543980
-0.553244
-0.676120
-0.786423
-0.887397
-0.980911
-1.071295
-1.159178
-1.237017
-1.218284
-1.189444
-1.158487
-1.128505
-1.104404
-1.088730
-1.081646
-1.084146
-1.094096
-1.110489
-1.129426
-1.150295
-1.171829
-1.192735
-1.212105
-1.229602
-1.244869
-1.257928
-1.268901
-1.277468
-1.284085
-1.288567
-1.290586
-1.290586
-1.288506
-1.285458
-1.282330
-1.279173
-1.274719
-1.267198
-1.255485
-1.235199
-1.204930
-1.104903
-0.692735
-0.362253
-0.307491
-0.263794
-0.240804
-0.211985
-0.175033
-0.121092
-0.608054
-0.588374
-0.589831
-0.592902
-0.598095
-0.595251
-0.608432
-0.602181
-0.619686
-0.609212
-0.597931
-0.614234
-0.615636
-0.623988
-0.602910
-0.596803
-0.609493
-0.617715
-0.605477
-0.604949
-0.608216
-0.617703
-0.617871
-0.615250
-0.630926
-0.623574
-0.633533
-0.628020
-0.648597
-0.651041
-0.655558
-0.641639
-0.634173
-0.620360
-0.630018
-0.607013
-0.597071
-0.590974
-0.602311
-0.581561
-0.578149
-0.563926
-0.558331
-0.561657
-0.562799
-0.553039
-0.548703
-0.543124
-0.535605
-0.519216
-0.510627
-0.505226
-0.501719
-0.496292
-0.509384
-0.509755
-0.501151
-0.501876
-0.488502
-0.500830
-0.493799
-0.486272
-0.479109
-0.472469
-0.454403
-0.465832
-0.460048
-0.457406
-0.448646
-0.447382
-0.431188
-0.446445
-0.445312
-0.456845
-0.481995
-0.477383
-0.468136
-0.473930
-0.464898
-0.461895
-0.460675
-0.448527
-0.442933
-0.415767
-0.407262
-0.420527
-0.416339
-0.398939
-0.393021
-0.394584
-0.391107
-0.392135
-0.386512
-0.375837
-0.372689
-0.363858
-0.360461
-0.353168
-0.354858
-0.342203
-0.338667
-0.319399
-0.306361
-0.309914
-0.297060
-0.286546
-0.272841
-0.276620
-0.273940
-0.266752
-0.269637
-0.263831
-0.270417
-0.259151
-0.270469
-0.269802
-0.253885
-0.263204
-0.260095
-0.253536
-0.276518
-0.259940
-0.259652
-0.240967
-0.251859
-0.251735
-0.232947
-0.245814
-0.234547
-0.227699
-0.219512
-0.242532
-0.245887
-0.238914
-0.233616
-0.216719
-0.217987
-0.208755
-0.192289
-0.189383
-0.182330
-0.171821
-0.176439
-0.181615
-0.190594
-0.197969
-0.204295
-0.211234
-0.217132
-0.221870
-0.226874
-0.231436
-0.235940
-0.240031
-0.244081
-0.248099
-0.252363
-0.256742
-0.261108
-0.265169
-0.269178
-0.273020
-0.276759
-0.280387
-0.284141
-0.287639
-0.291172
-0.294535
-0.297924
-0.301148
-0.304333
-0.307410
-0.310339
-0.313210
-0.315840
-0.318387
-0.320738
-0.322878
-0.324880
-0.326599
-0.328187
-0.329534
-0.330671
-0.331599
-0.332275
-0.332679
-0.332907
-0.332844
-1.187889
-1.205338
-1.211089
-1.179354
-1.115206
-1.097384
-1.122516
-1.093500
-0.337082
-0.333223
-0.555465
-0.526482
-0.553033
-0.533764
-1.115362
-1.117097
-1.107263
-1.127554
-1.226438
-1.230634
-1.240610
-1.215804
-1.029277
-1.006716
-0.995060
-0.935853
-0.871014
-0.870127
-0.863505
-0.882420
-0.697470
-0.691078
-0.685094
-0.676565
-0.361680
-0.346002
-0.357309
-0.840669
-0.780103
-0.854029
-0.782944
-0.945482
-0.939339
-0.936694
-0.962745
-0.911825
-0.909633
-0.931701
-0.890684
-0.881163
-0.893081
-0.871031
-0.900788
-0.733035
-0.575198
-0.621490
-0.737608
-0.718664
-0.726815
-0.790934
-0.792121
-0.805398
-0.941989
-0.736705
-1.004281
-0.996371
-1.018553
-0.998937
-0.428139
-0.435665
-0.454752
-0.802561
-0.794757
-0.789604
-0.745901
-0.733609
-0.731707
-0.413504
-0.741281
-0.655200
-0.533365
-0.556853
-0.631770
-0.499015
-0.475507
-0.495290
-0.462298
-0.490671
-0.475631
-0.997721
-1.007118
-0.992098
-0.998572
-0.975723
-0.978237
-1.001852
-0.953793
-1.152684
-1.139907
-1.145956
-1.150517
-0.685229
-0.699146
-0.675579
-0.723541
-0.983106
-0.997692
-0.966082
-0.389275
-0.390794
-0.411459
-1.013640
-1.172219
-1.189170
-1.194455
-0.978836
-0.973859
-0.964304
-0.960033
-1.210537
-1.059001
-1.031472
-1.070051
-0.387847
-0.364344
-0.371956
-0.707331
-0.692601
-0.680368
-1.101140
-1.096082
-0.658800
-0.896072
-0.885473
-0.904090
-0.883389
-0.355371
-0.383767
-0.382713
-0.879757
-0.868989
-0.882105
-0.347125
-1.082042
-0.940841
-0.996996
-1.059412
-1.057385
-1.046809
-1.234294
-1.219538
-1.047796
-0.819285
-0.830144
-0.805716
-1.245112
-0.814754
-0.717095
-0.702338
-1.223089
-1.211088
-1.210989
-0.970437
-0.894453
-0.854004
-1.003838
-1.030638
-0.251090
-0.245054
-0.271172
-0.610814
-0.620787
-0.633048
-0.686355
-0.667722
-0.683794
-0.729182
-0.750398
-0.761671
-0.699101
-1.076816
-1.109711
-1.104828
-0.889173
-0.899528
-0.897124
-0.808352
-0.889032
-1.258332
-1.249518
-1.262091
-1.015308
-1.044894
-0.368279
-0.773688
-0.314581
-0.336160
-0.332757
-0.904711
-0.889617
-0.898018
-0.933139
-0.440746
-0.453377
-0.473751
-0.966308
-0.991283
-0.956030
-0.584507
-0.568268
-0.562936
-0.605530
-0.317968
-0.317273
-0.366131
-0.579082
-0.598879
-0.600663
-0.626967
-0.570060
-0.588034
-0.685334
-0.671909
-0.729572
-0.719561
-0.271638
-0.252483
-0.311513
-0.953772
-1.039684
-1.049329
-1.062893
-1.061693
-0.703558
-0.428693
-0.428461
-0.402350
-0.509730
-0.518168
-0.490212
-0.532735
-0.473816
-0.462377
-0.448268
-0.292287
-0.282272
-0.841873
-0.828261
-0.828590
-0.842724
-0.872281
-0.848421
-0.867261
-0.847093
-0.492384
-0.509462
-0.488681
-0.491071
-0.487735
-0.527920
-0.320134
-0.299302
-0.329656
-0.296262
-0.291666
-0.929245
-0.933026
-0.949221
-0.913779
-0.921853
-0.908013
-0.911529
-0.940818
-0.935858
-0.917304
-0.848045
-0.858928
-0.845601
-0.858787
-0.617119
-0.607173
-0.594420
-0.632173
-0.729491
-0.892028
-0.909951
-0.898081
-0.902802
-0.891107
-0.882623
-0.340485
-0.361135
-0.348272
-0.372095
-0.677785
-0.669972
-0.853289
-0.849360
-0.836712
-0.460679
-0.511557
-0.633865
-0.701615
-0.721024
-0.696404
-0.716479
-0.786283
-0.791009
-0.763119
-0.806304
-0.316006
-0.304748
-0.773474
-0.687084
-0.835440
-0.731107
-0.736865
-0.748892
-0.475359
-0.503544
-0.529778
-0.715212
-0.763605
-0.751068
-0.767634
-0.459991
-0.479013
-0.396633
-0.367839
-0.402652
-0.374993
-0.550935
-0.549606
-0.571946
-0.561484
-1.252597
-1.250599
-1.264169
-1.238752
-1.107569
-1.066535
-1.004887
-0.982441
-0.997627
-1.061140
-0.280016
-1.134282
-1.135023
-1.147682
-1.144903
-0.630781
-0.611936
-0.601887
-0.582915
-0.851870
-0.833664
-0.820319
-0.811781
-0.328770
-0.309123
-0.322490
-0.301914
-0.325057
-0.354726
-1.106617
-1.116268
-1.137944
-1.223841
-1.238457
-1.214583
-1.243792
-1.240235
-1.229545
-0.755454
-0.767894
-0.767934
-0.479345
-0.507768
-1.091401
-1.086367
-1.101030
-1.091885
-1.105122
-0.856163
-0.842606
-0.858588
-0.844106
-1.132764
-1.147555
-1.147859
-1.125304
-0.917002
-0.902249
-1.229278
-1.223030
-1.215262
-1.220979
-1.231947
-1.206769
-1.223783
-1.182756
-1.102558
-1.141423
-1.203223
-1.177522
-1.187454
-1.207875
-1.191028
-0.791442
-0.788401
-0.802611
-0.622444
-1.115284
-1.094440
-1.062145
-1.177084
-1.128833
-0.437982
-0.432592
-0.417973
-0.462574
-0.462248
-0.432611
-1.179517
-1.180073
-1.189712
-1.082006
-1.065633
-1.048959
-1.075109
-0.524576
-0.485602
-0.507216
-0.539473
-0.759962
-0.754094
-1.119937
-1.107824
-1.119909
-1.105342
-1.021232
-1.103498
-1.137711
-0.981490
-1.001080
-1.149429
-0.363292
-0.384714
-0.388800
-0.354375
-1.153473
-1.143452
-0.608900
-0.607892
-0.635374
-0.640600
-0.625278
-0.769179
-0.816654
-0.786999
-0.849663
-0.933979
-0.926823
-0.928877
-1.257455
-1.262803
-1.270426
-1.247179
-0.419339
-0.618117
-1.197953
-1.200250
-1.212087
-1.243013
-1.218822
-1.208925
-0.392820
-0.380158
-0.366275
-1.187705
-1.188550
-1.211837
-1.092273
-1.154839
-1.138998
-0.361574
-0.348771
-0.366498
-0.346119
-0.358155
-0.576268
-0.560511
-1.194264
-1.199780
-1.188950
-0.377295
-0.546250
-0.518779
-0.527835
-1.112192
-1.075349
-1.060250
-1.076644
-1.063844
-1.051354
-0.987014
-0.982070
-1.186954
-1.169903
-1.279967
-1.272010
-1.269032
-1.262975
-1.107491
-0.278143
-1.113876
-1.191254
-1.218635
-1.155864
-1.126002
-0.433334
-0.463764
-1.194472
-1.228858
-1.202926
-0.343904
-1.233307
-0.435399
-0.429645
-0.457976
-1.194484
-1.202052
-1.181299
-0.803057
-0.763958
-0.778278
-0.740247
-0.751399
-1.227655
-1.224054
-1.239355
-1.242597
-0.481983
-0.513425
-1.176080
-1.156807
-1.167782
-1.152030
-1.048143
-1.036758
-1.054530
-1.026534
-1.046007
-1.049626
-1.036925
-1.022847
-1.041073
-1.179556
-1.216781
-0.411586
-0.412609
-1.125984
-1.113681
-1.126674
-1.116887
-1.135937
-0.218640
-0.229430
-0.263716
-1.017365
-1.017869
-1.133136
-1.141019
-1.022315
-1.009573
-0.635321
-0.669278
-0.655782
-0.632044
-0.981546
-1.151456
-1.116136
-1.120444
-1.105016
-0.543244
-0.323065
-0.343392
-0.339256
-0.361152
-0.764083
-0.771874
-0.744017
-0.735195
-0.713289
-0.716940
-0.487536
-0.460957
-0.393851
-0.403876
-0.732262
-0.708570
-0.409701
-0.405505
-0.916654
-1.121972
-1.137716
-1.109379
-1.007949
-0.946705
-1.120731
-1.155727
-0.531920
-0.973643
-1.274940
-0.508545
-0.641624
-0.655882
-0.339460
-0.350976
-0.380252
-1.271618
-1.141945
-1.135804
-1.155738
-0.661538
-0.665207
-0.684795
-0.678736
-0.358546
-1.226218
-1.219053
-1.208856
-1.134905
-0.538376
-0.544270
-0.566809
-0.560068
-0.325570
-1.278078
-1.278907
-1.268610
-1.150765
-1.249967
-0.966287
-0.990104
-0.941565
-0.982895
-1.028263
-1.141662
-1.206133
-0.706812
-0.735197
-0.748659
-0.692679
-0.785260
-0.820355
-0.740251
-1.152866
-0.840056
-0.860693
-0.728241
-0.764516
-0.755414
-1.227850
-1.239813
-1.220065
-1.267614
-1.254781
-0.936530
-0.872434
-0.919534
-0.885306
-1.228689
-0.722478
-0.788033
-0.775893
-0.909401
-0.929049
-0.912123
-1.164501
-1.155446
-1.181860
-1.110199
-1.111144
-1.143685
-1.145585
-0.882592
-0.875192
-0.861324
-0.852411
-0.839681
-0.629939
-0.656831
-0.779142
-0.818001
-0.832015
-0.826740
-0.812368
-0.601929
-0.679387
-0.690309
-0.715741
-0.723256
-1.088582
-1.033502
-1.049147
-0.997812
-1.127515
-1.155154
-1.191420
-1.125188
-0.346134
-1.164676
-1.163027
-1.178989
-1.179571
-0.936671
-0.950341
-0.925720
-0.981992
-0.965521
-1.266940
-1.170912
-1.169549
-1.252139
-0.268222
-0.281693
-1.002267
-1.200815
-0.276014
-0.455202
-0.970928
-1.004941
-0.977049
-0.608875
-1.017072
-1.245601
-1.225578
-1.280650
-1.264786
-0.349503
-1.236935
-0.822920
-0.917873
-0.836863
-1.173902
-1.233926
-0.340868
-0.943957
-1.015888
-1.082104
-1.043623
-0.457354
-0.486551
-0.480667
-0.330035
-0.346201
-0.328899
-1.015756
-1.120847
-1.140873
-1.181807
-0.991755
-0.644014
-0.676450
-0.705350
-0.744606
-1.159543
-1.156751
-0.948812
-0.952337
-0.922595
-0.893474
-0.537824
-0.869897
-1.274504
-1.069841
-1.079289
-1.073580
-0.703514
-1.028474
-1.020093
-1.016977
-1.041040
-1.001009
-0.989763
-0.973209
-0.952608
-1.047234
-0.956547
-0.973682
-0.961911
-0.606523
-0.551578
-0.576407
-0.872483
-1.091355
-1.101910
-1.089582
-1.196682
-1.169710
-1.211343
-1.244719
-0.982175
-0.668945
-0.970256
-1.007441
-1.014577
-0.991919
-1.254093
-1.198088
-1.008568
-1.009786
-1.100575
-0.622902
-0.382722
-0.406930
-1.243235
-0.989444
-0.829589
-1.264084
-1.148704
-1.124998
-1.145291
-0.553366
-1.241682
-0.587136
-0.582851
-0.600694
-0.908946
-0.859873
-1.254058
-0.949395
-1.072969
-1.084165
-1.101742
-0.533244
-0.773567
-0.802109
-0.779951
-0.997270
-1.118617
-0.978249
-1.130647
-1.122387
-1.113047
-1.038206
-1.043926
-1.137602
-1.216678
-0.337391
-0.312539
-1.092824
-1.091886
-1.103005
-0.347539
-0.865642
-0.849239
-0.377833
-0.441869
-0.594153
-0.712601
-0.742417
-1.218746
-1.233006
-0.701140
-0.697453
-0.804427
-0.756923
-0.903993
-0.937779
-1.169807
-1.144981
-1.163237
-0.492126
-0.511966
-0.667351
-0.645583
-1.022751
-1.163753
-1.146993
-1.030530
-1.043009
-1.030203
-1.117537
-1.254847
-1.034207
-0.892046
-0.898794
-1.175401
-1.184907
-1.185573
-0.492919
-0.915500
-0.921723
-0.935658
-1.083674
-0.974359
-1.161627
-1.150869
-0.915214
-0.877491
-0.875136
-0.941176
-0.771686
-0.347314
-1.049413
-0.913824
-0.912781
-1.087055
-1.077589
-1.102593
-1.031716
-1.040590
-1.037081
-0.597636
-0.830255
-0.883134
-0.875793
-0.756146
-0.794648
-1.038237
-0.953764
-0.917933
-0.593331
-0.592923
-0.580473
-0.684427
-0.897219
-1.161061
-1.163242
-1.172767
-1.174015
-0.496905
-0.442516
-0.513312
-0.954696
-0.943374
-1.053334
-1.041042
-1.050891
-1.040049
-1.051618
-0.617559
-0.339935
-0.337659
-0.642229
-0.552049
-0.655177
-0.592626
-1.097855
-0.985796
-0.975496
-1.157536
-1.141832
-1.149075
-0.877938
-0.458024
-0.477467
-0.871913
-0.724862
-0.746479
-1.163766
-0.745763
-1.024530
-0.875061
-1.086823
-0.984158
-0.974954
-1.076587
-0.773591
-0.757592
-0.766183
-0.761113
-0.372542
-0.956609
-1.067199
-0.466334
-0.990532
-1.112502
-0.489844
-0.523168
-0.515642
-0.542380
-0.514654
-0.547506
-0.563860
-1.192224
-1.153990
-1.209415
-1.057610
-1.073335
-1.066337
-0.735938
-0.760740
-1.081903
-1.113566
-1.140538
-0.914388
-0.863770
-1.011827
-1.082701
-0.639624
-0.928361
-1.068983
-1.170526
-1.212062
-0.340796
-0.796226
-1.102697
-1.127889
-1.089419
-0.823891
-0.847669
-0.690166
-0.775027
-0.790575
-0.804049
-0.823999
-0.882250
-0.832201
-0.838558
-0.793868
-0.813381
-0.819526
-0.946394
-1.147396
-0.266888
-0.264059
-0.932421
-1.093294
-0.940768
-0.948060
-0.954171
-0.621452
-0.664232
-0.820246
-0.825617
-0.832962
-0.829365
-0.529720
-0.493800
-1.048280
-1.036206
-0.931089
-1.069137
-0.783387
-0.713725
-1.095801
-0.562030
-0.558939
-1.127973
-0.871217
-0.844867
-0.854657
-0.353241
-0.585527
-0.557353
-0.569700
-1.151751
-1.168937
-0.487301
-1.077497
-0.968190
-1.088801
-0.548749
-1.003686
-0.970087
-0.823229
-1.084256
-1.032049
-1.027679
-0.926388
-0.577950
-0.608812
-0.587314
-0.357984
-0.341531
-0.363482
-0.380018
-0.349263
-0.570693
-0.287624
-0.297275
-1.041248
-0.738142
-0.734846
-1.019812
-0.939992
-0.918398
-0.510938
-0.526505
-0.857141
-1.075589
-0.888843
-1.064055
-1.062251
-0.948196
-0.939387
-0.952863
-0.350140
-0.364921
-1.031197
-0.817145
-0.952530
-0.578202
-0.446589
-0.430894
-0.433685
-0.483865
-0.504643
-0.431891
-1.045465
-1.093806
-0.995672
-0.841525
-0.832480
-0.954648
-1.168254
-0.941194
-0.648687
-0.689998
-0.651278
-0.691628
-0.996434
-0.988183
-0.881823
-1.039644
-0.504647
-1.030869
-0.959607
-0.837104
-0.819157
-0.445050
-0.456283
-1.078616
-0.333749
-0.314193
-1.127636
-0.717383
-0.842449
-0.323245
-0.764547
-0.466225
-1.000729
-0.352539
-1.190086
-0.433560
-1.059317
-0.968177
-0.925595
-0.941529
-1.179099
-0.578873
-0.576817
-0.616788
-0.532995
-0.652966
-0.632586
-0.638324
-0.896494
-0.833443
-0.841288
-0.896861
-0.650393
-0.617765
-0.997645
-0.582340
-0.846808
-0.852038
-1.010101
-0.996842
-1.000268
-0.996188
-0.988276
-0.984742
-0.828103
-1.117154
-0.656640
-0.836179
-0.501175
-0.526288
-0.478119
-0.996453
-0.651264
-0.703397
-0.609969
-0.987199
-1.070907
-1.102338
-0.753784
-0.732011
-0.771058
-0.564327
-0.581802
-0.604609
-0.622258
-0.339203
-0.316119
-0.338793
-0.302951
-1.123207
-1.209199
-0.736151
-0.734274
-0.746289
-0.693148
-0.964684
-0.590949
-0.578329
-0.573774
-0.779078
-0.774357
-0.895781
-0.863748
-0.558766
-0.565826
-0.548783
-0.812621
-0.822933
-0.677953
-0.786138
-0.780839
-1.085710
-1.012926
-0.362307
-0.348057
-0.812251
-0.797806
-0.799694
-0.375353
-0.385148
-0.328117
-0.362962
-1.111704
-0.540024
-0.308775
-0.978281
-0.969207
-0.966343
-0.428172
-0.404761
-0.434120
-0.994837
-1.009393
-0.408623
-1.051474
-1.079066
-1.090015
-0.387980
-0.437811
-0.804344
-0.817015
-0.792767
-0.765644
-0.867903
-0.327537
-0.281658
-0.345400
-0.829558
-0.798858
-0.912371
-0.823639
-0.934324
-0.924647
-0.917197
-0.330654
-0.368319
-1.161945
-1.188103
-0.892965
-0.716533
-0.686286
-0.838145
-0.750688
-1.256644
-0.792992
-1.048442
-1.051565
-1.015464
-0.435407
-1.031704
-1.046886
-1.074531
-1.074974
-0.461342
-0.834734
-1.191599
-0.524483
-0.234753
-0.256412
-0.493056
-0.479346
-0.470772
-0.442774
-0.685190
-0.691415
-0.690955
-0.711176
-0.704577
-0.505635
-0.298113
-0.306424
-0.837195
-0.738079
-0.798660
-0.974670
-0.955318
-0.724830
-0.680843
-0.804249
-0.680774
-0.930707
-0.659036
-0.661665
-0.627347
-0.657000
-0.291293
-0.592081
-0.621249
-0.311733
-0.331540
-0.287405
-0.357000
-0.554555
-0.406645
-0.848561
-0.801533
-0.559501
-0.468686
-0.527462
-0.720818
-0.765482
-0.989400
-1.007272
-1.009098
-0.942376
-0.938948
-0.700699
-0.694603
-0.800342
-0.585776
-0.565769
-0.610238
-0.547765
-0.520915
-0.388119
-0.372064
-0.583297
-0.589292
-0.455215
-0.443672
-0.424842
-0.377424
-0.351680
-0.413213
-1.058533
-0.306299
-0.264838
-0.279359
-0.259089
-0.340355
-0.273535
-0.279928
-0.795000
-0.797959
-0.891721
-0.414846
-0.389073
-1.064975
-0.285771
-0.535177
-0.504670
-0.615523
-0.367614
-1.261884
-1.253619
-1.035396
-1.240621
-1.255165
-0.730125
-1.014877
-0.779049
-0.986375
-0.935670
-0.985395
-1.047895
-0.975647
-0.561381
-0.533660
-0.682917
-0.638596
-0.360262
-0.407171
-0.454636
-0.742167
-0.475407
-0.743937
-0.608159
-0.594500
-1.012228
-0.447840
-0.681540
-0.459136
-0.468664
-0.322698
-0.309713
-0.236799
-0.233584
-0.290363
-0.280622
-0.258200
-0.686626
-0.647036
-1.150147
-0.392165
-0.423553
-0.398133
-0.407658
-0.746822
-0.596474
-0.601116
-0.990310
-0.982841
-0.934075
-0.945083
-0.860626
-0.866292
-0.651242
-0.654376
-0.667475
-0.451851
-0.994059
-0.968180
-1.020617
-0.373267
-0.396155
-0.515622
-0.540790
-0.562187
-0.634732
-0.957886
-0.872048
-1.000614
-0.350674
-0.582115
-0.594340
-0.601385
-0.354769
-0.338921
-0.354537
-1.109148
-0.556167
-0.845322
-0.881345
-0.871795
-0.903426
-0.967520
-0.594589
-0.882995
-1.251234
-0.984734
-0.546494
-0.660061
-0.782874
-0.811979
-0.648073
-0.878940
-0.908034
-0.886239
-0.660279
-0.447928
-0.821653
-0.929896
-0.953380
-0.731710
-0.854893
-0.631290
-0.745963
-1.151846
-1.080110
-0.431921
-0.550773
-1.070674
-0.587134
-0.559190
-0.402391
-0.781634
-0.422390
-0.615166
-0.580934
-0.828941
-0.826636
-0.915857
-0.657229
-1.162129
-0.727737
-0.955244
-0.486356
-0.458907
-0.569831
-0.700403
-0.693136
-0.484325
-0.505835
-1.182398
-1.181994
-0.892745
-0.943031
-0.539231
-0.541884
-0.742938
-0.921197
-0.382470
-0.908109
-0.390457
-0.415830
-0.747352
-0.829057
-0.810433
-0.404007
-0.408736
-0.399684
-0.472341
-0.778194
-0.651762
-0.400328
-0.395983
-0.439526
-0.384033
-0.334236
-0.317225
-0.775374
-0.652678
-0.661456
-0.511954
-1.226556
-0.244027
-0.702667
-0.520965
-1.016844
-0.607508
-0.378927
-0.832561
-0.889609
-0.342037
-0.764059
-0.315170
-0.267230
-1.000722
-0.781320
-1.138209
-1.057919
-0.820981
-0.840213
-0.864396
-0.848273
-0.923828
-0.826301
-0.735799
-0.779076
-0.461110
-0.644329
-0.618760
-0.612885
-0.706577
-0.488115
-0.870439
-0.402795
-0.423976
-0.274436
-0.819926
-0.900581
-0.643378
-0.570055
-0.556436
-0.304328
-0.500808
-1.047661
-0.434351
-0.560664
-0.795971
-0.486332
-0.302650
-0.409914
-0.296035
-0.289436
-1.058832
-0.323516
-0.881729
-0.388616
-0.304471
-0.445191
-0.811654
-0.659949
-0.647561
-0.850277
-0.797920
-0.643476
-0.843421
-0.720852
-0.727835
-0.578933
-0.767931
-0.534374
-0.529780
-0.516247
-0.847615
-0.692618
-0.367191
-0.413847
-0.613831
-0.757495
-0.580096
-0.605860
-0.613219
-0.452711
-0.868797
-0.573869
-0.730441
-0.427786
-0.630296
-0.418929
-0.880454
-0.752836
-0.788183
-0.321827
-0.229807
-0.713653
-0.494831
-0.495438
-0.275801
-0.664836
-0.543974
-0.465634
-1.067275
-0.955012
-0.380332
-0.526788
-0.307248
-0.363491
-0.379073
-0.878797
-0.783435
-0.622457
-0.198958
-0.171731
-0.170443
-0.322884
-0.207484
-0.256331
-0.159886
-0.211014
-0.107332
0.135277
0.095118
0.151092
0.084279
0.073496
0.109506
0.089407
0.203155
-0.005657
-0.005805
-0.028868
0.217068
0.264559
0.277838
-0.081294
-0.110560
-0.077038
-0.117916
-0.095029
-0.073872
-0.147448
-0.106992
-0.206916
-0.174855
-0.097501
-0.087865
-0.077403
-0.071958
-0.063533
-0.085537
-0.110088
0.131586
0.107326
0.122706
0.102792
-0.074024
-0.049719
-0.095260
-0.110271
-0.094098
-0.039398
-0.018051
0.168915
0.152781
0.163563
0.154041
-0.148341
-0.137154
-0.169626
0.067409
0.064345
-0.000188
0.015418