# vtk DataFile Version 2.0
Test
ASCII
DATASET POLYDATA
POINTS 3011 float
0.000000 0.000000 0.000000
2.000000 0.000000 0.000000
2.000000 4.000000 0.000000
0.000000 4.000000 0.000000
0.000000 0.500000 0.000000
1.500000 2.000000 0.000000
2.000000 2.500000 0.000000
0.285714 0.000000 0.000000
0.571429 0.000000 0.000000
0.857143 0.000000 0.000000
1.142857 0.000000 0.000000
1.428571 0.000000 0.000000
1.714286 0.000000 0.000000
2.000000 0.276366 0.000000
2.000000 0.523709 0.000000
2.000000 0.745076 0.000000
2.000000 0.943195 0.000000
2.000000 1.120508 0.000000
2.000000 1.279199 0.000000
2.000000 1.421225 0.000000
2.000000 1.548336 0.000000
2.000000 1.662097 0.000000
2.000000 1.763911 0.000000
2.000000 1.855033 0.000000
2.000000 1.936585 0.000000
2.000000 2.009573 0.000000
2.000000 2.074896 0.000000
2.000000 2.133358 0.000000
2.000000 2.185681 0.000000
2.000000 2.232509 0.000000
2.000000 2.274419 0.000000
2.000000 2.311927 0.000000
2.000000 2.345497 0.000000
2.000000 2.375541 0.000000
2.000000 2.402430 0.000000
2.000000 2.426495 0.000000
2.000000 2.448033 0.000000
2.000000 2.467309 0.000000
2.000000 2.484560 0.000000
2.000000 2.516256 0.000000
2.000000 2.535859 0.000000
2.000000 2.559499 0.000000
2.000000 2.588006 0.000000
2.000000 2.622383 0.000000
2.000000 2.663839 0.000000
2.000000 2.713831 0.000000
2.000000 2.774116 0.000000
2.000000 2.846815 0.000000
2.000000 2.934483 0.000000
2.000000 3.040202 0.000000
2.000000 3.167691 0.000000
2.000000 3.321430 0.000000
2.000000 3.506825 0.000000
2.000000 3.730395 0.000000
1.714286 4.000000 0.000000
1.428571 4.000000 0.000000
1.142857 4.000000 0.000000
0.857143 4.000000 0.000000
0.571429 4.000000 0.000000
0.285714 4.000000 0.000000
0.000000 3.713462 0.000000
0.000000 3.449209 0.000000
0.000000 3.205508 0.000000
0.000000 2.980761 0.000000
0.000000 2.773493 0.000000
0.000000 2.582346 0.000000
0.000000 2.406065 0.000000
0.000000 2.243495 0.000000
0.000000 2.093568 0.000000
0.000000 1.955302 0.000000
0.000000 1.827789 0.000000
0.000000 1.710194 0.000000
0.000000 1.601745 0.000000
0.000000 1.501730 0.000000
0.000000 1.409494 0.000000
0.000000 1.324431 0.000000
0.000000 1.245984 0.000000
0.000000 1.173639 0.000000
0.000000 1.106920 0.000000
0.000000 1.045390 0.000000
0.000000 0.988645 0.000000
0.000000 0.936314 0.000000
0.000000 0.888053 0.000000
0.000000 0.843545 0.000000
0.000000 0.802499 0.000000
0.000000 0.764646 0.000000
0.000000 0.729736 0.000000
0.000000 0.697541 0.000000
0.000000 0.667851 0.000000
0.000000 0.640469 0.000000
0.000000 0.615217 0.000000
0.000000 0.591929 0.000000
0.000000 0.570453 0.000000
0.000000 0.550646 0.000000
0.000000 0.532380 0.000000
0.000000 0.515535 0.000000
0.000000 0.483768 0.000000
0.000000 0.461535 0.000000
0.000000 0.431083 0.000000
0.000000 0.389372 0.000000
0.000000 0.332241 0.000000
0.000000 0.253989 0.000000
0.000000 0.146807 0.000000
0.010563 0.510563 0.000000
0.021127 0.521127 0.000000
0.031690 0.531690 0.000000
0.042254 0.542254 0.000000
0.052817 0.552817 0.000000
0.063380 0.563380 0.000000
0.073944 0.573944 0.000000
0.084507 0.584507 0.000000
0.095070 0.595070 0.000000
0.105634 0.605634 0.000000
0.116197 0.616197 0.000000
0.126761 0.626761 0.000000
0.137324 0.637324 0.000000
0.147887 0.647887 0.000000
0.158451 0.658451 0.000000
0.169014 0.669014 0.000000
0.179577 0.679577 0.000000
0.190141 0.690141 0.000000
0.200704 0.700704 0.000000
0.211268 0.711268 0.000000
0.221831 0.721831 0.000000
0.232394 0.732394 0.000000
0.242958 0.742958 0.000000
0.253521 0.753521 0.000000
0.264085 0.764085 0.000000
0.274648 0.774648 0.000000
0.285211 0.785211 0.000000
0.295775 0.795775 0.000000
0.306338 0.806338 0.000000
0.316901 0.816901 0.000000
0.327465 0.827465 0.000000
0.338028 0.838028 0.000000
0.348592 0.848592 0.000000
0.359155 0.859155 0.000000
0.369718 0.869718 0.000000
0.380282 0.880282 0.000000
0.390845 0.890845 0.000000
0.401408 0.901408 0.000000
0.411972 0.911972 0.000000
0.422535 0.922535 0.000000
0.433099 0.933099 0.000000
0.443662 0.943662 0.000000
0.454225 0.954225 0.000000
0.464789 0.964789 0.000000
0.475352 0.975352 0.000000
0.485915 0.985915 0.000000
0.496479 0.996479 0.000000
0.507042 1.007042 0.000000
0.517606 1.017606 0.000000
0.528169 1.028169 0.000000
0.538732 1.038732 0.000000
0.549296 1.049296 0.000000
0.559859 1.059859 0.000000
0.570423 1.070423 0.000000
0.580986 1.080986 0.000000
0.591549 1.091549 0.000000
0.602113 1.102113 0.000000
0.612676 1.112676 0.000000
0.623239 1.123239 0.000000
0.633803 1.133803 0.000000
0.644366 1.144366 0.000000
0.654930 1.154930 0.000000
0.665493 1.165493 0.000000
0.676056 1.176056 0.000000
0.686620 1.186620 0.000000
0.697183 1.197183 0.000000
0.707746 1.207746 0.000000
0.718310 1.218310 0.000000
0.728873 1.228873 0.000000
0.739437 1.239437 0.000000
0.750000 1.250000 0.000000
0.760563 1.260563 0.000000
0.771127 1.271127 0.000000
0.781690 1.281690 0.000000
0.792254 1.292254 0.000000
0.802817 1.302817 0.000000
0.813380 1.313380 0.000000
0.823944 1.323944 0.000000
0.834507 1.334507 0.000000
0.845070 1.345070 0.000000
0.855634 1.355634 0.000000
0.866197 1.366197 0.000000
0.876761 1.376761 0.000000
0.887324 1.387324 0.000000
0.897887 1.397887 0.000000
0.908451 1.408451 0.000000
0.919014 1.419014 0.000000
0.929577 1.429577 0.000000
0.940141 1.440141 0.000000
0.950704 1.450704 0.000000
0.961268 1.461268 0.000000
0.971831 1.471831 0.000000
0.982394 1.482394 0.000000
0.992958 1.492958 0.000000
1.003521 1.503521 0.000000
1.014085 1.514085 0.000000
1.024648 1.524648 0.000000
1.035211 1.535211 0.000000
1.045775 1.545775 0.000000
1.056338 1.556338 0.000000
1.066901 1.566901 0.000000
1.077465 1.577465 0.000000
1.088028 1.588028 0.000000
1.098592 1.598592 0.000000
1.109155 1.609155 0.000000
1.119718 1.619718 0.000000
1.130282 1.630282 0.000000
1.140845 1.640845 0.000000
1.151408 1.651408 0.000000
1.161972 1.661972 0.000000
1.172535 1.672535 0.000000
1.183099 1.683099 0.000000
1.193662 1.693662 0.000000
1.204225 1.704225 0.000000
1.214789 1.714789 0.000000
1.225352 1.725352 0.000000
1.235915 1.735915 0.000000
1.246479 1.746479 0.000000
1.257042 1.757042 0.000000
1.267606 1.767606 0.000000
1.278169 1.778169 0.000000
1.288732 1.788732 0.000000
1.299296 1.799296 0.000000
1.309859 1.809859 0.000000
1.320423 1.820423 0.000000
1.330986 1.830986 0.000000
1.341549 1.841549 0.000000
1.352113 1.852113 0.000000
1.362676 1.862676 0.000000
1.373239 1.873239 0.000000
1.383803 1.883803 0.000000
1.394366 1.894366 0.000000
1.404930 1.904930 0.000000
1.415493 1.915493 0.000000
1.426056 1.926056 0.000000
1.436620 1.936620 0.000000
1.447183 1.947183 0.000000
1.457746 1.957746 0.000000
1.468310 1.968310 0.000000
1.478873 1.978873 0.000000
1.489437 1.989437 0.000000
1.510417 2.010417 0.000000
1.520833 2.020833 0.000000
1.531250 2.031250 0.000000
1.541667 2.041667 0.000000
1.552083 2.052083 0.000000
1.562500 2.062500 0.000000
1.572917 2.072917 0.000000
1.583333 2.083333 0.000000
1.593750 2.093750 0.000000
1.604167 2.104167 0.000000
1.614583 2.114583 0.000000
1.625000 2.125000 0.000000
1.635417 2.135417 0.000000
1.645833 2.145833 0.000000
1.656250 2.156250 0.000000
1.666667 2.166667 0.000000
1.677083 2.177083 0.000000
1.687500 2.187500 0.000000
1.697917 2.197917 0.000000
1.708333 2.208333 0.000000
1.718750 2.218750 0.000000
1.729167 2.229167 0.000000
1.739583 2.239583 0.000000
1.750000 2.250000 0.000000
1.760417 2.260417 0.000000
1.770833 2.270833 0.000000
1.781250 2.281250 0.000000
1.791667 2.291667 0.000000
1.802083 2.302083 0.000000
1.812500 2.312500 0.000000
1.822917 2.322917 0.000000
1.833333 2.333333 0.000000
1.843750 2.343750 0.000000
1.854167 2.354167 0.000000
1.864583 2.364583 0.000000
1.875000 2.375000 0.000000
1.885417 2.385417 0.000000
1.895833 2.395833 0.000000
1.906250 2.406250 0.000000
1.916667 2.416667 0.000000
1.927083 2.427083 0.000000
1.937500 2.437500 0.000000
1.947917 2.447917 0.000000
1.958333 2.458333 0.000000
1.968750 2.468750 0.000000
1.979167 2.479167 0.000000
1.989583 2.489583 0.000000
0.206561 0.791563 0.000000
0.205359 0.816165 0.000000
0.186354 0.798211 0.000000
0.221961 0.800924 0.000000
0.280649 1.360489 0.000000
0.304015 1.400469 0.000000
0.229142 1.396096 0.000000
0.275922 1.451476 0.000000
1.869084 2.391788 0.000000
1.857928 2.378421 0.000000
1.238669 2.061899 0.000000
1.278787 2.082276 0.000000
1.238298 2.096047 0.000000
1.277579 2.032995 0.000000
0.402536 1.205823 0.000000
0.415290 1.176040 0.000000
0.428330 1.201952 0.000000
0.387294 1.172617 0.000000
0.146930 1.050586 0.000000
0.109488 1.087198 0.000000
0.102742 1.042403 0.000000
0.157178 1.091184 0.000000
0.588967 1.178581 0.000000
0.593116 1.153718 0.000000
0.608054 1.166752 0.000000
0.612180 1.145944 0.000000
0.860304 1.543784 0.000000
0.868821 1.521840 0.000000
0.878420 1.536650 0.000000
0.845380 1.517623 0.000000
1.129525 1.764330 0.000000
1.142005 1.751560 0.000000
1.145757 1.773681 0.000000
1.159368 1.759106 0.000000
1.968150 2.518865 0.000000
1.986105 2.509269 0.000000
1.986696 2.531115 0.000000
0.668964 1.191005 0.000000
0.683291 1.201259 0.000000
0.557625 1.074830 0.000000
0.569760 1.084377 0.000000
0.557769 1.089278 0.000000
0.707567 1.266174 0.000000
0.719026 1.281845 0.000000
0.700768 1.282275 0.000000
0.722329 1.266956 0.000000
0.468225 2.149688 0.000000
0.419106 2.064198 0.000000
0.523878 2.082648 0.000000
0.838546 1.421191 0.000000
0.823708 1.410355 0.000000
0.840477 1.404206 0.000000
0.818500 1.425973 0.000000
0.953187 1.488222 0.000000
0.959780 1.473222 0.000000
0.967054 1.485637 0.000000
1.047418 1.769126 0.000000
1.080240 1.782403 0.000000
1.047768 1.802712 0.000000
0.971392 1.693320 0.000000
0.949208 1.720793 0.000000
0.940644 1.684781 0.000000
0.381391 2.160909 0.000000
0.944091 1.477800 0.000000
0.530075 1.477351 0.000000
0.521303 1.516669 0.000000
0.474240 1.491166 0.000000
0.489489 1.546185 0.000000
1.537370 2.239326 0.000000
1.555275 2.267640 0.000000
1.532966 2.278201 0.000000
0.962010 1.661716 0.000000
0.986804 1.643200 0.000000
0.986259 1.672729 0.000000
1.049149 1.737940 0.000000
1.075111 1.737123 0.000000
[...]
POINT_DATA 3011
SCALARS UX float 1
LOOKUP_TABLE default
-0.000000
0.000000
-0.059436
-0.134706
-0.049666
-0.017807
-0.035116
-0.000000
-0.000000
-0.000000
-0.000000
0.000000
-0.000000
0.025345
0.035601
0.041356
0.044925
0.047084
0.048222
0.048376
0.047255
0.044615
0.040268
0.033813
0.026082
0.017387
0.009003
0.001234
-0.005592
-0.011334
-0.016100
-0.020058
-0.023323
-0.026004
-0.028243
-0.030119
-0.031697
-0.033028
-0.034159
-0.036086
-0.037199
-0.038488
-0.039881
-0.041463
-0.043228
-0.045020
-0.046984
-0.049009
-0.050893
-0.052829
-0.054652
-0.056415
-0.057952
-0.058957
-0.072355
-0.084392
-0.095419
-0.105639
-0.115517
-0.125124
-0.133641
-0.131610
-0.128481
-0.125121
-0.121865
-0.119246
-0.117545
-0.116778
-0.117058
-0.118153
-0.119952
-0.122029
-0.124317
-0.126677
-0.128966
-0.131086
-0.132999
-0.134670
-0.136100
-0.137304
-0.138255
-0.139009
-0.139556
-0.139862
-0.139980
-0.139904
-0.139733
-0.139488
-0.139002
-0.138042
-0.136892
-0.134261
-0.132363
-0.130083
-0.113151
-0.080140
-0.040248
-0.034014
-0.029026
-0.026411
-0.023186
-0.019111
-0.013224
-0.067430
-0.065285
-0.065064
-0.066183
-0.066633
-0.067044
-0.069216
-0.068372
-0.068377
-0.068302
-0.068769
-0.067450
-0.065653
-0.066968
-0.064929
-0.064935
-0.065386
-0.065958
-0.064742
-0.064839
-0.065224
-0.066331
-0.066410
-0.066158
-0.067926
-0.067147
-0.068265
-0.067667
-0.070012
-0.070274
-0.070795
-0.069279
-0.068482
-0.066998
-0.068040
-0.065546
-0.064470
-0.063812
-0.065041
-0.062793
-0.062424
-0.060874
-0.060263
-0.060640
-0.060758
-0.059693
-0.059220
-0.058611
-0.057782
-0.055995
-0.055052
-0.054456
-0.054065
-0.053472
-0.054890
-0.054933
-0.053985
-0.054059
-0.052594
-0.053934
-0.053171
-0.052348
-0.051560
-0.050837
-0.048896
-0.050138
-0.049555
-0.049306
-0.049013
-0.048627
-0.047331
-0.048185
-0.049003
-0.049525
-0.052021
-0.051399
-0.050241
-0.051177
-0.050660
-0.049796
-0.049665
-0.048302
-0.047663
-0.044635
-0.043673
-0.045046
-0.044547
-0.042617
-0.041943
-0.042654
-0.042140
-0.042170
-0.041582
-0.040079
-0.039920
-0.039003
-0.038405
-0.037825
-0.038128
-0.036857
-0.036520
-0.033985
-0.032662
-0.033292
-0.031836
-0.030608
-0.029110
-0.029525
-0.029233
-0.028448
-0.028757
-0.028124
-0.028837
-0.027607
-0.028838
-0.028765
-0.027036
-0.028054
-0.027714
-0.027022
-0.029546
-0.027741
-0.027727
-0.025698
-0.026941
-0.026898
-0.024692
-0.025393
-0.025174
-0.024510
-0.023360
-0.025705
-0.026035
-0.025220
-0.024645
-0.022798
-0.022914
-0.021895
-0.020089
-0.019761
-0.018973
-0.017799
-0.018430
-0.018964
-0.019960
-0.020772
-0.021471
-0.022217
-0.022870
-0.023390
-0.023940
-0.024445
-0.024947
-0.025468
-0.025972
-0.026455
-0.026904
-0.027324
-0.027757
-0.028166
-0.028574
-0.028968
-0.029354
-0.029730
-0.030120
-0.030484
-0.030853
-0.031204
-0.031558
-0.031894
-0.032227
-0.032548
-0.032853
-0.033153
-0.033426
-0.033691
-0.033935
-0.034156
-0.034363
-0.034540
-0.034703
-0.034840
-0.034955
-0.035047
-0.035113
-0.035150
-0.035168
-0.035155
-0.128750
-0.130588
-0.131226
-0.127826
-0.120487
-0.118538
-0.121284
-0.118110
-0.035691
-0.035286
-0.059394
-0.056253
-0.059095
-0.057053
-0.120572
-0.120783
-0.119703
-0.121914
-0.132643
-0.133102
-0.134196
-0.131481
-0.111289
-0.108851
-0.107582
-0.101177
-0.093965
-0.093890
-0.093162
-0.095225
-0.075014
-0.074339
-0.073666
-0.072763
-0.038267
-0.036572
-0.037787
-0.090814
-0.084224
-0.092350
-0.084618
-0.102255
-0.101492
-0.101102
-0.103969
-0.098491
-0.097988
-0.100400
-0.095919
-0.095202
-0.096497
-0.094134
-0.097306
-0.079231
-0.062041
-0.067086
-0.079326
-0.077276
-0.078130
-0.085104
-0.085223
-0.086696
-0.101522
-0.079430
-0.108367
-0.107500
-0.109922
-0.107777
-0.045728
-0.046537
-0.048598
-0.086409
-0.085580
-0.084967
-0.080250
-0.078936
-0.078711
-0.044148
-0.079777
-0.070539
-0.057365
-0.059903
-0.068018
-0.053307
-0.050765
-0.052933
-0.049379
-0.052456
-0.050802
-0.107687
-0.108724
-0.107095
-0.107733
-0.105239
-0.105508
-0.108161
-0.102838
-0.124590
-0.123206
-0.123853
-0.124396
-0.073541
-0.075043
-0.072479
-0.077709
-0.106031
-0.107631
-0.104175
-0.041423
-0.041636
-0.043852
-0.109370
-0.126718
-0.128569
-0.129145
-0.105663
-0.105141
-0.104105
-0.103669
-0.130905
-0.114325
-0.111313
-0.115530
-0.041174
-0.038640
-0.039449
-0.075921
-0.074304
-0.072985
-0.119019
-0.118490
-0.070619
-0.096606
-0.095407
-0.097436
-0.095235
-0.037723
-0.040807
-0.040687
-0.094897
-0.093705
-0.095124
-0.036835
-0.118012
-0.102563
-0.108378
-0.114518
-0.114314
-0.113162
-0.133507
-0.131894
-0.113284
-0.088124
-0.089319
-0.086638
-0.134690
-0.087674
-0.077045
-0.075463
-0.132311
-0.130976
-0.131017
-0.104946
-0.096729
-0.092333
-0.108568
-0.111456
-0.026514
-0.025880
-0.028679
-0.065435
-0.066512
-0.067868
-0.073761
-0.071723
-0.073456
-0.078925
-0.080851
-0.082171
-0.075145
-0.116536
-0.120087
-0.119567
-0.096014
-0.097118
-0.096881
-0.086999
-0.095976
-0.136282
-0.135291
-0.136653
-0.109790
-0.112993
-0.039077
-0.083391
-0.033354
-0.035668
-0.035316
-0.097711
-0.096092
-0.096958
-0.100831
-0.046955
-0.048301
-0.050531
-0.104420
-0.107124
-0.103333
-0.062627
-0.060849
-0.060287
-0.064905
-0.033707
-0.033623
-0.038920
-0.061965
-0.064109
-0.064313
-0.068428
-0.062297
-0.064147
-0.073432
-0.071943
-0.078252
-0.077131
-0.028677
-0.026596
-0.032974
-0.103127
-0.112423
-0.113459
-0.114934
-0.114791
-0.076037
-0.045613
-0.045610
-0.042785
-0.054492
-0.055432
-0.052404
-0.056988
-0.050646
-0.049392
-0.047885
-0.031048
-0.029989
-0.090860
-0.089427
-0.089443
-0.090955
-0.094234
-0.091671
-0.093686
-0.091525
-0.052561
-0.054413
-0.052161
-0.052166
-0.051980
-0.056276
-0.033915
-0.031656
-0.034938
-0.031434
-0.030957
-0.100411
-0.100833
-0.102533
-0.098615
-0.099519
-0.098016
-0.098426
-0.101621
-0.101053
-0.099128
-0.091501
-0.092705
-0.091277
-0.092660
-0.066259
-0.065206
-0.063815
-0.067909
-0.078344
-0.096463
-0.098394
-0.096859
-0.097404
-0.096122
-0.095453
-0.036260
-0.038486
-0.037123
-0.039681
-0.072847
-0.072019
-0.092071
-0.091629
-0.090276
-0.049468
-0.055007
-0.068266
-0.075565
-0.077657
-0.075019
-0.077143
-0.084857
-0.085437
-0.082399
-0.087023
-0.033522
-0.032290
-0.084568
-0.074634
-0.090463
-0.078745
-0.079356
-0.080618
-0.050737
-0.053778
-0.056654
-0.077050
-0.082136
-0.080747
-0.082535
-0.049160
-0.051219
-0.042207
-0.039081
-0.042842
-0.039842
-0.058965
-0.058722
-0.061237
-0.060032
-0.135514
-0.135291
-0.136784
-0.134005
-0.119850
-0.115420
-0.108763
-0.105874
-0.107513
-0.114461
-0.029580
-0.122699
-0.122763
-0.124142
-0.123823
-0.067547
-0.065488
-0.064396
-0.062359
-0.091680
-0.089691
-0.088232
-0.087299
-0.034962
-0.032851
-0.034272
-0.032065
-0.034441
-0.037654
-0.119540
-0.120593
-0.122968
-0.132837
-0.134554
-0.131843
-0.135058
-0.134222
-0.133041
-0.081295
-0.082609
-0.082614
-0.051158
-0.054240
-0.118024
-0.117467
-0.119057
-0.118051
-0.119485
-0.092324
-0.090812
-0.092544
-0.090930
-0.122580
-0.124171
-0.124217
-0.121784
-0.098936
-0.097366
-0.133078
-0.132427
-0.131569
-0.132161
-0.133342
-0.130569
-0.132937
-0.128074
-0.121814
-0.123063
-0.130330
-0.127585
-0.128624
-0.130798
-0.128987
-0.085077
-0.084745
-0.086298
-0.066667
-0.120330
-0.118064
-0.114525
-0.127088
-0.121834
-0.046511
-0.045939
-0.044345
-0.049183
-0.049165
-0.045959
-0.127608
-0.127649
-0.128710
-0.116848
-0.115060
-0.113233
-0.116091
-0.055913
-0.051671
-0.054009
-0.057519
-0.081758
-0.081107
-0.121155
-0.119839
-0.121133
-0.119560
-0.111117
-0.120396
-0.118712
-0.097494
-0.100497
-0.124630
-0.038499
-0.040800
-0.041258
-0.037553
-0.124782
-0.123700
-0.065277
-0.065168
-0.068147
-0.068715
-0.067044
-0.082584
-0.087757
-0.084554
-0.091381
-0.100779
-0.099979
-0.100255
-0.136856
-0.137381
-0.138257
-0.135643
-0.044481
-0.066032
-0.129662
-0.129887
-0.131177
-0.133762
-0.129672
-0.130864
-0.041733
-0.040383
-0.038877
-0.128752
-0.128846
-0.131330
-0.117964
-0.125352
-0.123650
-0.038278
-0.036889
-0.038802
-0.036610
-0.037895
-0.061619
-0.059946
-0.129142
-0.129787
-0.128605
-0.039948
-0.058485
-0.055501
-0.056498
-0.120263
-0.116204
-0.114545
-0.116306
-0.114964
-0.113591
-0.106553
-0.106025
-0.128331
-0.126467
-0.138656
-0.137831
-0.137449
-0.136835
-0.119783
-0.029378
-0.120462
-0.129434
-0.131623
-0.124975
-0.121951
-0.045988
-0.049286
-0.129238
-0.133198
-0.130340
-0.036357
-0.133956
-0.046292
-0.045653
-0.048721
-0.129314
-0.130150
-0.127924
-0.086369
-0.082111
-0.083673
-0.079534
-0.080749
-0.133015
-0.132599
-0.134255
-0.134640
-0.051444
-0.054832
-0.127343
-0.125286
-0.126508
-0.124797
-0.113177
-0.111911
-0.113858
-0.110796
-0.112923
-0.113315
-0.111929
-0.110388
-0.112378
-0.126523
-0.131058
-0.043744
-0.043838
-0.121715
-0.120365
-0.121747
-0.120677
-0.122756
-0.022978
-0.024146
-0.027842
-0.109850
-0.109888
-0.122541
-0.123383
-0.110410
-0.109016
-0.068125
-0.071815
-0.070337
-0.067753
-0.106896
-0.124693
-0.120901
-0.121380
-0.119694
-0.058443
-0.034237
-0.036420
-0.035989
-0.038340
-0.082091
-0.082940
-0.079898
-0.078938
-0.076545
-0.076942
-0.051937
-0.049064
-0.041729
-0.042827
-0.078618
-0.076031
-0.043505
-0.043032
-0.100387
-0.121326
-0.123009
-0.120258
-0.109289
-0.102601
-0.121495
-0.125234
-0.056857
-0.105476
-0.138690
-0.054306
-0.068713
-0.070283
-0.035905
-0.037141
-0.040280
-0.138246
-0.123408
-0.122736
-0.124916
-0.070928
-0.071291
-0.073434
-0.072823
-0.038071
-0.132703
-0.131907
-0.130805
-0.122640
-0.057531
-0.058149
-0.060623
-0.059916
-0.034493
-0.138682
-0.138930
-0.137792
-0.124725
-0.135593
-0.104169
-0.106774
-0.101473
-0.105977
-0.110937
-0.125214
-0.131245
-0.075899
-0.078965
-0.080445
-0.074348
-0.084428
-0.088251
-0.079566
-0.126401
-0.090399
-0.095183
-0.078229
-0.082157
-0.081173
-0.133074
-0.134396
-0.132197
-0.137424
-0.135981
-0.100877
-0.093885
-0.099002
-0.095308
-0.133154
-0.078268
-0.085174
-0.083851
-0.098005
-0.100155
-0.098365
-0.125878
-0.124887
-0.127771
-0.120204
-0.120290
-0.123802
-0.124023
-0.095055
-0.094252
-0.092727
-0.091756
-0.090358
-0.067551
-0.070472
-0.083813
-0.088124
-0.089681
-0.089148
-0.087728
-0.064499
-0.072925
-0.074109
-0.076874
-0.077690
-0.117494
-0.111484
-0.113176
-0.107581
-0.122062
-0.125138
-0.128970
-0.121689
-0.036592
-0.125957
-0.125724
-0.127456
-0.127574
-0.100959
-0.102448
-0.099768
-0.105982
-0.104211
-0.137097
-0.126664
-0.126534
-0.135473
-0.028611
-0.030026
-0.107979
-0.129924
-0.029384
-0.048369
-0.104682
-0.108398
-0.105354
-0.065237
-0.109727
-0.134899
-0.132550
-0.138825
-0.137220
-0.037063
-0.133932
-0.088379
-0.098755
-0.089908
-0.126636
-0.134030
-0.036089
-0.102255
-0.110074
-0.117262
-0.114487
-0.048709
-0.051886
-0.051217
-0.034960
-0.036692
-0.034828
-0.111317
-0.122012
-0.123925
-0.128134
-0.107589
-0.068868
-0.072398
-0.075563
-0.079841
-0.125428
-0.125111
-0.102390
-0.102803
-0.099403
-0.096224
-0.057516
-0.093680
-0.137997
-0.115659
-0.116688
-0.116081
-0.075538
-0.111104
-0.110207
-0.109840
-0.112354
-0.107979
-0.106755
-0.104941
-0.102691
-0.112997
-0.103199
-0.105035
-0.103753
-0.064789
-0.058802
-0.061499
-0.093809
-0.117891
-0.119078
-0.117746
-0.129393
-0.126444
-0.131284
-0.134907
-0.105948
-0.071789
-0.104615
-0.108678
-0.109494
-0.107023
-0.135735
-0.129542
-0.108927
-0.109085
-0.119024
-0.066719
-0.040559
-0.043171
-0.134578
-0.106682
-0.089248
-0.136833
-0.124149
-0.121560
-0.124226
-0.059207
-0.135112
-0.062974
-0.062473
-0.064422
-0.097896
-0.092549
-0.135757
-0.102296
-0.115874
-0.117096
-0.119022
-0.056828
-0.083125
-0.086244
-0.083824
-0.108090
-0.121227
-0.105525
-0.122321
-0.121441
-0.120424
-0.112030
-0.112660
-0.123082
-0.131762
-0.035858
-0.033191
-0.118214
-0.118123
-0.119331
-0.036965
-0.093264
-0.091425
-0.040146
-0.047012
-0.063675
-0.076477
-0.079732
-0.132005
-0.133541
-0.075242
-0.074893
-0.086374
-0.081176
-0.097374
-0.101067
-0.126651
-0.123978
-0.125930
-0.052567
-0.054703
-0.071528
-0.069170
-0.110374
-0.125793
-0.123960
-0.111270
-0.112656
-0.111260
-0.120634
-0.136051
-0.111616
-0.096105
-0.096834
-0.127234
-0.128270
-0.128324
-0.052483
-0.098657
-0.099346
-0.100862
-0.117510
-0.107165
-0.125670
-0.124515
-0.098604
-0.094479
-0.094136
-0.101338
-0.082811
-0.036801
-0.113265
-0.098457
-0.098348
-0.117493
-0.116375
-0.119111
-0.111477
-0.112432
-0.112029
-0.063805
-0.089331
-0.095090
-0.094293
-0.081224
-0.085429
-0.112335
-0.103207
-0.099316
-0.063505
-0.063483
-0.062153
-0.073399
-0.096651
-0.125628
-0.125881
-0.126895
-0.127043
-0.053281
-0.047442
-0.055011
-0.102943
-0.101713
-0.113231
-0.112503
-0.113584
-0.112413
-0.113643
-0.066160
-0.035964
-0.035726
-0.068847
-0.059215
-0.070244
-0.063407
-0.119191
-0.107034
-0.105870
-0.125282
-0.123590
-0.124361
-0.094528
-0.048880
-0.051004
-0.093995
-0.077819
-0.080192
-0.125968
-0.080096
-0.110984
-0.094734
-0.118109
-0.106956
-0.105860
-0.116359
-0.083171
-0.081439
-0.082330
-0.081842
-0.039472
-0.103765
-0.115825
-0.049756
-0.107416
-0.120631
-0.052166
-0.055780
-0.054978
-0.057889
-0.054893
-0.058480
-0.060200
-0.129150
-0.125410
-0.131070
-0.114190
-0.115907
-0.115140
-0.079036
-0.081737
-0.116955
-0.120304
-0.123408
-0.098505
-0.092984
-0.110062
-0.117748
-0.068562
-0.100023
-0.115546
-0.126680
-0.131069
-0.036072
-0.085618
-0.119113
-0.121869
-0.117663
-0.088627
-0.091227
-0.074017
-0.083291
-0.084994
-0.086459
-0.088639
-0.095002
-0.089515
-0.090220
-0.085355
-0.087488
-0.088117
-0.101995
-0.123878
-0.028299
-0.028074
-0.100977
-0.118251
-0.101482
-0.102244
-0.102900
-0.066427
-0.071085
-0.088330
-0.088895
-0.089723
-0.089356
-0.056940
-0.053046
-0.113511
-0.112213
-0.100817
-0.116143
-0.084199
-0.076648
-0.118571
-0.060154
-0.059792
-0.122053
-0.093793
-0.090914
-0.091985
-0.037395
-0.062545
-0.059475
-0.060807
-0.124556
-0.126434
-0.051833
-0.116521
-0.104545
-0.117752
-0.058740
-0.108649
-0.105021
-0.089069
-0.117358
-0.111387
-0.111066
-0.100297
-0.061905
-0.065245
-0.062934
-0.038004
-0.036227
-0.038601
-0.040385
-0.037056
-0.061021
-0.030621
-0.031564
-0.112737
-0.079219
-0.078896
-0.110333
-0.101705
-0.099358
-0.054514
-0.056229
-0.092259
-0.116328
-0.095728
-0.114897
-0.114715
-0.102405
-0.101425
-0.102881
-0.037071
-0.038662
-0.111469
-0.087887
-0.102649
-0.061950
-0.047666
-0.045952
-0.046230
-0.051739
-0.053990
-0.046098
-0.112856
-0.118683
-0.108013
-0.090745
-0.089618
-0.103110
-0.123887
-0.101682
-0.069521
-0.074028
-0.069844
-0.074169
-0.107781
-0.106895
-0.095374
-0.112456
-0.053984
-0.111563
-0.103862
-0.090565
-0.088115
-0.047448
-0.048672
-0.110956
-0.035516
-0.033439
-0.122046
-0.077006
-0.090229
-0.034435
-0.082146
-0.049740
-0.108261
-0.037520
-0.128796
-0.046205
-0.114492
-0.104695
-0.099950
-0.101624
-0.127616
-0.061793
-0.061559
-0.065937
-0.056789
-0.070196
-0.068006
-0.068602
-0.096903
-0.090163
-0.091052
-0.096802
-0.069945
-0.066385
-0.107959
-0.062595
-0.091133
-0.091701
-0.109151
-0.107688
-0.108005
-0.107566
-0.106688
-0.106307
-0.089085
-0.121163
-0.070432
-0.090494
-0.053332
-0.056558
-0.051334
-0.107418
-0.069984
-0.076079
-0.065821
-0.106930
-0.115978
-0.119388
-0.081016
-0.078639
-0.082988
-0.060347
-0.062218
-0.064725
-0.066607
-0.036001
-0.033521
-0.035973
-0.032087
-0.121623
-0.130765
-0.079263
-0.079043
-0.080332
-0.074522
-0.104040
-0.063288
-0.061913
-0.061394
-0.083790
-0.083294
-0.096690
-0.093128
-0.059766
-0.060534
-0.058700
-0.087759
-0.088808
-0.072783
-0.084682
-0.084032
-0.117525
-0.109660
-0.038538
-0.036991
-0.087598
-0.086047
-0.086188
-0.039924
-0.040997
-0.034880
-0.038639
-0.120338
-0.057793
-0.032743
-0.105596
-0.104596
-0.104336
-0.045601
-0.043065
-0.046260
-0.107404
-0.109255
-0.043482
-0.113775
-0.116746
-0.117937
-0.041252
-0.046645
-0.086895
-0.088235
-0.085695
-0.082960
-0.093748
-0.034720
-0.029772
-0.036670
-0.089545
-0.086270
-0.098373
-0.088856
-0.100918
-0.099913
-0.099067
-0.035063
-0.039140
-0.125947
-0.128733
-0.096349
-0.077706
-0.074147
-0.090674
-0.081156
-0.136454
-0.085295
-0.113391
-0.113736
-0.109828
-0.046487
-0.111540
-0.113245
-0.116225
-0.116282
-0.049405
-0.090457
-0.128939
-0.056156
-0.024712
-0.027030
-0.052690
-0.051218
-0.050266
-0.047255
-0.073784
-0.074433
-0.074355
-0.076541
-0.075800
-0.054103
-0.031745
-0.032667
-0.090602
-0.079923
-0.086476
-0.105209
-0.103059
-0.078323
-0.073524
-0.086916
-0.073244
-0.100612
-0.070914
-0.071172
-0.067483
-0.070717
-0.030989
-0.064008
-0.066892
-0.033247
-0.035354
-0.030663
-0.038082
-0.059316
-0.043287
-0.091367
-0.087138
-0.059962
-0.050058
-0.056338
-0.078133
-0.082635
-0.106958
-0.108892
-0.109096
-0.101847
-0.101457
-0.075710
-0.075078
-0.086480
-0.062858
-0.060719
-0.065487
-0.058800
-0.055890
-0.041416
-0.039694
-0.062437
-0.063111
-0.048563
-0.047329
-0.045276
-0.040196
-0.037395
-0.044041
-0.114473
-0.032423
-0.027958
-0.029534
-0.027408
-0.036293
-0.029096
-0.029757
-0.085923
-0.086219
-0.096383
-0.044155
-0.041371
-0.115265
-0.030339
-0.057202
-0.053883
-0.065944
-0.039059
-0.137158
-0.135715
-0.105957
-0.134162
-0.136419
-0.078248
-0.109374
-0.083811
-0.106631
-0.101131
-0.106528
-0.109513
-0.105332
-0.060123
-0.057124
-0.073099
-0.068263
-0.038485
-0.043476
-0.048682
-0.080166
-0.050827
-0.080428
-0.067195
-0.065375
-0.109413
-0.047741
-0.074005
-0.048958
-0.049990
-0.034246
-0.032842
-0.024943
-0.024606
-0.030752
-0.029721
-0.027301
-0.073969
-0.069690
-0.124726
-0.041454
-0.045218
-0.042481
-0.043487
-0.080517
-0.064212
-0.064425
-0.106938
-0.106165
-0.100947
-0.102108
-0.092839
-0.093433
-0.069905
-0.070212
-0.071666
-0.048193
-0.107459
-0.104653
-0.110334
-0.039682
-0.042152
-0.055135
-0.057844
-0.060142
-0.068086
-0.103455
-0.093895
-0.108069
-0.037236
-0.062304
-0.063634
-0.064418
-0.037688
-0.035988
-0.037675
-0.119836
-0.059564
-0.091469
-0.095307
-0.094352
-0.097713
-0.104784
-0.063942
-0.095080
-0.135547
-0.106437
-0.058799
-0.071089
-0.084173
-0.087503
-0.069590
-0.095127
-0.098106
-0.095774
-0.070939
-0.047751
-0.088769
-0.100316
-0.102880
-0.079323
-0.092541
-0.067743
-0.080750
-0.125102
-0.116798
-0.046056
-0.059238
-0.115828
-0.064159
-0.061291
-0.042540
-0.084005
-0.044989
-0.065791
-0.062090
-0.089680
-0.088817
-0.098926
-0.070509
-0.126048
-0.078479
-0.103234
-0.052205
-0.049223
-0.061191
-0.075387
-0.074676
-0.051719
-0.054046
-0.127937
-0.127911
-0.096038
-0.101519
-0.057587
-0.058335
-0.079880
-0.099590
-0.040778
-0.098163
-0.041618
-0.044342
-0.080309
-0.089621
-0.087587
-0.043019
-0.043551
-0.042925
-0.050710
-0.083659
-0.069767
-0.042731
-0.042248
-0.046925
-0.040923
-0.035495
-0.033668
-0.083235
-0.069926
-0.070853
-0.054740
-0.132827
-0.025737
-0.075340
-0.055792
-0.109939
-0.065321
-0.040313
-0.090081
-0.096225
-0.036278
-0.082108
-0.033561
-0.028473
-0.108156
-0.084278
-0.123522
-0.114478
-0.088648
-0.090750
-0.093337
-0.091696
-0.100007
-0.089262
-0.079775
-0.084150
-0.049189
-0.069204
-0.066323
-0.065704
-0.075987
-0.052110
-0.093946
-0.042877
-0.045171
-0.028997
-0.088680
-0.097183
-0.069437
-0.061698
-0.060715
-0.032356
-0.053567
-0.113336
-0.046583
-0.060226
-0.085874
-0.051917
-0.032096
-0.043636
-0.031318
-0.030598
-0.114190
-0.034279
-0.095231
-0.041704
-0.032303
-0.047750
-0.087746
-0.071288
-0.069938
-0.091905
-0.086261
-0.069508
-0.091152
-0.077553
-0.078335
-0.061955
-0.083017
-0.057165
-0.056697
-0.055201
-0.091569
-0.074434
-0.039115
-0.044161
-0.066048
-0.081885
-0.062404
-0.065081
-0.065776
-0.048267
-0.093840
-0.062468
-0.078532
-0.045570
-0.067669
-0.044606
-0.095073
-0.081034
-0.084966
-0.034173
-0.024159
-0.076607
-0.053055
-0.053043
-0.029165
-0.071492
-0.058172
-0.049663
-0.115423
-0.103110
-0.040428
-0.056315
-0.032534
-0.038715
-0.040365
-0.094869
-0.084485
-0.066800
-0.021426
-0.018556
-0.018390
-0.034727
-0.022308
-0.027566
-0.016805
-0.022348
-0.011201
0.014845
0.010493
0.016546
0.009717
0.008655
0.012193
0.009865
0.022196
-0.000638
-0.000663
-0.003182
0.023724
0.028904
0.030370
-0.008586
-0.011724
-0.008152
-0.012234
-0.009819
-0.007519
-0.015414
-0.011317
-0.022257
-0.018833
-0.010352
-0.009348
-0.008215
-0.007875
-0.006923
-0.009297
-0.011726
0.014753
0.012171
0.013807
0.011687
-0.007885
-0.005440
-0.010194
-0.011810
-0.010102
-0.004340
-0.002000
0.018540
0.016804
0.017922
0.016997
-0.015930
-0.014720
-0.018204
0.007781
0.007476
0.000420
0.002015