# vtk DataFile Version 2.0
Test
ASCII
DATASET POLYDATA
POINTS 1818 float
0.000000 0.000000 0.000000
1.000000 0.000000 0.000000
1.000000 1.000000 0.000000
0.000000 1.000000 0.000000
0.300000 0.330000 0.000000
0.700000 0.680000 0.000000
0.058824 0.000000 0.000000
0.117647 0.000000 0.000000
0.176471 0.000000 0.000000
0.235294 0.000000 0.000000
0.294118 0.000000 0.000000
0.352941 0.000000 0.000000
0.411765 0.000000 0.000000
0.470588 0.000000 0.000000
0.529412 0.000000 0.000000
0.588235 0.000000 0.000000
0.647059 0.000000 0.000000
0.705882 0.000000 0.000000
0.764706 0.000000 0.000000
0.823529 0.000000 0.000000
0.882353 0.000000 0.000000
0.941176 0.000000 0.000000
1.000000 0.058824 0.000000
1.000000 0.117647 0.000000
1.000000 0.176471 0.000000
1.000000 0.235294 0.000000
1.000000 0.294118 0.000000
1.000000 0.352941 0.000000
1.000000 0.411765 0.000000
1.000000 0.470588 0.000000
1.000000 0.529412 0.000000
1.000000 0.588235 0.000000
1.000000 0.647059 0.000000
1.000000 0.705882 0.000000
1.000000 0.764706 0.000000
1.000000 0.823529 0.000000
1.000000 0.882353 0.000000
1.000000 0.941176 0.000000
0.941176 1.000000 0.000000
0.882353 1.000000 0.000000
0.823529 1.000000 0.000000
0.764706 1.000000 0.000000
0.705882 1.000000 0.000000
0.647059 1.000000 0.000000
0.588235 1.000000 0.000000
0.529412 1.000000 0.000000
0.470588 1.000000 0.000000
0.411765 1.000000 0.000000
0.352941 1.000000 0.000000
0.294118 1.000000 0.000000
0.235294 1.000000 0.000000
0.176471 1.000000 0.000000
0.117647 1.000000 0.000000
0.058824 1.000000 0.000000
0.000000 0.941176 0.000000
0.000000 0.882353 0.000000
0.000000 0.823529 0.000000
0.000000 0.764706 0.000000
0.000000 0.705882 0.000000
0.000000 0.647059 0.000000
0.000000 0.588235 0.000000
0.000000 0.529412 0.000000
0.000000 0.470588 0.000000
0.000000 0.411765 0.000000
0.000000 0.352941 0.000000
0.000000 0.294118 0.000000
0.000000 0.235294 0.000000
0.000000 0.176471 0.000000
0.000000 0.117647 0.000000
0.000000 0.058824 0.000000
0.305970 0.335224 0.000000
0.311940 0.340448 0.000000
0.317910 0.345672 0.000000
0.323881 0.350896 0.000000
0.329851 0.356119 0.000000
0.335821 0.361343 0.000000
0.341791 0.366567 0.000000
0.347761 0.371791 0.000000
0.353731 0.377015 0.000000
0.359701 0.382239 0.000000
0.365672 0.387463 0.000000
0.371642 0.392687 0.000000
0.377612 0.397910 0.000000
0.383582 0.403134 0.000000
0.389552 0.408358 0.000000
0.395522 0.413582 0.000000
0.401493 0.418806 0.000000
0.407463 0.424030 0.000000
0.413433 0.429254 0.000000
0.419403 0.434478 0.000000
0.425373 0.439701 0.000000
0.431343 0.444925 0.000000
0.437313 0.450149 0.000000
0.443284 0.455373 0.000000
0.449254 0.460597 0.000000
0.455224 0.465821 0.000000
0.461194 0.471045 0.000000
0.467164 0.476269 0.000000
0.473134 0.481493 0.000000
0.479104 0.486716 0.000000
0.485075 0.491940 0.000000
0.491045 0.497164 0.000000
0.497015 0.502388 0.000000
0.502985 0.507612 0.000000
0.508955 0.512836 0.000000
0.514925 0.518060 0.000000
0.520896 0.523284 0.000000
0.526866 0.528507 0.000000
0.532836 0.533731 0.000000
0.538806 0.538955 0.000000
0.544776 0.544179 0.000000
0.550746 0.549403 0.000000
0.556716 0.554627 0.000000
0.562687 0.559851 0.000000
0.568657 0.565075 0.000000
0.574627 0.570299 0.000000
0.580597 0.575522 0.000000
0.586567 0.580746 0.000000
0.592537 0.585970 0.000000
0.598507 0.591194 0.000000
0.604478 0.596418 0.000000
0.610448 0.601642 0.000000
0.616418 0.606866 0.000000
0.622388 0.612090 0.000000
0.628358 0.617313 0.000000
0.634328 0.622537 0.000000
0.640299 0.627761 0.000000
0.646269 0.632985 0.000000
0.652239 0.638209 0.000000
0.658209 0.643433 0.000000
0.664179 0.648657 0.000000
0.670149 0.653881 0.000000
0.676119 0.659104 0.000000
0.682090 0.664328 0.000000
0.688060 0.669552 0.000000
0.694030 0.674776 0.000000
0.516135 0.080917 0.000000
0.549338 0.042552 0.000000
0.567302 0.088709 0.000000
0.555658 0.563778 0.000000
0.559301 0.571359 0.000000
0.552318 0.570919 0.000000
0.603235 0.047100 0.000000
0.446553 0.448087 0.000000
0.438652 0.443189 0.000000
0.445116 0.440368 0.000000
0.437254 0.190586 0.000000
0.465954 0.201747 0.000000
0.439184 0.213838 0.000000
0.453137 0.228102 0.000000
0.522423 0.410182 0.000000
0.522098 0.390982 0.000000
0.537289 0.398500 0.000000
0.453388 0.527105 0.000000
0.462022 0.524948 0.000000
0.461218 0.533993 0.000000
0.324300 0.374550 0.000000
0.319287 0.386214 0.000000
0.314834 0.375138 0.000000
0.668809 0.628853 0.000000
0.677366 0.632907 0.000000
0.668274 0.639611 0.000000
0.469934 0.529282 0.000000
0.439703 0.436699 0.000000
0.446608 0.432083 0.000000
0.542854 0.633425 0.000000
0.535117 0.647070 0.000000
0.524302 0.633157 0.000000
0.519372 0.648877 0.000000
0.586338 0.611293 0.000000
0.591638 0.624149 0.000000
0.575478 0.621479 0.000000
0.437962 0.035513 0.000000
0.421505 0.085456 0.000000
0.394924 0.044162 0.000000
0.445207 0.955749 0.000000
0.429168 0.919510 0.000000
0.464409 0.914226 0.000000
0.317150 0.400904 0.000000
0.328626 0.395860 0.000000
0.439616 0.884412 0.000000
0.330406 0.381773 0.000000
0.676842 0.602700 0.000000
0.674982 0.614185 0.000000
0.665930 0.611798 0.000000
0.414707 0.535036 0.000000
0.420123 0.526072 0.000000
0.425338 0.533771 0.000000
0.398407 0.375558 0.000000
0.393804 0.363255 0.000000
0.407284 0.365452 0.000000
0.407758 0.523337 0.000000
0.899969 0.377867 0.000000
0.945915 0.378245 0.000000
0.914158 0.409130 0.000000
0.358219 0.436142 0.000000
0.361390 0.425428 0.000000
0.369309 0.432300 0.000000
0.465999 0.075074 0.000000
0.269944 0.367761 0.000000
0.266521 0.352125 0.000000
0.283474 0.357667 0.000000
0.385889 0.083020 0.000000
0.359482 0.060981 0.000000
0.279658 0.346766 0.000000
0.363604 0.104040 0.000000
0.511115 0.503731 0.000000
0.503243 0.499914 0.000000
0.509146 0.494910 0.000000
0.513188 0.475753 0.000000
0.504957 0.474656 0.000000
0.511959 0.464784 0.000000
0.311863 0.447505 0.000000
0.293019 0.442078 0.000000
0.305555 0.431691 0.000000
0.499204 0.464990 0.000000
0.293855 0.459576 0.000000
0.396676 0.236328 0.000000
0.371014 0.247362 0.000000
0.373003 0.229199 0.000000
0.384478 0.261522 0.000000
0.555704 0.523331 0.000000
0.551313 0.515879 0.000000
0.562752 0.515269 0.000000
0.554954 0.506854 0.000000
0.804236 0.611103 0.000000
0.819351 0.593503 0.000000
0.832061 0.615776 0.000000
0.509908 0.485173 0.000000
0.129738 0.481190 0.000000
0.110722 0.443736 0.000000
0.154857 0.452634 0.000000
0.089738 0.485299 0.000000
0.396427 0.153886 0.000000
0.393058 0.115469 0.000000
0.420333 0.126587 0.000000
0.442628 0.413512 0.000000
0.434815 0.404283 0.000000
0.446816 0.400259 0.000000
0.499770 0.482873 0.000000
0.353883 0.235057 0.000000
0.351360 0.254011 0.000000
0.332147 0.240870 0.000000
0.112307 0.405527 0.000000
0.140355 0.392788 0.000000
0.142004 0.423465 0.000000
0.334868 0.263052 0.000000
0.551239 0.594093 0.000000
0.560217 0.601969 0.000000
0.546711 0.604614 0.000000
0.398510 0.570197 0.000000
0.387124 0.557316 0.000000
0.399978 0.555748 0.000000
0.705281 0.743146 0.000000
0.722930 0.758853 0.000000
0.697202 0.758074 0.000000
0.380190 0.572638 0.000000
0.278345 0.431947 0.000000
0.292575 0.428097 0.000000
0.470820 0.540616 0.000000
0.478213 0.533042 0.000000
0.480161 0.543190 0.000000
0.415268 0.299334 0.000000
0.412465 0.313515 0.000000
0.400419 0.297680 0.000000
0.396495 0.317117 0.000000
0.718655 0.732879 0.000000
0.709319 0.677587 0.000000
0.715709 0.670111 0.000000
0.719283 0.682820 0.000000
0.212992 0.453899 0.000000
0.184619 0.470046 0.000000
0.186665 0.440862 0.000000
0.452307 0.386568 0.000000
0.460371 0.397715 0.000000
0.478664 0.456068 0.000000
0.476179 0.462123 0.000000
0.471250 0.456445 0.000000
0.464654 0.388544 0.000000
0.483415 0.461045 0.000000
0.357146 0.449596 0.000000
0.344653 0.443966 0.000000
0.554562 0.459423 0.000000
0.543333 0.457517 0.000000
0.553850 0.449505 0.000000
0.543131 0.445036 0.000000
0.347312 0.459318 0.000000
0.781088 0.538918 0.000000
0.810909 0.534152 0.000000
0.799399 0.553968 0.000000
0.402869 0.534333 0.000000
0.408011 0.546121 0.000000
0.703844 0.670118 0.000000
0.552234 0.794299 0.000000
0.528593 0.795589 0.000000
0.539188 0.770312 0.000000
0.596088 0.518714 0.000000
0.593029 0.508081 0.000000
0.604120 0.510731 0.000000
0.384880 0.468703 0.000000
0.382270 0.455963 0.000000
0.394062 0.458803 0.000000
0.374729 0.466839 0.000000
0.340939 0.294790 0.000000
0.324530 0.290188 0.000000
0.338473 0.279923 0.000000
0.465367 0.336545 0.000000
0.477337 0.352846 0.000000
0.459495 0.350024 0.000000
0.584947 0.516440 0.000000
0.326802 0.302636 0.000000
0.945343 0.420397 0.000000
0.779746 0.749037 0.000000
0.771533 0.774140 0.000000
0.758291 0.749848 0.000000
0.743435 0.765852 0.000000
0.751942 0.297541 0.000000
0.784264 0.292048 0.000000
0.772562 0.330207 0.000000
0.812744 0.305799 0.000000
0.655547 0.494535 0.000000
0.649767 0.472522 0.000000
0.671966 0.480244 0.000000
0.612062 0.502007 0.000000
0.616789 0.515227 0.000000
0.403059 0.898561 0.000000
0.391512 0.946883 0.000000
0.625780 0.504699 0.000000
0.635988 0.491275 0.000000
0.596252 0.650380 0.000000
0.583401 0.655132 0.000000
0.583737 0.644777 0.000000
0.713099 0.416502 0.000000
0.708474 0.388943 0.000000
0.733625 0.389568 0.000000
0.684835 0.406222 0.000000
0.656936 0.416423 0.000000
0.633624 0.425116 0.000000
0.634362 0.400237 0.000000
0.646884 0.740682 0.000000
0.654954 0.726002 0.000000
0.663305 0.741855 0.000000
0.732481 0.441235 0.000000
0.751303 0.460839 0.000000
0.721338 0.462235 0.000000
0.759622 0.437863 0.000000
0.462761 0.363156 0.000000
0.373644 0.622389 0.000000
0.346217 0.613642 0.000000
0.370315 0.594521 0.000000
0.351411 0.640635 0.000000
0.695337 0.690220 0.000000
0.705202 0.700133 0.000000
0.692303 0.700990 0.000000
0.521365 0.516400 0.000000
0.522992 0.510597 0.000000
0.527633 0.513574 0.000000
0.291567 0.329512 0.000000
0.294927 0.318154 0.000000
0.365771 0.366553 0.000000
0.366135 0.358691 0.000000
0.374180 0.368122 0.000000
0.408232 0.327056 0.000000
0.423479 0.328280 0.000000
0.411272 0.339740 0.000000
0.664110 0.670607 0.000000
0.667245 0.662649 0.000000
[...]
POINT_DATA 1818
SCALARS UX float 1
LOOKUP_TABLE default
-0.000000
0.000000
0.002383
-0.005563
-0.003104
0.001898
0.000000
-0.000000
-0.000000
-0.000000
-0.000000
-0.000000
-0.000000
-0.000000
-0.000000
-0.000000
0.000000
0.000000
0.000000
0.000000
0.000000
0.000000
0.001539
0.002427
0.003136
0.003773
0.004353
0.004890
0.005381
0.005775
0.006014
0.006016
0.005656
0.005052
0.004252
0.003486
0.002876
0.002538
0.001740
0.001157
0.000629
0.000164
-0.000212
-0.000518
-0.000820
-0.001154
-0.001543
-0.001982
-0.002453
-0.002949
-0.003459
-0.003975
-0.004489
-0.005030
-0.005607
-0.005726
-0.005933
-0.006200
-0.006517
-0.006853
-0.007174
-0.007413
-0.007471
-0.007269
-0.006740
-0.005880
-0.004827
-0.003751
-0.002690
-0.001650
-0.003078
-0.002975
-0.002955
-0.002848
-0.002773
-0.002670
-0.002559
-0.002495
-0.002410
-0.002334
-0.002288
-0.002224
-0.002167
-0.002129
-0.002040
-0.001984
-0.001955
-0.001886
-0.001827
-0.001744
-0.001682
-0.001607
-0.001541
-0.001457
-0.001383
-0.001325
-0.001231
-0.001147
-0.001092
-0.001009
-0.000955
-0.000889
-0.000795
-0.000729
-0.000599
-0.000512
-0.000428
-0.000314
-0.000240
-0.000111
-0.000033
0.000058
0.000115
0.000183
0.000239
0.000297
0.000349
0.000425
0.000476
0.000536
0.000624
0.000668
0.000719
0.000796
0.000851
0.000924
0.001005
0.001026
0.001086
0.001141
0.001247
0.001435
0.001528
0.001596
0.001704
0.001792
-0.000078
-0.000034
0.000032
-0.001495
-0.001722
-0.002118
0.000032
-0.000049
-0.000347
0.000366
-0.000267
-0.000092
-0.000223
-0.000091
0.001803
0.001642
0.001809
-0.003975
-0.003862
-0.003879
-0.004491
-0.004833
-0.004716
0.003106
0.003141
0.002838
-0.003759
0.000221
0.000812
-0.002557
-0.002525
-0.002747
-0.002657
-0.001855
-0.001863
-0.002185
-0.000093
-0.000212
-0.000124
-0.001744
-0.001905
-0.001639
-0.004997
-0.004827
-0.001891
-0.004515
0.003598
0.003460
0.003353
-0.004289
-0.004283
-0.004212
0.000215
0.000139
0.000371
-0.004391
0.004333
0.004704
0.004715
-0.004800
-0.004664
-0.004624
-0.000146
-0.005157
-0.004951
-0.004773
-0.000234
-0.000179
-0.004579
-0.000325
0.000781
0.000375
0.001224
0.001961
0.001804
0.001981
-0.005225
-0.005360
-0.005249
0.001761
-0.005359
-0.000494
-0.000713
-0.000680
-0.000559
0.002296
0.002314
0.002577
0.002487
0.004693
0.004835
0.004835
0.001743
-0.006599
-0.006714
-0.006427
-0.006880
-0.000405
-0.000319
-0.000289
0.000971
0.000845
0.001033
0.001383
-0.000846
-0.000918
-0.001059
-0.006528
-0.006256
-0.006441
-0.001133
-0.002586
-0.002441
-0.002670
-0.004197
-0.004356
-0.004279
0.000638
0.000789
0.000391
-0.004304
-0.005463
-0.005337
-0.003767
-0.003647
-0.003651
-0.000014
0.000070
-0.000188
-0.000090
0.001044
0.002575
0.003093
0.002732
-0.006002
-0.006204
-0.006193
0.001034
0.001182
0.001349
0.001084
0.001088
0.001168
0.001409
-0.004867
-0.004963
0.002383
0.002285
0.002316
0.002208
-0.004960
0.004472
0.004691
0.004667
-0.004377
-0.004280
0.002651
-0.001231
-0.001446
-0.001470
0.002957
0.002905
0.003005
-0.004656
-0.004639
-0.004505
-0.004746
-0.001112
-0.001413
-0.001142
0.000751
0.000987
0.000820
0.002844
-0.001408
0.005047
0.002039
0.001435
0.001606
0.001064
0.002361
0.002561
0.002827
0.002923
0.003292
0.003116
0.003316
0.003032
0.003118
-0.002153
-0.002168
0.003142
0.003141
-0.001749
-0.001904
-0.001967
0.003136
0.002869
0.003067
0.002842
0.002733
0.002650
0.002445
-0.000308
-0.000204
-0.000054
0.003482
0.003779
0.003551
0.003675
0.000958
-0.003995
-0.004258
-0.004222
-0.004024
0.001195
0.001367
0.000845
0.000510
0.001111
0.001253
-0.003546
-0.002793
-0.000706
-0.000465
-0.000323
0.000128
0.000306
0.000263
0.000141
0.000621
0.000690
-0.004748
-0.004785
-0.004880
-0.004888
-0.000230
-0.000539
-0.000925
0.000762
0.000769
0.000924
0.000999
-0.001498
-0.001732
-0.001280
-0.000110
-0.000683
-0.000781
-0.003318
-0.003377
-0.003490
-0.000709
-0.001307
-0.001263
0.000211
0.000569
0.000818
0.000371
0.000568
-0.000876
-0.000219
-0.003227
-0.002761
-0.002628
-0.003210
-0.005610
-0.005395
-0.005529
-0.004812
-0.004972
-0.004754
-0.000779
-0.000753
-0.002485
0.002812
0.002836
-0.004991
-0.004996
-0.004873
-0.002473
-0.004517
-0.004268
-0.004035
-0.003919
-0.004526
-0.003303
-0.003413
-0.003404
-0.003262
-0.003105
-0.002938
0.003471
0.003460
0.003112
0.003733
-0.005238
-0.005158
-0.005092
-0.002939
-0.003426
-0.002736
-0.002005
-0.001726
-0.001424
-0.000887
-0.002386
-0.002733
-0.003218
0.003365
0.002838
-0.003747
-0.003568
-0.003458
-0.000750
-0.001443
-0.001396
-0.003492
-0.003443
-0.003420
-0.001845
-0.001676
-0.001647
-0.003116
-0.003381
-0.000296
-0.000405
-0.000941
-0.000955
-0.000705
-0.001190
0.002250
0.002245
0.002052
-0.006711
-0.007018
-0.006671
-0.005463
-0.005108
-0.005212
-0.005320
-0.000233
-0.000700
-0.000955
-0.001028
-0.002909
-0.003152
-0.002894
-0.003187
-0.002634
-0.002852
-0.002608
-0.004305
-0.004455
-0.004233
-0.004316
-0.004302
-0.004427
-0.004375
-0.003856
0.000119
-0.000466
-0.000485
0.001427
0.001199
0.001232
0.001391
0.003611
0.003260
0.003326
0.003783
0.004010
-0.003616
-0.003890
-0.004108
0.002191
0.002255
0.001432
-0.003928
-0.003804
-0.004026
-0.001172
-0.000596
-0.003521
-0.000793
-0.001245
-0.001523
0.001314
0.001451
0.001310
0.002530
0.002623
0.002626
-0.000893
-0.000964
-0.001461
0.002735
-0.004450
-0.004093
-0.004832
-0.004551
-0.004961
0.000989
0.001203
0.002229
0.002331
0.002203
0.002367
0.002165
-0.006969
-0.000653
-0.000456
-0.000650
-0.000465
-0.004750
-0.005058
-0.004382
0.002384
0.002640
0.002950
-0.000750
0.001988
0.001091
0.002402
0.002447
-0.000243
0.000080
-0.000016
-0.004995
-0.004857
-0.004849
-0.001724
-0.001938
-0.006319
0.002495
0.002622
0.002562
0.000860
0.000855
-0.001964
-0.001970
-0.001695
0.000948
0.002704
-0.005197
-0.005270
-0.005330
-0.004200
-0.003815
-0.003856
0.000984
0.001825
0.001263
0.001695
0.000456
0.002495
0.002462
-0.003094
-0.002318
-0.002505
0.000004
0.000192
-0.005193
-0.005117
-0.004982
0.000072
0.000110
0.000100
-0.000026
-0.005137
-0.005279
-0.005296
-0.002558
-0.003093
-0.002209
-0.001337
-0.001418
-0.001724
-0.003673
-0.003142
0.002213
-0.004878
-0.005295
0.001952
0.002487
0.002631
-0.003475
0.002410
0.002162
-0.003229
-0.003153
0.003771
0.003954
0.003942
-0.003386
0.002086
0.002112
0.003163
-0.004071
-0.004066
-0.003978
-0.002600
-0.002379
-0.001359
-0.004192
0.001176
0.001317
-0.004145
-0.002137
-0.002344
-0.002106
-0.002326
0.004622
0.004343
0.004281
0.002327
0.001840
0.001603
-0.002092
-0.002035
-0.001790
-0.000614
-0.000401
0.001380
0.000438
0.000601
0.001053
0.000012
-0.005016
-0.004949
-0.000243
-0.000215
-0.004287
0.003033
0.003454
0.002831
0.005372
0.003422
0.000903
0.000987
0.001134
-0.004966
0.001092
0.000433
0.000490
0.000602
-0.002058
-0.002890
-0.002272
-0.002073
0.002540
-0.004123
-0.003680
-0.005018
-0.005113
-0.005058
-0.003872
-0.003744
-0.003784
-0.003957
0.003858
0.003696
0.003939
-0.003651
-0.000160
0.004181
0.003278
0.003244
0.001303
0.002011
0.001247
0.002158
0.001727
0.002385
0.000004
-0.003564
-0.000583
-0.003996
-0.004412
-0.004422
-0.004735
0.000532
0.000670
-0.001956
-0.002418
0.002055
-0.000180
-0.006297
-0.000430
-0.004296
-0.004096
-0.003897
-0.000543
0.003968
0.003859
0.003780
0.003730
0.000632
0.000395
-0.001583
-0.001532
-0.001330
0.003621
0.003657
0.003545
0.003535
0.002847
0.003093
-0.003656
-0.003783
0.003782
-0.005436
-0.004837
-0.005027
0.004122
0.003959
0.003831
-0.001238
-0.001473
-0.001165
0.004165
0.004470
0.002433
0.001816
0.002076
0.001411
-0.001564
0.001718
0.001674
0.001490
0.003650
0.004085
0.003868
-0.003891
-0.004147
-0.004405
0.004322
-0.002960
-0.002709
-0.003486
-0.003313
-0.003558
-0.004300
0.000582
0.000395
0.001018
0.004935
0.005266
0.005421
0.004726
0.003784
0.004696
0.004303
-0.000935
-0.000881
-0.006022
-0.005232
-0.005481
-0.001022
0.001421
0.000289
-0.006055
-0.006198
-0.006522
-0.005485
-0.005498
-0.006884
0.001184
0.000425
-0.002676
-0.000278
-0.002886
-0.002607
-0.002503
0.005554
0.005810
-0.000206
-0.000200
0.000098
0.001094
0.000756
0.001348
0.000502
0.000043
0.000937
-0.000118
-0.000305
-0.003400
-0.004088
-0.004145
-0.003684
-0.005251
-0.005365
-0.005407
-0.007196
-0.007155
-0.000307
-0.000481
-0.000238
-0.000481
-0.000539
-0.000608
-0.000343
-0.000482
-0.006816
-0.000131
-0.000204
-0.001387
-0.001841
-0.001765
0.005606
0.005320
-0.005569
0.004452
0.004315
0.004302
0.004462
-0.006364
-0.006370
-0.006147
0.004637
-0.000126
0.005018
0.000404
-0.000014
-0.000089
-0.000262
-0.001873
0.000120
-0.000147
-0.000876
-0.000691
-0.000622
0.002562
0.002209
-0.000793
-0.002248
-0.002167
-0.000327
-0.002145
0.001692
0.002036
0.001731
0.002128
-0.005135
-0.005129
-0.002460
-0.001415
-0.000257
-0.000512
0.000723
0.000639
0.000412
-0.000438
-0.000986
-0.005659
-0.005310
-0.005387
-0.005523
-0.002218
-0.006076
-0.005858
-0.006246
-0.005802
-0.005933
-0.002906
-0.002708
-0.002742
-0.002440
-0.002835
-0.001593
-0.001270
-0.001163
-0.000877
-0.005888
-0.006396
-0.005883
0.001735
0.001610
0.001683
-0.003194
-0.003350
0.000522
0.000370
-0.005747
-0.005970
-0.005779
-0.004751
-0.004696
-0.004589
-0.002466
-0.002832
-0.005265
0.001836
0.000818
0.000564
-0.004605
-0.004043
-0.003732
-0.004088
-0.004745
-0.006275
0.002508
0.002122
-0.004627
-0.004558
-0.004792
-0.004703
0.000681
0.000529
-0.004691
0.003464
-0.000609
0.000030
0.000494
0.000715
0.000418
-0.001841
0.000533
-0.003764
-0.003247
-0.003032
-0.003263
-0.003206
-0.004777
-0.004799
-0.005000
0.000795
0.000692
-0.005037
0.001732
0.003425
0.003404
-0.006953
-0.006635
-0.006598
-0.001814
-0.001998
-0.002078
-0.005003
0.005180
0.005447
0.005156
0.004923
0.004933
-0.005705
-0.005452
-0.004328
-0.004549
-0.004333
0.000338
0.002279
0.001763
0.003124
-0.005020
-0.005018
-0.003162
-0.003333
-0.003021
-0.004890
-0.005646
-0.003324
0.001475
0.001523
0.001522
-0.003640
-0.003346
-0.003898
0.003902
0.004004
0.004101
-0.003822
0.004859
0.004744
-0.006206
-0.001950
0.000821
-0.005409
-0.005809
-0.001169
-0.001325
0.003182
0.003100
0.003068
-0.000611
-0.000486
0.003295
-0.000515
0.003387
-0.005498
-0.005844
0.003897
0.004067
0.003505
0.001109
-0.000341
0.004383
0.003794
0.004933
0.003589
-0.000832
-0.000981
-0.000717
-0.000842
0.001854
-0.000837
-0.000993
0.001960
-0.003669
-0.003103
-0.003538
-0.003087
-0.002999
0.001308
0.001554
-0.002802
-0.002891
-0.002993
0.001830
0.001735
0.001864
-0.003648
-0.003572
-0.003481
-0.004842
0.004212
0.004341
0.004362
-0.005383
-0.005559
-0.005721
-0.000416
-0.000562
-0.000563
-0.005733
-0.001893
-0.000716
-0.001667
-0.000815
-0.006090
-0.006027
0.005071
0.001659
0.003268
0.002993
-0.003387
-0.003531
-0.000059
-0.000239
-0.000442
-0.005978
-0.000077
-0.004602
-0.005883
-0.005674
-0.004501
-0.004517
-0.004591
0.003646
0.003584
0.003616
0.003775
0.000849
0.001088
0.000856
0.001286
-0.005238
-0.002889
-0.003052
-0.005393
-0.002481
0.001214
0.001126
0.000633
0.003167
0.002526
0.002182
0.000801
0.000562
-0.000704
-0.005346
-0.005252
-0.005175
-0.005880
-0.001543
-0.000664
-0.001670
-0.000626
-0.001761
0.001347
0.001155
-0.000210
-0.000179
-0.000097
0.000062
0.003570
0.000840
0.000613
0.000467
0.000378
0.001100
-0.000999
-0.000758
0.004678
-0.003344
-0.003463
-0.003522
-0.003211
-0.003696
0.004459
0.003949
0.004097
0.003752
0.003618
0.003477
-0.005631
0.000587
0.000159
0.000360
0.000329
0.001086
0.001155
0.001214
0.005283
0.005511
0.004153
-0.004435
-0.004487
-0.001054
-0.001255
0.003243
0.003658
0.003386
0.003315
-0.004521
-0.004438
-0.002057
-0.002180
-0.001024
-0.005079
-0.004991
0.000110
-0.005117
0.002389
0.002444
0.002401
0.000107
0.000292
0.003648
0.003339
-0.003234
-0.003466
-0.003190
-0.003421
-0.003055
-0.003056
0.001668
0.001661
-0.005965
0.001428
0.002227
0.002455
0.004606
0.004316
0.001971
0.000193
0.000154
-0.000081
-0.000785
-0.001719
-0.001571
-0.001855
-0.001990
-0.004425
-0.004494
0.004162
0.001817
0.001410
0.001647
0.001062
-0.001091
-0.001376
-0.001437
0.003037
0.002657
0.002479
-0.004530
-0.004545
-0.004048
-0.000485
-0.001192
-0.000972
-0.000875
0.000152
-0.001393
-0.001238
-0.000940
-0.001763
0.000316
-0.000608
0.004115
0.004265
0.004311
0.003597
0.004154
0.004109
-0.004725
-0.000942
-0.002296
-0.002560
-0.002549
-0.002190
-0.002443
-0.002779
0.000571
0.003053
0.000523
-0.000439
-0.000388
0.003762
0.003741
0.002569
0.002875
0.002778
-0.003810
-0.004317
0.000351
0.000590
-0.004936
0.003872
0.003867
0.003455
0.003285
-0.004877
-0.004911
-0.005164
0.003489
0.003485
0.002140
0.001933
0.001920
0.001906
0.003367
0.003689
0.000209
0.002882
0.002090
0.002302
-0.000364
-0.002328
-0.001879
0.004215
0.001017
-0.002131
0.003057
0.003457
-0.001140
-0.001416
-0.002120
-0.002393
-0.002218
-0.002724
0.003007
0.002871
-0.001191
-0.001810
-0.001673
-0.002913
-0.002938
-0.006467
0.003016
0.002985
0.002930
0.002926
0.002942
-0.004411
0.002619
-0.004243
-0.000369
-0.003530
-0.004781
-0.002018
-0.001416
-0.001401
-0.003805
0.000368
-0.004558
-0.005992
-0.000187
0.000126
-0.000295
-0.004473
-0.004027
-0.003284
0.003005
0.000891
0.000782
-0.003070
-0.001259
0.002482
0.002988
-0.003701
-0.003747
-0.003940
0.001767
-0.003197
0.003692
0.003514
0.000576
-0.002264
-0.002477
-0.002613
-0.003231
-0.003091
-0.001008
0.000176
0.004577
0.004871
0.001679
-0.001295
0.001940
-0.000692
-0.000840
0.002314
-0.000461
-0.001708
0.004541
-0.000441
-0.004392
-0.004398
0.003326
0.001376
0.001609
0.005060
0.001745
0.000579
-0.000062
-0.005556
-0.005387
-0.000674
-0.000928
-0.004254
-0.004501
-0.004299
0.005000
-0.004528
-0.002016
-0.002972
0.003632
-0.001683
-0.001624
-0.001510
-0.003315
0.000252
-0.000064
0.001709
-0.002213
-0.002719
0.002581
0.002737
0.002961
0.002978
0.002832
0.001242
-0.005610
-0.002305
-0.002834
-0.002794
-0.001300
-0.000629
-0.000661
0.001959
0.002096
-0.001027
-0.001727
0.000892
0.001582
0.002269
0.000302
0.000483
0.000499
0.000669
-0.002839
-0.003695
-0.003218
0.003158
0.003105
0.003289
-0.002937
-0.002993
0.000398
-0.004083
-0.004118
0.000338
0.000419
0.003505
0.000296
-0.004686
-0.005096
-0.004650
-0.003469
0.000738
-0.003106
0.000015
-0.000141
-0.005645
-0.005791
0.000958
-0.000337
0.000590
-0.003084
0.001438
-0.000076
0.001336
-0.004503
-0.004451
0.001755
-0.003527
-0.004804
-0.004642
-0.005061
-0.004136
-0.003113
-0.002512
-0.002306
0.002494
0.002658
0.002709
-0.003711
-0.003450
-0.000056
-0.000091
-0.004000
-0.003896
-0.004099
-0.001108
-0.000942
-0.002965
-0.003839
0.003412
0.003320
0.000186
-0.004294
-0.004303
-0.004674
-0.004424
-0.004390
0.000215
0.000363
0.002290
0.001439
-0.002566
-0.002346
-0.003229
0.000415
0.000704
0.001127
0.001108
-0.004192
0.000233
0.000240
-0.001440
-0.002273
0.000799
0.000597
-0.003062
-0.002622
-0.000317
0.001966
0.001912
0.002881
-0.004457
0.002879
-0.000419
0.003965
0.004040
-0.004642
-0.004614
-0.000536
-0.000459
-0.001208
-0.001361
0.002200
0.003320
0.001332
-0.002103
0.003030
-0.004986
0.002389
0.001890
0.001889
-0.005049
0.003350
0.001404
0.000858
0.002446
0.002311
0.000687
0.001455
-0.004916
-0.004736
-0.004362
-0.005437
0.003930
0.002563
0.002754
0.002607
0.000186
-0.005682
0.004156
-0.004840
-0.004246
-0.004026
0.000107
0.000775
0.000343
0.002726
0.001673
-0.002546
-0.002401
-0.004665
-0.000567
0.001753
0.002110
-0.005200
-0.005071
-0.002411
0.000620
0.001458
0.000674
0.001493
0.002106
0.001990
0.001233
-0.004187
0.001846
-0.004640
-0.001434
0.002370
0.002825
0.002458
0.002252
0.004035
0.002930
-0.004234
-0.003792
-0.003668
0.003725
0.003799
0.000155
0.003242
-0.002799
-0.002968
-0.002908
0.001419
0.001572
0.001512
0.001611
-0.002561
-0.000390
0.003821
0.001659
-0.003702
-0.002253
-0.005655
-0.002084
0.002240
0.002927
0.002989
-0.002720
-0.002849
-0.005506
0.003785
0.003611
-0.002745
-0.001266
0.000267
0.000070
-0.004520
0.000210
-0.000288
-0.002342
0.003935
0.004524
0.001416
0.000971
0.000795
-0.004215
-0.001489
0.000066
0.000270
-0.004484
0.004386
-0.004055
0.001466
0.001410
-0.005582
0.002428
0.002728
0.002239
-0.001668
0.002346
0.001483
-0.002781
0.003295
-0.002650
0.000529
0.000208
0.000274
-0.003412
0.000984
-0.002448
0.000350
-0.000713
-0.000662
-0.002708
0.004593
0.002724
-0.003797
-0.003857
-0.001308
0.001588
-0.005661
-0.005950
-0.006084
-0.003073
-0.004360
0.002650
-0.002896
0.001760
0.003090
0.003134
-0.000150
-0.002418
-0.002692
-0.003767
0.003666
0.003554
0.001894
0.001765
-0.001468
-0.002212
-0.004674
-0.004690
0.002145
-0.004314
-0.002026
-0.002146
-0.004124
-0.004160
0.002167
0.001364
0.002816
0.002312
-0.002505
0.003047
0.002515
-0.001708
-0.003424
-0.003721
0.002544
0.002227
-0.003514
0.002505
0.001393
-0.004568
0.003304
-0.001777
-0.005167
0.003106
0.002944
-0.001567
-0.001498
-0.003730
-0.004443
0.003031
0.003113
0.003181
-0.000502
0.002097
0.000101
-0.003749
-0.005223
0.001982
0.002003
-0.003818
-0.004042
0.002514
0.003143
0.000392
0.001055
0.000694
0.002870
0.004251
-0.000730
-0.000644
-0.001830
-0.004622
0.002095
-0.003648
-0.000749
-0.000743
0.000452
0.001345
-0.003950
0.002766
-0.003774
-0.002367
0.003160
-0.003403
-0.002552
-0.003052
-0.004047
-0.000974
-0.000503
-0.003903
0.002949
-0.004039
-0.000053
-0.000399
-0.001361
0.000024
-0.001018
-0.000895
0.002093
-0.003596
-0.003770
-0.001047
0.000047
-0.000377
-0.002359
-0.002435
-0.001584
-0.002692
-0.001884
-0.000822
-0.002428
-0.001448
-0.001481
0.000507
-0.003339
0.003278
0.002659
-0.000489
-0.004325
-0.004215
-0.001133
0.001188
0.001546
-0.001882
0.000100
-0.003565
-0.004084
-0.000007
0.002106
0.002546
0.002674
0.003396
-0.004021
0.001585
-0.003622
-0.003087
-0.003750
0.002344
-0.002135
0.002103
-0.004162
0.001511
0.001352
0.001210
-0.004871
0.000334
-0.001873
-0.002431
0.000198
-0.001997
-0.004114
0.000686
0.002667
-0.001646
-0.002882
-0.000058
SCALARS UY float 1
LOOKUP_TABLE default
-0.000000
-0.000000
-0.020000
-0.020000
-0.005195
-0.014347
-0.000000
-0.000000
-0.000000
-0.000000
-0.000000
-0.000000
-0.000000
-0.000000
-0.000000
-0.000000
-0.000000
-0.000000
-0.000000
-0.000000
-0.000000
-0.000000
-0.001760
-0.003081
-0.004289
-0.005425
-0.006521
-0.007568
-0.008554
-0.009448
-0.010288
-0.011041
-0.011848
-0.012768
-0.013900
-0.015257
-0.016764
-0.018363
-0.020000
-0.020000
-0.020000
-0.020000
-0.020000
-0.020000
-0.020000
-0.020000
-0.020000
-0.020000
-0.020000
-0.020000
-0.020000
-0.020000
-0.020000
-0.020000
-0.018706
-0.017421
-0.016162
-0.014927
-0.013756
-0.012655
-0.011644
-0.010744
-0.009921
-0.009181
-0.008413
-0.007511
-0.006430
-0.005098
-0.003642
-0.002033
-0.005270
-0.005479
-0.005705
-0.005832
-0.005987
-0.006252
-0.006425
-0.006547
-0.006671
-0.006794
-0.006896
-0.007060
-0.007220
-0.007327
-0.007489
-0.007607
-0.007701
-0.007835
-0.007953
-0.008084
-0.008192
-0.008302
-0.008398
-0.008532
-0.008653
-0.008700
-0.008854
-0.008994
-0.009085
-0.009222
-0.009334
-0.009455
-0.009598
-0.009644
-0.009771
-0.009849
-0.009930
-0.010062
-0.010120
-0.010262
-0.010354
-0.010480
-0.010568
-0.010728
-0.010862
-0.010992
-0.011122
-0.011277
-0.011407
-0.011546
-0.011727
-0.011846
-0.011950
-0.012127
-0.012278
-0.012447
-0.012634
-0.012794
-0.012955
-0.013120
-0.013300
-0.013587
-0.013741
-0.013888
-0.014012
-0.014182
-0.000834
-0.000451
-0.001007
-0.012191
-0.012624
-0.012861
-0.000546
-0.007195
-0.007242
-0.006644
-0.001869
-0.002107
-0.002166
-0.002408
-0.005471
-0.005161
-0.005362
-0.012384
-0.012344
-0.012551
-0.008028
-0.008480
-0.008176
-0.011243
-0.011363
-0.011696
-0.012443
-0.006603
-0.006059
-0.014656
-0.014873
-0.014596
-0.014842
-0.014027
-0.014389
-0.014425
-0.000313
-0.000752
-0.000377
-0.019340
-0.018764
-0.018760
-0.008847
-0.008789
-0.018246
-0.008281
-0.010421
-0.010746
-0.010619
-0.012361
-0.012225
-0.012398
-0.004785
-0.004503
-0.004493
-0.012105
-0.007344
-0.007616
-0.008002
-0.009999
-0.009725
-0.009921
-0.000704
-0.007337
-0.006785
-0.007001
-0.000715
-0.000527
-0.006537
-0.000906
-0.008353
-0.008555
-0.007760
-0.006749
-0.006764
-0.006462
-0.009886
-0.009595
-0.009482
-0.006503
-0.009982
-0.002304
-0.002388
-0.002168
-0.002616
-0.007987
-0.007747
-0.007657
-0.007439
-0.011669
-0.011318
-0.011788
-0.007103
-0.009867
-0.009194
-0.009277
-0.010000
-0.001375
-0.001007
-0.001143
-0.005449
-0.005261
-0.005122
-0.007268
-0.002237
-0.002470
-0.002369
-0.008484
-0.008134
-0.008726
-0.002640
-0.013816
-0.013982
-0.014095