# vtk DataFile Version 2.0
Test
ASCII
DATASET POLYDATA
POINTS 3011 float
0.000000 0.000000 0.000000
2.000000 0.000000 0.000000
2.000000 4.000000 0.000000
0.000000 4.000000 0.000000
0.000000 0.500000 0.000000
1.500000 2.000000 0.000000
2.000000 2.500000 0.000000
0.285714 0.000000 0.000000
0.571429 0.000000 0.000000
0.857143 0.000000 0.000000
1.142857 0.000000 0.000000
1.428571 0.000000 0.000000
1.714286 0.000000 0.000000
2.000000 0.276366 0.000000
2.000000 0.523709 0.000000
2.000000 0.745076 0.000000
2.000000 0.943195 0.000000
2.000000 1.120508 0.000000
2.000000 1.279199 0.000000
2.000000 1.421225 0.000000
2.000000 1.548336 0.000000
2.000000 1.662097 0.000000
2.000000 1.763911 0.000000
2.000000 1.855033 0.000000
2.000000 1.936585 0.000000
2.000000 2.009573 0.000000
2.000000 2.074896 0.000000
2.000000 2.133358 0.000000
2.000000 2.185681 0.000000
2.000000 2.232509 0.000000
2.000000 2.274419 0.000000
2.000000 2.311927 0.000000
2.000000 2.345497 0.000000
2.000000 2.375541 0.000000
2.000000 2.402430 0.000000
2.000000 2.426495 0.000000
2.000000 2.448033 0.000000
2.000000 2.467309 0.000000
2.000000 2.484560 0.000000
2.000000 2.516256 0.000000
2.000000 2.535859 0.000000
2.000000 2.559499 0.000000
2.000000 2.588006 0.000000
2.000000 2.622383 0.000000
2.000000 2.663839 0.000000
2.000000 2.713831 0.000000
2.000000 2.774116 0.000000
2.000000 2.846815 0.000000
2.000000 2.934483 0.000000
2.000000 3.040202 0.000000
2.000000 3.167691 0.000000
2.000000 3.321430 0.000000
2.000000 3.506825 0.000000
2.000000 3.730395 0.000000
1.714286 4.000000 0.000000
1.428571 4.000000 0.000000
1.142857 4.000000 0.000000
0.857143 4.000000 0.000000
0.571429 4.000000 0.000000
0.285714 4.000000 0.000000
0.000000 3.713462 0.000000
0.000000 3.449209 0.000000
0.000000 3.205508 0.000000
0.000000 2.980761 0.000000
0.000000 2.773493 0.000000
0.000000 2.582346 0.000000
0.000000 2.406065 0.000000
0.000000 2.243495 0.000000
0.000000 2.093568 0.000000
0.000000 1.955302 0.000000
0.000000 1.827789 0.000000
0.000000 1.710194 0.000000
0.000000 1.601745 0.000000
0.000000 1.501730 0.000000
0.000000 1.409494 0.000000
0.000000 1.324431 0.000000
0.000000 1.245984 0.000000
0.000000 1.173639 0.000000
0.000000 1.106920 0.000000
0.000000 1.045390 0.000000
0.000000 0.988645 0.000000
0.000000 0.936314 0.000000
0.000000 0.888053 0.000000
0.000000 0.843545 0.000000
0.000000 0.802499 0.000000
0.000000 0.764646 0.000000
0.000000 0.729736 0.000000
0.000000 0.697541 0.000000
0.000000 0.667851 0.000000
0.000000 0.640469 0.000000
0.000000 0.615217 0.000000
0.000000 0.591929 0.000000
0.000000 0.570453 0.000000
0.000000 0.550646 0.000000
0.000000 0.532380 0.000000
0.000000 0.515535 0.000000
0.000000 0.483768 0.000000
0.000000 0.461535 0.000000
0.000000 0.431083 0.000000
0.000000 0.389372 0.000000
0.000000 0.332241 0.000000
0.000000 0.253989 0.000000
0.000000 0.146807 0.000000
0.010563 0.510563 0.000000
0.021127 0.521127 0.000000
0.031690 0.531690 0.000000
0.042254 0.542254 0.000000
0.052817 0.552817 0.000000
0.063380 0.563380 0.000000
0.073944 0.573944 0.000000
0.084507 0.584507 0.000000
0.095070 0.595070 0.000000
0.105634 0.605634 0.000000
0.116197 0.616197 0.000000
0.126761 0.626761 0.000000
0.137324 0.637324 0.000000
0.147887 0.647887 0.000000
0.158451 0.658451 0.000000
0.169014 0.669014 0.000000
0.179577 0.679577 0.000000
0.190141 0.690141 0.000000
0.200704 0.700704 0.000000
0.211268 0.711268 0.000000
0.221831 0.721831 0.000000
0.232394 0.732394 0.000000
0.242958 0.742958 0.000000
0.253521 0.753521 0.000000
0.264085 0.764085 0.000000
0.274648 0.774648 0.000000
0.285211 0.785211 0.000000
0.295775 0.795775 0.000000
0.306338 0.806338 0.000000
0.316901 0.816901 0.000000
0.327465 0.827465 0.000000
0.338028 0.838028 0.000000
0.348592 0.848592 0.000000
0.359155 0.859155 0.000000
0.369718 0.869718 0.000000
0.380282 0.880282 0.000000
0.390845 0.890845 0.000000
0.401408 0.901408 0.000000
0.411972 0.911972 0.000000
0.422535 0.922535 0.000000
0.433099 0.933099 0.000000
0.443662 0.943662 0.000000
0.454225 0.954225 0.000000
0.464789 0.964789 0.000000
0.475352 0.975352 0.000000
0.485915 0.985915 0.000000
0.496479 0.996479 0.000000
0.507042 1.007042 0.000000
0.517606 1.017606 0.000000
0.528169 1.028169 0.000000
0.538732 1.038732 0.000000
0.549296 1.049296 0.000000
0.559859 1.059859 0.000000
0.570423 1.070423 0.000000
0.580986 1.080986 0.000000
0.591549 1.091549 0.000000
0.602113 1.102113 0.000000
0.612676 1.112676 0.000000
0.623239 1.123239 0.000000
0.633803 1.133803 0.000000
0.644366 1.144366 0.000000
0.654930 1.154930 0.000000
0.665493 1.165493 0.000000
0.676056 1.176056 0.000000
0.686620 1.186620 0.000000
0.697183 1.197183 0.000000
0.707746 1.207746 0.000000
0.718310 1.218310 0.000000
0.728873 1.228873 0.000000
0.739437 1.239437 0.000000
0.750000 1.250000 0.000000
0.760563 1.260563 0.000000
0.771127 1.271127 0.000000
0.781690 1.281690 0.000000
0.792254 1.292254 0.000000
0.802817 1.302817 0.000000
0.813380 1.313380 0.000000
0.823944 1.323944 0.000000
0.834507 1.334507 0.000000
0.845070 1.345070 0.000000
0.855634 1.355634 0.000000
0.866197 1.366197 0.000000
0.876761 1.376761 0.000000
0.887324 1.387324 0.000000
0.897887 1.397887 0.000000
0.908451 1.408451 0.000000
0.919014 1.419014 0.000000
0.929577 1.429577 0.000000
0.940141 1.440141 0.000000
0.950704 1.450704 0.000000
0.961268 1.461268 0.000000
0.971831 1.471831 0.000000
0.982394 1.482394 0.000000
0.992958 1.492958 0.000000
1.003521 1.503521 0.000000
1.014085 1.514085 0.000000
1.024648 1.524648 0.000000
1.035211 1.535211 0.000000
1.045775 1.545775 0.000000
1.056338 1.556338 0.000000
1.066901 1.566901 0.000000
1.077465 1.577465 0.000000
1.088028 1.588028 0.000000
1.098592 1.598592 0.000000
1.109155 1.609155 0.000000
1.119718 1.619718 0.000000
1.130282 1.630282 0.000000
1.140845 1.640845 0.000000
1.151408 1.651408 0.000000
1.161972 1.661972 0.000000
1.172535 1.672535 0.000000
1.183099 1.683099 0.000000
1.193662 1.693662 0.000000
1.204225 1.704225 0.000000
1.214789 1.714789 0.000000
1.225352 1.725352 0.000000
1.235915 1.735915 0.000000
1.246479 1.746479 0.000000
1.257042 1.757042 0.000000
1.267606 1.767606 0.000000
1.278169 1.778169 0.000000
1.288732 1.788732 0.000000
1.299296 1.799296 0.000000
1.309859 1.809859 0.000000
1.320423 1.820423 0.000000
1.330986 1.830986 0.000000
1.341549 1.841549 0.000000
1.352113 1.852113 0.000000
1.362676 1.862676 0.000000
1.373239 1.873239 0.000000
1.383803 1.883803 0.000000
1.394366 1.894366 0.000000
1.404930 1.904930 0.000000
1.415493 1.915493 0.000000
1.426056 1.926056 0.000000
1.436620 1.936620 0.000000
1.447183 1.947183 0.000000
1.457746 1.957746 0.000000
1.468310 1.968310 0.000000
1.478873 1.978873 0.000000
1.489437 1.989437 0.000000
1.510417 2.010417 0.000000
1.520833 2.020833 0.000000
1.531250 2.031250 0.000000
1.541667 2.041667 0.000000
1.552083 2.052083 0.000000
1.562500 2.062500 0.000000
1.572917 2.072917 0.000000
1.583333 2.083333 0.000000
1.593750 2.093750 0.000000
1.604167 2.104167 0.000000
1.614583 2.114583 0.000000
1.625000 2.125000 0.000000
1.635417 2.135417 0.000000
1.645833 2.145833 0.000000
1.656250 2.156250 0.000000
1.666667 2.166667 0.000000
1.677083 2.177083 0.000000
1.687500 2.187500 0.000000
1.697917 2.197917 0.000000
1.708333 2.208333 0.000000
1.718750 2.218750 0.000000
1.729167 2.229167 0.000000
1.739583 2.239583 0.000000
1.750000 2.250000 0.000000
1.760417 2.260417 0.000000
1.770833 2.270833 0.000000
1.781250 2.281250 0.000000
1.791667 2.291667 0.000000
1.802083 2.302083 0.000000
1.812500 2.312500 0.000000
1.822917 2.322917 0.000000
1.833333 2.333333 0.000000
1.843750 2.343750 0.000000
1.854167 2.354167 0.000000
1.864583 2.364583 0.000000
1.875000 2.375000 0.000000
1.885417 2.385417 0.000000
1.895833 2.395833 0.000000
1.906250 2.406250 0.000000
1.916667 2.416667 0.000000
1.927083 2.427083 0.000000
1.937500 2.437500 0.000000
1.947917 2.447917 0.000000
1.958333 2.458333 0.000000
1.968750 2.468750 0.000000
1.979167 2.479167 0.000000
1.989583 2.489583 0.000000
0.206561 0.791563 0.000000
0.205359 0.816165 0.000000
0.186354 0.798211 0.000000
0.221961 0.800924 0.000000
0.280649 1.360489 0.000000
0.304015 1.400469 0.000000
0.229142 1.396096 0.000000
0.275922 1.451476 0.000000
1.869084 2.391788 0.000000
1.857928 2.378421 0.000000
1.238669 2.061899 0.000000
1.278787 2.082276 0.000000
1.238298 2.096047 0.000000
1.277579 2.032995 0.000000
0.402536 1.205823 0.000000
0.415290 1.176040 0.000000
0.428330 1.201952 0.000000
0.387294 1.172617 0.000000
0.146930 1.050586 0.000000
0.109488 1.087198 0.000000
0.102742 1.042403 0.000000
0.157178 1.091184 0.000000
0.588967 1.178581 0.000000
0.593116 1.153718 0.000000
0.608054 1.166752 0.000000
0.612180 1.145944 0.000000
0.860304 1.543784 0.000000
0.868821 1.521840 0.000000
0.878420 1.536650 0.000000
0.845380 1.517623 0.000000
1.129525 1.764330 0.000000
1.142005 1.751560 0.000000
1.145757 1.773681 0.000000
1.159368 1.759106 0.000000
1.968150 2.518865 0.000000
1.986105 2.509269 0.000000
1.986696 2.531115 0.000000
0.668964 1.191005 0.000000
0.683291 1.201259 0.000000
0.557625 1.074830 0.000000
0.569760 1.084377 0.000000
0.557769 1.089278 0.000000
0.707567 1.266174 0.000000
0.719026 1.281845 0.000000
0.700768 1.282275 0.000000
0.722329 1.266956 0.000000
0.468225 2.149688 0.000000
0.419106 2.064198 0.000000
0.523878 2.082648 0.000000
0.838546 1.421191 0.000000
0.823708 1.410355 0.000000
0.840477 1.404206 0.000000
0.818500 1.425973 0.000000
0.953187 1.488222 0.000000
0.959780 1.473222 0.000000
0.967054 1.485637 0.000000
1.047418 1.769126 0.000000
1.080240 1.782403 0.000000
1.047768 1.802712 0.000000
0.971392 1.693320 0.000000
0.949208 1.720793 0.000000
0.940644 1.684781 0.000000
0.381391 2.160909 0.000000
0.944091 1.477800 0.000000
0.530075 1.477351 0.000000
0.521303 1.516669 0.000000
0.474240 1.491166 0.000000
0.489489 1.546185 0.000000
1.537370 2.239326 0.000000
1.555275 2.267640 0.000000
1.532966 2.278201 0.000000
0.962010 1.661716 0.000000
0.986804 1.643200 0.000000
0.986259 1.672729 0.000000
1.049149 1.737940 0.000000
1.075111 1.737123 0.000000
[...]
POINT_DATA 3011
SCALARS UX float 1
LOOKUP_TABLE default
-0.000000
0.000000
-0.757009
-1.682423
-0.617416
-0.234860
-0.453768
-0.000000
-0.000000
-0.000000
-0.000000
0.000000
-0.000000
0.311907
0.438150
0.509114
0.553273
0.580256
0.594857
0.597715
0.585263
0.554364
0.502257
0.423526
0.328161
0.219482
0.113640
0.014519
-0.073322
-0.147747
-0.209361
-0.259810
-0.301838
-0.336377
-0.365380
-0.389666
-0.410380
-0.427344
-0.441665
-0.466034
-0.480078
-0.496343
-0.513891
-0.533777
-0.555939
-0.578366
-0.602893
-0.628121
-0.651494
-0.675492
-0.698028
-0.719810
-0.738756
-0.751114
-0.916077
-1.064157
-1.199681
-1.325189
-1.446543
-1.564609
-1.669261
-1.644143
-1.605522
-1.564125
-1.524110
-1.492062
-1.471384
-1.462265
-1.466011
-1.479735
-1.502051
-1.527717
-1.555887
-1.584846
-1.612843
-1.638669
-1.661861
-1.681983
-1.699076
-1.713347
-1.724321
-1.732864
-1.737490
-1.739069
-1.738123
-1.735414
-1.732719
-1.730388
-1.726129
-1.715866
-1.699089
-1.685278
-1.654537
-1.625522
-1.461929
-0.957296
-0.494666
-0.417833
-0.357339
-0.325756
-0.286454
-0.236155
-0.162761
-0.850897
-0.821922
-0.822913
-0.833907
-0.842575
-0.852538
-0.853230
-0.871426
-0.868884
-0.872850
-0.852884
-0.868372
-0.861192
-0.816190
-0.840240
-0.840959
-0.819532
-0.839393
-0.824230
-0.820675
-0.824504
-0.839473
-0.831050
-0.832946
-0.852470
-0.843697
-0.856629
-0.849119
-0.874678
-0.881339
-0.879345
-0.869328
-0.855060
-0.848451
-0.831895
-0.836919
-0.805711
-0.794923
-0.817044
-0.785764
-0.779811
-0.764922
-0.758744
-0.761993
-0.762264
-0.749348
-0.742882
-0.734675
-0.724134
-0.703741
-0.692201
-0.684806
-0.679910
-0.672409
-0.689766
-0.690176
-0.678386
-0.679293
-0.661216
-0.677739
-0.668188
-0.658042
-0.648345
-0.639354
-0.614945
-0.630401
-0.622579
-0.619040
-0.607265
-0.605585
-0.583789
-0.604396
-0.602919
-0.618585
-0.652608
-0.646453
-0.634057
-0.641983
-0.629926
-0.625916
-0.624340
-0.608058
-0.600664
-0.564033
-0.552839
-0.571441
-0.563786
-0.540947
-0.533994
-0.536606
-0.532534
-0.534435
-0.527012
-0.512312
-0.509788
-0.497792
-0.494996
-0.486173
-0.489324
-0.475565
-0.460790
-0.445831
-0.429293
-0.429465
-0.410734
-0.396575
-0.377906
-0.383243
-0.379956
-0.370352
-0.374484
-0.367176
-0.376791
-0.363243
-0.378751
-0.378690
-0.359067
-0.358307
-0.372291
-0.365881
-0.379886
-0.368630
-0.371359
-0.342919
-0.355868
-0.354866
-0.330389
-0.347471
-0.337624
-0.320879
-0.310781
-0.339593
-0.344095
-0.331585
-0.324062
-0.300882
-0.301746
-0.288053
-0.265147
-0.260213
-0.249881
-0.233957
-0.241481
-0.248119
-0.260233
-0.270057
-0.278717
-0.288033
-0.296022
-0.302420
-0.309183
-0.315342
-0.321437
-0.326994
-0.332509
-0.338007
-0.343293
-0.348365
-0.353701
-0.358790
-0.363929
-0.368940
-0.373885
-0.378822
-0.384313
-0.389453
-0.394623
-0.399526
-0.404434
-0.409089
-0.413674
-0.418099
-0.422312
-0.426439
-0.430217
-0.433873
-0.437233
-0.440272
-0.443095
-0.445492
-0.447682
-0.449518
-0.451056
-0.452293
-0.453189
-0.453745
-0.454121
-0.454120
-1.597528
-1.623520
-1.630364
-1.587756
-1.508729
-1.484871
-1.518592
-1.479687
-0.459506
-0.454112
-0.755019
-0.715913
-0.751936
-0.725627
-1.507883
-1.509953
-1.496935
-1.524010
-1.656149
-1.662216
-1.675230
-1.642261
-1.391499
-1.360778
-1.345134
-1.264791
-1.180221
-1.179053
-1.170169
-1.195535
-0.946662
-0.937970
-0.930126
-0.918520
-0.493179
-0.471983
-0.487343
-1.136395
-1.054649
-1.153822
-1.058149
-1.277321
-1.270808
-1.267369
-1.302620
-1.233570
-1.231297
-1.261199
-1.206016
-1.193681
-1.209677
-1.179908
-1.220136
-0.994984
-0.781531
-0.844457
-1.000519
-0.975191
-0.986204
-1.071492
-1.073388
-1.091112
-1.274762
-0.999723
-1.359942
-1.349266
-1.379064
-1.352668
-0.582674
-0.592039
-0.617749
-1.087072
-1.076309
-1.069461
-1.011509
-0.995041
-0.992554
-0.562414
-1.005251
-0.889411
-0.726335
-0.757847
-0.858050
-0.678704
-0.647014
-0.673407
-0.628966
-0.666939
-0.647026
-1.350708
-1.363261
-1.343038
-1.352112
-1.321409
-1.324709
-1.356039
-1.291812
-1.558188
-1.541008
-1.549532
-1.554791
-0.929025
-0.948057
-0.916365
-0.980527
-1.331068
-1.350832
-1.308249
-0.530523
-0.532632
-0.560544
-1.372183
-1.584723
-1.607463
-1.614241
-1.325213
-1.318409
-1.305670
-1.299831
-1.635928
-1.433019
-1.395875
-1.447697
-0.528206
-0.496351
-0.506802
-0.959389
-0.939917
-0.923139
-1.488975
-1.481950
-0.894536
-1.214016
-1.199909
-1.225186
-1.196877
-0.484524
-0.523027
-0.521576
-1.191964
-1.177429
-1.195123
-0.473358
-1.436882
-1.252672
-1.304430
-1.432621
-1.429715
-1.415575
-1.667649
-1.648229
-1.416678
-1.110701
-1.125372
-1.092424
-1.681770
-1.104253
-0.973298
-0.953538
-1.650885
-1.635391
-1.634370
-1.311225
-1.208362
-1.153818
-1.356324
-1.392805
-0.342456
-0.334120
-0.369857
-0.829997
-0.843560
-0.860305
-0.932083
-0.907546
-0.928810
-0.987658
-1.016182
-1.031463
-0.949081
-1.452842
-1.497372
-1.489970
-1.204561
-1.218521
-1.215264
-1.095359
-1.204381
-1.696074
-1.684765
-1.701750
-1.372221
-1.412265
-0.501505
-1.047637
-0.427124
-0.456796
-0.451850
-1.225463
-1.205133
-1.214769
-1.262254
-0.598817
-0.616181
-0.643379
-1.307256
-1.340970
-1.293112
-0.792985
-0.771484
-0.764010
-0.821343
-0.432028
-0.431276
-0.499182
-0.786939
-0.813862
-0.816194
-0.855426
-0.775702
-0.802315
-0.928676
-0.910755
-0.987999
-0.974631
-0.370658
-0.344573
-0.424701
-1.288916
-1.405379
-1.418567
-1.436741
-1.435360
-0.954052
-0.583100
-0.582441
-0.547166
-0.691486
-0.702884
-0.665101
-0.722550
-0.643089
-0.627474
-0.608631
-0.395643
-0.382131
-1.141104
-1.122948
-1.123217
-1.142382
-1.181765
-1.149543
-1.174985
-1.147724
-0.669878
-0.692868
-0.664804
-0.662288
-0.658386
-0.715304
-0.436659
-0.408352
-0.449599
-0.400761
-0.394441
-1.257963
-1.263226
-1.284978
-1.237774
-1.248605
-1.229973
-1.234673
-1.273502
-1.266624
-1.241627
-1.149535
-1.164017
-1.146124
-1.163889
-0.840721
-0.828163
-0.809924
-0.861751
-0.988913
-1.207512
-1.232001
-1.216693
-1.223012
-1.207261
-1.194607
-0.462487
-0.490760
-0.473677
-0.506090
-0.920596
-0.909969
-1.156456
-1.151037
-1.133974
-0.628968
-0.696845
-0.860194
-0.951878
-0.977957
-0.944770
-0.971921
-1.066191
-1.072868
-1.035742
-1.093046
-0.430755
-0.415457
-1.046210
-0.929529
-1.130154
-0.991323
-0.999177
-1.015121
-0.646761
-0.684975
-0.719991
-0.970078
-1.034460
-1.017229
-1.039188
-0.625360
-0.650481
-0.539648
-0.500834
-0.548178
-0.510819
-0.747317
-0.745917
-0.776882
-0.762425
-1.691050
-1.688747
-1.706673
-1.672060
-1.494947
-1.439354
-1.355489
-1.327345
-1.347683
-1.433045
-0.382090
-1.532004
-1.533361
-1.550071
-1.546757
-0.857177
-0.831918
-0.818275
-0.792307
-1.154260
-1.129859
-1.111800
-1.100461
-0.445692
-0.418705
-0.436961
-0.408620
-0.443390
-0.483616
-1.497268
-1.510162
-1.539352
-1.640836
-1.664973
-1.629919
-1.671161
-1.673292
-1.659174
-1.024150
-1.040678
-1.040516
-0.652027
-0.690438
-1.475069
-1.468489
-1.488168
-1.476105
-1.493883
-1.160112
-1.141696
-1.163352
-1.143789
-1.528118
-1.548356
-1.548074
-1.517601
-1.242178
-1.222233
-1.657850
-1.649114
-1.638819
-1.646804
-1.661753
-1.622685
-1.650987
-1.591849
-1.491508
-1.532246
-1.621859
-1.587095
-1.600602
-1.628612
-1.605742
-1.073067
-1.069113
-1.088268
-0.845765
-1.505640
-1.477663
-1.434270
-1.588689
-1.523915
-0.596422
-0.589082
-0.569404
-0.629566
-0.629045
-0.589030
-1.591809
-1.593106
-1.605573
-1.464195
-1.442232
-1.419734
-1.454833
-0.713037
-0.660631
-0.689743
-0.733090
-1.030250
-1.022532
-1.512591
-1.496429
-1.512979
-1.493317
-1.348962
-1.467933
-1.501541
-1.253546
-1.259158
-1.539263
-0.495193
-0.524217
-0.529669
-0.482988
-1.557404
-1.544030
-0.825631
-0.824118
-0.861106
-0.868325
-0.847399
-1.041074
-1.104771
-1.064914
-1.149032
-1.265043
-1.255502
-1.258107
-1.697179
-1.703384
-1.714856
-1.682437
-0.571326
-0.838278
-1.615386
-1.618937
-1.634939
-1.664728
-1.637056
-1.630294
-0.534634
-0.517201
-0.498514
-1.599405
-1.599420
-1.631972
-1.477765
-1.553664
-1.531585
-0.492908
-0.475560
-0.499596
-0.471955
-0.488325
-0.783551
-0.761832
-1.612742
-1.619585
-1.605161
-0.514371
-0.741406
-0.704663
-0.716426
-1.503204
-1.454480
-1.434417
-1.456498
-1.438925
-1.422300
-1.336095
-1.329330
-1.604885
-1.582191
-1.724970
-1.713562
-1.710440
-1.701590
-1.496404
-0.379606
-1.505214
-1.607700
-1.638730
-1.552157
-1.514451
-0.590259
-0.631275
-1.604630
-1.650922
-1.613600
-0.469004
-1.664311
-0.592642
-0.584962
-0.623184
-1.610420
-1.620782
-1.592375
-1.087137
-1.034691
-1.053675
-1.002650
-1.017428
-1.653528
-1.649055
-1.669951
-1.673907
-0.655822
-0.698358
-1.585146
-1.559398
-1.573872
-1.551830
-1.418357
-1.403553
-1.427452
-1.389799
-1.415941
-1.420769
-1.403728
-1.384789
-1.409261
-1.581528
-1.629177
-0.560237
-0.561794
-1.522216
-1.505968
-1.523724
-1.510842
-1.536250
-0.298884
-0.313418
-0.360120
-1.376871
-1.377736
-1.531146
-1.541893
-1.383365
-1.366246
-0.861744
-0.907374
-0.889500
-0.857645
-1.324853
-1.551212
-1.504959
-1.508984
-1.481301
-0.739574
-0.439398
-0.467236
-0.461285
-0.491267
-1.036247
-1.046885
-1.009571
-0.997513
-0.968237
-0.973359
-0.662927
-0.627060
-0.536853
-0.550292
-0.994030
-0.962331
-0.557989
-0.552382
-1.253166
-1.516280
-1.537726
-1.498202
-1.358316
-1.278518
-1.512976
-1.558091
-0.723284
-1.323590
-1.719760
-0.691868
-0.872116
-0.891004
-0.462960
-0.478543
-0.518271
-1.713517
-1.544678
-1.536492
-1.563256
-0.898845
-0.904038
-0.930349
-0.921919
-0.487479
-1.654261
-1.644896
-1.630978
-1.535095
-0.732199
-0.740166
-0.770478
-0.761116
-0.443111
-1.720428
-1.722255
-1.707444
-1.551328
-1.680944
-1.306675
-1.338983
-1.273709
-1.328716
-1.389954
-1.542619
-1.626831
-0.957169
-0.995253
-1.013437
-0.938069
-1.063467
-1.110614
-1.004258
-1.546024
-1.136831
-1.159209
-0.988255
-1.036070
-1.023550
-1.652906
-1.668097
-1.640590
-1.706667
-1.690053
-1.265724
-1.179622
-1.242834
-1.197005
-1.654863
-0.981752
-1.069199
-1.052850
-1.232251
-1.258786
-1.235686
-1.574205
-1.562284
-1.597302
-1.498169
-1.498056
-1.541102
-1.542270
-1.195957
-1.186061
-1.167301
-1.155357
-1.138152
-0.854244
-0.890373
-1.055107
-1.108197
-1.127343
-1.120272
-1.101607
-0.816826
-0.920472
-0.935374
-0.969332
-0.979636
-1.470246
-1.396282
-1.417104
-1.348211
-1.502534
-1.546913
-1.589730
-1.520355
-0.472085
-1.573432
-1.571728
-1.592966
-1.593043
-1.268643
-1.286906
-1.253991
-1.329562
-1.307424
-1.709786
-1.580700
-1.578338
-1.689788
-0.365454
-0.383294
-1.353860
-1.620296
-0.374800
-0.619693
-1.313452
-1.359261
-1.322027
-0.826455
-1.375835
-1.678945
-1.655805
-1.724757
-1.701914
-0.475839
-1.667756
-1.113153
-1.240582
-1.131888
-1.571877
-1.661720
-0.464751
-1.281699
-1.383283
-1.463800
-1.391120
-0.621845
-0.661032
-0.653461
-0.449462
-0.471614
-0.448094
-1.277005
-1.503181
-1.533314
-1.590462
-1.336720
-0.873218
-0.916657
-0.955534
-1.008147
-1.565767
-1.562470
-1.285018
-1.289640
-1.248474
-1.209079
-0.729528
-1.179000
-1.718784
-1.446516
-1.459150
-1.451303
-0.953352
-1.391474
-1.380074
-1.376068
-1.408498
-1.354738
-1.339869
-1.317382
-1.289789
-1.415042
-1.295564
-1.318723
-1.303032
-0.822984
-0.749209
-0.782460
-1.179690
-1.476618
-1.490309
-1.473620
-1.617709
-1.581649
-1.631156
-1.676117
-1.330151
-0.906248
-1.313184
-1.363141
-1.373706
-1.343361
-1.691805
-1.618723
-1.364706
-1.366182
-1.487289
-0.846057
-0.521562
-0.554351
-1.676794
-1.337217
-1.124475
-1.704945
-1.553454
-1.521761
-1.536464
-0.751837
-1.675707
-0.798558
-0.792119
-0.816528
-1.228930
-1.162982
-1.691276
-1.283118
-1.452104
-1.467112
-1.490594
-0.724731
-1.049268
-1.087641
-1.057959
-1.350288
-1.510766
-1.324938
-1.526746
-1.515249
-1.502906
-1.403732
-1.411772
-1.535752
-1.640262
-0.457457
-0.423227
-1.476263
-1.474772
-1.489606
-0.471331
-1.172975
-1.150999
-0.513789
-0.601205
-0.807333
-0.967022
-1.006936
-1.642473
-1.661819
-0.952143
-0.947063
-1.088398
-1.024616
-1.224150
-1.269652
-1.576426
-1.541862
-1.567595
-0.667780
-0.694676
-0.906661
-0.877257
-1.384604
-1.573846
-1.551335
-1.394642
-1.411277
-1.394064
-1.508931
-1.688994
-1.399758
-1.208834
-1.217846
-1.584494
-1.597277
-1.598465
-0.670411
-1.240302
-1.248779
-1.267469
-1.421957
-1.258368
-1.568041
-1.553448
-1.239469
-1.188629
-1.183233
-1.271874
-1.044505
-0.473297
-1.419475
-1.237778
-1.236490
-1.470032
-1.458321
-1.491804
-1.395685
-1.407705
-1.403154
-0.810873
-1.123416
-1.194416
-1.184783
-1.026008
-1.077205
-1.401980
-1.287487
-1.239354
-0.806180
-0.805313
-0.788244
-0.929328
-1.215603
-1.566545
-1.568731
-1.582195
-1.583392
-0.654841
-0.592169
-0.691754
-1.293122
-1.277952
-1.392769
-1.408137
-1.421282
-1.406645
-1.422437
-0.838468
-0.463604
-0.460508
-0.871595
-0.749761
-0.889248
-0.805546
-1.474127
-1.318512
-1.299370
-1.560302
-1.538598
-1.549094
-1.188657
-0.621608
-0.647852
-1.181367
-0.984127
-1.012796
-1.568325
-1.012186
-1.413077
-1.181732
-1.460255
-1.307676
-1.304235
-1.455938
-1.048869
-1.027524
-1.039302
-1.032054
-0.507768
-1.277122
-1.430810
-0.633037
-1.332009
-1.502042
-0.666183
-0.711044
-0.700815
-0.736715
-0.699304
-0.743308
-0.765733
-1.602377
-1.547582
-1.627415
-1.431504
-1.452613
-1.443210
-0.997898
-1.031290
-1.462879
-1.506633
-1.539255
-1.236872
-1.168911
-1.340103
-1.451271
-0.869173
-1.255283
-1.445601
-1.578175
-1.637601
-0.464728
-1.078480
-1.492043
-1.525869
-1.474212
-1.116875
-1.148836
-0.937416
-1.050667
-1.071252
-1.089616
-1.116228
-1.195192
-1.125625
-1.134228
-1.074164
-1.100512
-1.108571
-1.279759
-1.548936
-0.363825
-0.359913
-1.263699
-1.477180
-1.274271
-1.284370
-1.292556
-0.843092
-0.900437
-1.111338
-1.118755
-1.128635
-1.123700
-0.722483
-0.674939
-1.410717
-1.400057
-1.250998
-1.435689
-1.062540
-0.968905
-1.479260
-0.762129
-0.758101
-1.522415
-1.180004
-1.144646
-1.157546
-0.481626
-0.794870
-0.757077
-0.773678
-1.556112
-1.578563
-0.662962
-1.456301
-1.310671
-1.471389
-0.744163
-1.351738
-1.306467
-1.108047
-1.461707
-1.397051
-1.390047
-1.241771
-0.783579
-0.825174
-0.796288
-0.487962
-0.465679
-0.495465
-0.517781
-0.476024
-0.776006
-0.392180
-0.405401
-1.400636
-0.999375
-0.994825
-1.377325
-1.269798
-1.240130
-0.694069
-0.714772
-1.161491
-1.453441
-1.204204
-1.440177
-1.437358
-1.283934
-1.272181
-1.290281
-0.477415
-0.497440
-1.394582
-1.107378
-1.287487
-0.784278
-0.606054
-0.584817
-0.588762
-0.657436
-0.685015
-0.586277
-1.415139
-1.476615
-1.336223
-1.140307
-1.128182
-1.292498
-1.553517
-1.274429
-0.879042
-0.934522
-0.882368
-0.936871
-1.346043
-1.334753
-1.191210
-1.404449
-0.685418
-1.391013
-1.294660
-1.130210
-1.109455
-0.605873
-0.620957
-1.399442
-0.452833
-0.426472
-1.520154
-0.973178
-1.129670
-0.439401
-1.037405
-0.634494
-1.351444
-0.478292
-1.604849
-0.590348
-1.432661
-1.308277
-1.253592
-1.275143
-1.589594
-0.785990
-0.783171
-0.836859
-0.724329
-0.886895
-0.858885
-0.868459
-1.213264
-1.125667
-1.138466
-1.214955
-0.883045
-0.842045
-1.346497
-0.790257
-1.146422
-1.153722
-1.366411
-1.348666
-1.353647
-1.348048
-1.337535
-1.332617
-1.121947
-1.507376
-0.892247
-1.131461
-0.681601
-0.718245
-0.653347
-1.346250
-0.885780
-0.955797
-0.828954
-1.364478
-1.440135
-1.490109
-1.020053
-0.990996
-1.043856
-0.765587
-0.789329
-0.819790
-0.843777
-0.462604
-0.431167
-0.462038
-0.413271
-1.507814
-1.634619
-0.998288
-0.995825
-1.011897
-0.941026
-1.306628
-0.802856
-0.785578
-0.779333
-1.056029
-1.049494
-1.211313
-1.168023
-0.758706
-0.768517
-0.745215
-1.101816
-1.115409
-0.920984
-1.064504
-1.057255
-1.463292
-1.363893
-0.491568
-0.472231
-1.100711
-1.081241
-1.083335
-0.509584
-0.522749
-0.447496
-0.494907
-1.498411
-0.733378
-0.421130
-1.324027
-1.311689
-1.308019
-0.582926
-0.551237
-0.590640
-1.346489
-1.361074
-0.556575
-1.419516
-1.457198
-1.471728
-0.528664
-0.596108
-1.090978
-1.107973
-1.072392
-1.035838
-1.174325
-0.446269
-0.384239
-0.470197
-1.124789
-1.083631
-1.234464
-1.116793
-1.265285
-1.252173
-1.242243
-0.450988
-0.502121
-1.564783
-1.600695
-1.209737
-0.970148
-0.929327
-1.134961
-1.016575
-1.689869
-1.074840
-1.416752
-1.420783
-1.371986
-0.593008
-1.395037
-1.414076
-1.451743
-1.452147
-0.619480
-1.130194
-1.607433
-0.708041
-0.320396
-0.349981
-0.669664
-0.650509
-0.639491
-0.600941
-0.929790
-0.938144
-0.937605
-0.964814
-0.956084
-0.685983
-0.405012
-0.417110
-1.133059
-0.998813
-1.080888
-1.318887
-1.292737
-0.982148
-0.922628
-1.089786
-0.923987
-1.257921
-0.894693
-0.898297
-0.852243
-0.891895
-0.395148
-0.803278
-0.842697
-0.425095
-0.451517
-0.391861
-0.486276
-0.753563
-0.553983
-1.147596
-1.084123
-0.759750
-0.630087
-0.713488
-0.979652
-1.038168
-1.337891
-1.362148
-1.364467
-1.274021
-1.269506
-0.949151
-0.941811
-1.084432
-0.795222
-0.767980
-0.829369
-0.746174
-0.684685
-0.528274
-0.507161
-0.790930
-0.798899
-0.618863
-0.602847
-0.577611
-0.512966
-0.478546
-0.561410
-1.430612
-0.417897
-0.361406
-0.381132
-0.353201
-0.464195
-0.370929
-0.379263
-1.077133
-1.078520
-1.205188
-0.563745
-0.528811
-1.435782
-0.386518
-0.726149
-0.685088
-0.834291
-0.499604
-1.703208
-1.687170
-1.343024
-1.665921
-1.689936
-0.988597
-1.370809
-1.055436
-1.333670
-1.264873
-1.332201
-1.387651
-1.320601
-0.761297
-0.723915
-0.925255
-0.865709
-0.490411
-0.552628
-0.613928
-1.003141
-0.644362
-1.010441
-0.828166
-0.810535
-1.369024
-0.608165
-0.927207
-0.624856
-0.637808
-0.437798
-0.420170
-0.323197
-0.318689
-0.396035
-0.382667
-0.352049
-0.931508
-0.878138
-1.547429
-0.532267
-0.575346
-0.541227
-0.553567
-1.013223
-0.809428
-0.816125
-1.339998
-1.329770
-1.264769
-1.279552
-1.166233
-1.173818
-0.885441
-0.889333
-0.907063
-0.614972
-1.344333
-1.309285
-1.380192
-0.507037
-0.538138
-0.700746
-0.734615
-0.763699
-0.862806
-1.296746
-1.181669
-1.353897
-0.476480
-0.790828
-0.807553
-0.817138
-0.481842
-0.460079
-0.481301
-1.500435
-0.754446
-1.140979
-1.193550
-1.180474
-1.223341
-1.265977
-0.808431
-1.195263
-1.685996
-1.331856
-0.743777
-0.895915
-1.059638
-1.100043
-0.881702
-1.190050
-1.229823
-1.200338
-0.897719
-0.609797
-1.110614
-1.258387
-1.290274
-0.990544
-1.157320
-0.858386
-1.009693
-1.544238
-1.420944
-0.588198
-0.749913
-1.446164
-0.801501
-0.763532
-0.547004
-1.057661
-0.573696
-0.834556
-0.788433
-1.119837
-1.118191
-1.238365
-0.890416
-1.560792
-0.984155
-1.291888
-0.655241
-0.620977
-0.778934
-0.949449
-0.940122
-0.658362
-0.687576
-1.595141
-1.594032
-1.206880
-1.274357
-0.731582
-0.738775
-1.007734
-1.247377
-0.519629
-1.229810
-0.530077
-0.564378
-1.011826
-1.120226
-1.095183
-0.548541
-0.554781
-0.542003
-0.636686
-1.053198
-0.883682
-0.545074
-0.539606
-0.596126
-0.521868
-0.453447
-0.430055
-1.049435
-0.884580
-0.896539
-0.692973
-1.653499
-0.332878
-0.951836
-0.706063
-1.374809
-0.825290
-0.515259
-1.122817
-1.201599
-0.466070
-1.034070
-0.429821
-0.364216
-1.353603
-1.058879
-1.523307
-1.427952
-1.112921
-1.138499
-1.171160
-1.148843
-1.239481
-1.116954
-0.995601
-1.056199
-0.627174
-0.877102
-0.840867
-0.832887
-0.958934
-0.662532
-1.179437
-0.548792
-0.577420
-0.374647
-1.107731
-1.218025
-0.871779
-0.776044
-0.757885
-0.412459
-0.679554
-1.415025
-0.591887
-0.768166
-1.079397
-0.661646
-0.410151
-0.558395
-0.403951
-0.394881
-1.429871
-0.441200
-1.194512
-0.524912
-0.412367
-0.590671
-1.099434
-0.894015
-0.877385
-1.151676
-1.080688
-0.871607
-1.142712
-0.977960
-0.987231
-0.786606
-1.042195
-0.725675
-0.719022
-0.701265
-1.148459
-0.936410
-0.499781
-0.563846
-0.834269
-1.026200
-0.789461
-0.827876
-0.833594
-0.616019
-1.177071
-0.787945
-0.988491
-0.582561
-0.857867
-0.570576
-1.192810
-1.020543
-1.067754
-0.436200
-0.313611
-0.966312
-0.669219
-0.670690
-0.376229
-0.902767
-0.738257
-0.633742
-1.442351
-1.292623
-0.518325
-0.715937
-0.419167
-0.493485
-0.514395
-1.190597
-1.062637
-0.846345
-0.268570
-0.232950
-0.231588
-0.418708
-0.276638
-0.352713
-0.216932
-0.286255
-0.145542
0.188582
0.134063
0.209661
0.114234
0.098854
0.147256
0.125909
0.279985
-0.007826
-0.008097
-0.039085
0.292204
0.355788
0.373976
-0.109943
-0.149719
-0.104104
-0.156500
-0.124353
-0.095958
-0.196817
-0.144906
-0.281252
-0.235192
-0.131912
-0.118755
-0.104553
-0.097000
-0.085394
-0.115432
-0.149009
0.178566
0.146492
0.167971
0.139452
-0.099918
-0.066875
-0.128708
-0.149007
-0.127070
-0.053343
-0.024519
0.229386
0.206997
0.222508
0.208761
-0.200273
-0.185146
-0.228824
0.090589
0.086422
-0.001820
0.021260