# vtk DataFile Version 2.0
Test
ASCII
DATASET POLYDATA
POINTS 4020 float
0.000000 0.000000 0.000000
13.300000 0.000000 0.000000
15.000000 1.700000 0.000000
15.000000 50.000000 0.000000
0.000000 50.000000 0.000000
0.271429 0.000000 0.000000
0.542857 0.000000 0.000000
0.814286 0.000000 0.000000
1.085714 0.000000 0.000000
1.357143 0.000000 0.000000
1.628571 0.000000 0.000000
1.900000 0.000000 0.000000
2.171429 0.000000 0.000000
2.442857 0.000000 0.000000
2.714286 0.000000 0.000000
2.985714 0.000000 0.000000
3.257143 0.000000 0.000000
3.528571 0.000000 0.000000
3.800000 0.000000 0.000000
4.071429 0.000000 0.000000
4.342857 0.000000 0.000000
4.614286 0.000000 0.000000
4.885714 0.000000 0.000000
5.157143 0.000000 0.000000
5.428571 0.000000 0.000000
5.700000 0.000000 0.000000
5.971429 0.000000 0.000000
6.242857 0.000000 0.000000
6.514286 0.000000 0.000000
6.785714 0.000000 0.000000
7.057143 0.000000 0.000000
7.328571 0.000000 0.000000
7.600000 0.000000 0.000000
7.871429 0.000000 0.000000
8.142857 0.000000 0.000000
8.414286 0.000000 0.000000
8.685714 0.000000 0.000000
8.957143 0.000000 0.000000
9.228571 0.000000 0.000000
9.500000 0.000000 0.000000
9.771429 0.000000 0.000000
10.042857 0.000000 0.000000
10.314286 0.000000 0.000000
10.585714 0.000000 0.000000
10.857143 0.000000 0.000000
11.128571 0.000000 0.000000
11.400000 0.000000 0.000000
11.671429 0.000000 0.000000
11.942857 0.000000 0.000000
12.214286 0.000000 0.000000
12.485714 0.000000 0.000000
12.757143 0.000000 0.000000
13.028571 0.000000 0.000000
13.300873 0.054488 0.000000
13.303493 0.108919 0.000000
13.307856 0.163239 0.000000
13.313957 0.217391 0.000000
13.321791 0.271320 0.000000
13.331349 0.324970 0.000000
13.342623 0.378286 0.000000
13.355599 0.431213 0.000000
13.370265 0.483697 0.000000
13.386605 0.535684 0.000000
13.404604 0.587121 0.000000
13.424242 0.637954 0.000000
13.445499 0.688132 0.000000
13.468353 0.737602 0.000000
13.492781 0.786315 0.000000
13.518758 0.834220 0.000000
13.546257 0.881267 0.000000
13.575250 0.927409 0.000000
13.605707 0.972598 0.000000
13.637597 1.016788 0.000000
13.670886 1.059933 0.000000
13.705542 1.101988 0.000000
13.741527 1.142912 0.000000
13.778806 1.182660 0.000000
13.817340 1.221194 0.000000
13.857088 1.258473 0.000000
13.898012 1.294458 0.000000
13.940067 1.329114 0.000000
13.983212 1.362403 0.000000
14.027402 1.394293 0.000000
14.072591 1.424750 0.000000
14.118733 1.453743 0.000000
14.165780 1.481242 0.000000
14.213685 1.507219 0.000000
14.262398 1.531647 0.000000
14.311868 1.554501 0.000000
14.362046 1.575758 0.000000
14.412879 1.595396 0.000000
14.464316 1.613395 0.000000
14.516303 1.629735 0.000000
14.568787 1.644401 0.000000
14.621714 1.657377 0.000000
14.675030 1.668651 0.000000
14.728680 1.678209 0.000000
14.782609 1.686043 0.000000
14.836761 1.692144 0.000000
14.891081 1.696507 0.000000
14.945512 1.699127 0.000000
15.000000 2.187879 0.000000
15.000000 2.675758 0.000000
15.000000 3.163636 0.000000
15.000000 3.651515 0.000000
15.000000 4.139394 0.000000
15.000000 4.627273 0.000000
15.000000 5.115152 0.000000
15.000000 5.603030 0.000000
15.000000 6.090909 0.000000
15.000000 6.578788 0.000000
15.000000 7.066667 0.000000
15.000000 7.554545 0.000000
15.000000 8.042424 0.000000
15.000000 8.530303 0.000000
15.000000 9.018182 0.000000
15.000000 9.506061 0.000000
15.000000 9.993939 0.000000
15.000000 10.481818 0.000000
15.000000 10.969697 0.000000
15.000000 11.457576 0.000000
15.000000 11.945455 0.000000
15.000000 12.433333 0.000000
15.000000 12.921212 0.000000
15.000000 13.409091 0.000000
15.000000 13.896970 0.000000
15.000000 14.384848 0.000000
15.000000 14.872727 0.000000
15.000000 15.360606 0.000000
15.000000 15.848485 0.000000
15.000000 16.336364 0.000000
15.000000 16.824242 0.000000
15.000000 17.312121 0.000000
15.000000 17.800000 0.000000
15.000000 18.287879 0.000000
15.000000 18.775758 0.000000
15.000000 19.263636 0.000000
15.000000 19.751515 0.000000
15.000000 20.239394 0.000000
15.000000 20.727273 0.000000
15.000000 21.215152 0.000000
15.000000 21.703030 0.000000
15.000000 22.190909 0.000000
15.000000 22.678788 0.000000
15.000000 23.166667 0.000000
15.000000 23.654545 0.000000
15.000000 24.142424 0.000000
15.000000 24.630303 0.000000
15.000000 25.118182 0.000000
15.000000 25.606061 0.000000
15.000000 26.093939 0.000000
15.000000 26.581818 0.000000
15.000000 27.069697 0.000000
15.000000 27.557576 0.000000
15.000000 28.045455 0.000000
15.000000 28.533333 0.000000
15.000000 29.021212 0.000000
15.000000 29.509091 0.000000
15.000000 29.996970 0.000000
15.000000 30.484848 0.000000
15.000000 30.972727 0.000000
15.000000 31.460606 0.000000
15.000000 31.948485 0.000000
15.000000 32.436364 0.000000
15.000000 32.924242 0.000000
15.000000 33.412121 0.000000
15.000000 33.900000 0.000000
15.000000 34.387879 0.000000
15.000000 34.875758 0.000000
15.000000 35.363636 0.000000
15.000000 35.851515 0.000000
15.000000 36.339394 0.000000
15.000000 36.827273 0.000000
15.000000 37.315152 0.000000
15.000000 37.803030 0.000000
15.000000 38.290909 0.000000
15.000000 38.778788 0.000000
15.000000 39.266667 0.000000
15.000000 39.754545 0.000000
15.000000 40.242424 0.000000
15.000000 40.730303 0.000000
15.000000 41.218182 0.000000
15.000000 41.706061 0.000000
15.000000 42.193939 0.000000
15.000000 42.681818 0.000000
15.000000 43.169697 0.000000
15.000000 43.657576 0.000000
15.000000 44.145455 0.000000
15.000000 44.633333 0.000000
15.000000 45.121212 0.000000
15.000000 45.609091 0.000000
15.000000 46.096970 0.000000
15.000000 46.584848 0.000000
15.000000 47.072727 0.000000
15.000000 47.560606 0.000000
15.000000 48.048485 0.000000
15.000000 48.536364 0.000000
15.000000 49.024242 0.000000
15.000000 49.512121 0.000000
14.693878 50.000000 0.000000
14.387755 50.000000 0.000000
14.081633 50.000000 0.000000
13.775510 50.000000 0.000000
13.469388 50.000000 0.000000
13.163265 50.000000 0.000000
12.857143 50.000000 0.000000
12.551020 50.000000 0.000000
12.244898 50.000000 0.000000
11.938776 50.000000 0.000000
11.632653 50.000000 0.000000
11.326531 50.000000 0.000000
11.020408 50.000000 0.000000
10.714286 50.000000 0.000000
10.408163 50.000000 0.000000
10.102041 50.000000 0.000000
9.795918 50.000000 0.000000
9.489796 50.000000 0.000000
9.183673 50.000000 0.000000
8.877551 50.000000 0.000000
8.571429 50.000000 0.000000
8.265306 50.000000 0.000000
7.959184 50.000000 0.000000
7.653061 50.000000 0.000000
7.346939 50.000000 0.000000
7.040816 50.000000 0.000000
6.734694 50.000000 0.000000
6.428571 50.000000 0.000000
6.122449 50.000000 0.000000
5.816327 50.000000 0.000000
5.510204 50.000000 0.000000
5.204082 50.000000 0.000000
4.897959 50.000000 0.000000
4.591837 50.000000 0.000000
4.285714 50.000000 0.000000
3.979592 50.000000 0.000000
3.673469 50.000000 0.000000
3.367347 50.000000 0.000000
3.061224 50.000000 0.000000
2.755102 50.000000 0.000000
2.448980 50.000000 0.000000
2.142857 50.000000 0.000000
1.836735 50.000000 0.000000
1.530612 50.000000 0.000000
1.224490 50.000000 0.000000
0.918367 50.000000 0.000000
0.612245 50.000000 0.000000
0.306122 50.000000 0.000000
0.000000 49.494949 0.000000
0.000000 48.989899 0.000000
0.000000 48.484848 0.000000
0.000000 47.979798 0.000000
0.000000 47.474747 0.000000
0.000000 46.969697 0.000000
0.000000 46.464646 0.000000
0.000000 45.959596 0.000000
0.000000 45.454545 0.000000
0.000000 44.949495 0.000000
0.000000 44.444444 0.000000
0.000000 43.939394 0.000000
0.000000 43.434343 0.000000
0.000000 42.929293 0.000000
0.000000 42.424242 0.000000
0.000000 41.919192 0.000000
0.000000 41.414141 0.000000
0.000000 40.909091 0.000000
0.000000 40.404040 0.000000
0.000000 39.898990 0.000000
0.000000 39.393939 0.000000
0.000000 38.888889 0.000000
0.000000 38.383838 0.000000
0.000000 37.878788 0.000000
0.000000 37.373737 0.000000
0.000000 36.868687 0.000000
0.000000 36.363636 0.000000
0.000000 35.858586 0.000000
0.000000 35.353535 0.000000
0.000000 34.848485 0.000000
0.000000 34.343434 0.000000
0.000000 33.838384 0.000000
0.000000 33.333333 0.000000
0.000000 32.828283 0.000000
0.000000 32.323232 0.000000
0.000000 31.818182 0.000000
0.000000 31.313131 0.000000
0.000000 30.808081 0.000000
0.000000 30.303030 0.000000
0.000000 29.797980 0.000000
0.000000 29.292929 0.000000
0.000000 28.787879 0.000000
0.000000 28.282828 0.000000
0.000000 27.777778 0.000000
0.000000 27.272727 0.000000
0.000000 26.767677 0.000000
0.000000 26.262626 0.000000
0.000000 25.757576 0.000000
0.000000 25.252525 0.000000
0.000000 24.747475 0.000000
0.000000 24.242424 0.000000
0.000000 23.737374 0.000000
0.000000 23.232323 0.000000
0.000000 22.727273 0.000000
0.000000 22.222222 0.000000
0.000000 21.717172 0.000000
0.000000 21.212121 0.000000
0.000000 20.707071 0.000000
0.000000 20.202020 0.000000
0.000000 19.696970 0.000000
0.000000 19.191919 0.000000
0.000000 18.686869 0.000000
0.000000 18.181818 0.000000
0.000000 17.676768 0.000000
0.000000 17.171717 0.000000
0.000000 16.666667 0.000000
0.000000 16.161616 0.000000
0.000000 15.656566 0.000000
0.000000 15.151515 0.000000
0.000000 14.646465 0.000000
0.000000 14.141414 0.000000
0.000000 13.636364 0.000000
0.000000 13.131313 0.000000
0.000000 12.626263 0.000000
0.000000 12.121212 0.000000
0.000000 11.616162 0.000000
0.000000 11.111111 0.000000
0.000000 10.606061 0.000000
0.000000 10.101010 0.000000
0.000000 9.595960 0.000000
0.000000 9.090909 0.000000
0.000000 8.585859 0.000000
0.000000 8.080808 0.000000
0.000000 7.575758 0.000000
0.000000 7.070707 0.000000
0.000000 6.565657 0.000000
0.000000 6.060606 0.000000
0.000000 5.555556 0.000000
0.000000 5.050505 0.000000
0.000000 4.545455 0.000000
0.000000 4.040404 0.000000
0.000000 3.535354 0.000000
0.000000 3.030303 0.000000
0.000000 2.525253 0.000000
0.000000 2.020202 0.000000
0.000000 1.515152 0.000000
0.000000 1.010101 0.000000
0.000000 0.505051 0.000000
14.512121 31.460606 0.000000
14.512121 8.042424 0.000000
14.512121 17.312121 0.000000
14.512121 21.215152 0.000000
14.512121 23.654545 0.000000
14.512121 26.093939 0.000000
14.512121 14.384848 0.000000
[...]
POINT_DATA 4020
SCALARS UX float 1
LOOKUP_TABLE default
28.481571
95.083000
0.000000
0.000000
6.259565
28.526364
28.539519
28.516296
28.510623
28.440473
28.393654
28.291453
28.174158
28.076798
27.901657
27.674473
27.373827
27.054519
26.554294
25.932179
25.246921
24.313357
23.281527
22.067678
20.777827
19.339912
18.041827
16.538433
15.158751
13.639044
11.850083
9.346562
9.886927
10.868292
12.674202
12.912092
15.504453
15.068454
18.874210
23.267387
26.441106
32.012910
26.505584
27.683102
21.503175
19.546665
16.335373
31.198893
24.103226
18.521563
27.217786
19.909434
81.731630
86.797684
80.081441
110.516393
167.310064
73.008805
-224.139554
-648.427328
-297.637852
-187.298452
-90.455664
-150.152303
-80.156141
-59.000012
-37.620026
-159.037786
-242.370540
-228.238126
-184.650151
-153.205635
-131.683383
-113.727474
-92.654654
-72.175733
-54.161168
-39.274082
-27.271856
-18.995425
-13.078975
-8.386687
-5.469537
-3.344555
-1.806186
-0.517531
0.283592
0.864542
1.268613
1.488549
1.618235
1.641533
1.595662
1.520720
1.399197
1.244168
1.056105
0.841134
0.625631
0.410997
0.194682
0.000000
0.000000
0.000000
0.000000
0.000000
0.000000
0.000000
0.000000
0.000000
0.000000
0.000000
0.000000
0.000000
0.000000
0.000000
0.000000
0.000000
0.000000
0.000000
0.000000
0.000000
0.000000
0.000000
0.000000
0.000000
0.000000
0.000000
0.000000
0.000000
0.000000
0.000000
0.000000
0.000000
0.000000
0.000000
0.000000
0.000000
0.000000
0.000000
0.000000
0.000000
0.000000
0.000000
0.000000
0.000000
0.000000
0.000000
0.000000
0.000000
0.000000
0.000000
0.000000
0.000000
0.000000
0.000000
0.000000
0.000000
0.000000
0.000000
0.000000
0.000000
0.000000
0.000000
0.000000
0.000000
0.000000
0.000000
0.000000
0.000000
0.000000
0.000000
0.000000
0.000000
0.000000
0.000000
0.000000
0.000000
0.000000
0.000000
0.000000
0.000000
0.000000
0.000000
0.000000
0.000000
0.000000
0.000000
0.000000
0.000000
0.000000
0.000000
0.000000
0.000000
0.000000
0.000000
0.000000
0.000000
0.000000
0.128087
0.256182
0.384281
0.512365
0.640445
0.768526
0.896600
1.024663
1.152723
1.280775
1.408810
1.536838
1.664855
1.792858
1.920840
2.048811
2.176762
2.304701
2.432623
2.560517
2.688393
2.816248
2.944080
3.071893
3.199674
3.327438
3.455171
3.582883
3.710565
3.838220
3.965853
4.093453
4.221033
4.348581
4.476108
4.603604
4.731081
4.858528
4.985958
5.113367
5.240757
5.368135
5.495499
5.622850
5.750195
5.877536
6.004877
6.132220
6.257583
6.255613
6.253677
6.251781
6.249935
6.248118
6.246327
6.244556
6.242794
6.241026
6.239236
6.237389
6.235482
6.233518
6.231479
6.229332
6.226992
6.224596
6.221952
6.219187
6.216271
6.212958
6.209492
6.205784
6.201726
6.197481
6.192623
6.187520
6.182048
6.176113
6.169696
6.162798
6.155461
6.147565
6.139089
6.129900
6.120302
6.109749
6.098462
6.086588
6.073940
6.060399
6.046234
6.030868
6.014633
5.997679
5.979635
5.960624
5.940585
5.919381
5.897013
5.873532
5.848933
5.823253
5.796361
5.768116
5.738713
5.707738
5.675795
5.643000
5.608119
5.572436
5.534985
5.497341
5.459973
5.419861
5.380503
5.336958
5.299914
5.264518
5.227972
5.191607
5.155746
5.145590
5.135733
5.124907
5.181330
5.262879
5.380642
5.557962
5.848651
6.217972
6.717519
7.376310
8.214383
9.276816
10.579200
12.102558
13.829060
15.786612
17.812940
19.873330
21.911742
23.795466
25.387274
26.688527
27.691540
28.246886
0.194475
0.080661
0.157711
0.167793
0.175745
0.183061
0.154933
0.189083
0.197606
0.199732
0.201575
0.202379
0.131287
6.188329
5.929278
5.766909
5.657739
5.379740
5.863217
6.024443
6.012318
5.996290
5.972553
5.176065
4.953667
4.795380
9.425336
18.401119
2.687378
3.581663
-79.996209
35.442553
0.202021
2.047996
6.032829
13.350439
24.485321
-0.462504
14.288229
-213.941168
4.984672
4.347289
-10.169535
27.406485
1.408229
0.203340
19.757114
6.041702
0.281758
1.553168
-0.047696
28.144678
-89.412612
24.833068
-219.007487
0.896240
5.619639
25.631648
28.399643
5.548198
0.207140
0.515126
4.967276
0.200665
0.147686
0.160680
13.100566
3.198529
16.996765
-0.112719
6.029341
6.020376
6.006626
5.987892
5.301458
7.636682
5.834723
5.960119
5.085020
4.865847
5.910064
5.726773
5.484921
0.198561
0.195860
0.152605
0.171014
0.178846
0.185792
0.155615
0.191105
0.107066
21.036940
31.504131
4.092175
26.042679
-170.443956
5.379100
-40.054100
1.404914
0.166303
6.003669
25.643371
89.792488
0.972260
27.712511
28.485581
-0.373036
2.109046
29.764852
-0.680602
31.485548
21.745869
19.630789
6.069249
6.041561
15.329918
6.039705
0.203144
0.203446
10.128633
6.045270
-0.019627
0.202732
0.037637
6.027526
6.017345
6.003627
5.632143
5.945920
5.704881
5.378836
5.899560
5.888481
5.819267
5.803086
5.451576
5.260800
5.605527
5.038232
4.831345
4.800754
5.983390
0.200024
0.201147
0.202090
0.201752
0.192899
0.172522
0.156418
0.161914
0.164729
0.117185
0.152982
0.202498
0.196570
0.180228
0.186837
0.137998
0.158546
0.198948
2.942997
2.559538
2.431677
3.453977
2.305003
9.969565
9.138012
14.866447
3.836970
16.240590
1.925042
1.792127
26.774253
1.664173
19.599819
4.857238
4.602306
22.310455
27.663952
26.603187
1.152247
28.237646
27.874179
-59.453361
5.239492
0.768202
0.395007
-118.518215
188.291651
-54.810050
-145.498167
-260.469174
5.876322
1.442114
1.311255
-0.930718
-112.927590
0.544618
-2.083424
0.274467
0.149551
6.122876
28.479468
28.438226
0.404488
0.399670
0.391936
0.342187
0.324099
0.357851
0.237528
0.373983
0.306169
5.797208
5.778534
5.700072
5.415451
5.262673
5.623486
5.069048
4.473868
4.835378
22.955659
2.691082
3.583910
-0.010505
-1.219644
21.829352
5.822802
54.425544
2.050791
14.794988
26.213996
25.329747
-227.232734
27.584218
4.988357
0.401799
5.837975
1.347468
27.994985
0.902133
18.372075
19.388073
0.267608
1.796350
0.887939
13.989941
-3.445187
24.833218
5.841731
26.820120
19.511791
6.062262
-0.612397
0.189026
1.739049
24.315535
0.195997
17.696673
0.198599
6.038590
-0.259231
11.596498
1.165630
0.199802
6.033063
8.923364
0.200674
39.381974
0.538635
28.225283
0.201245
6.025907
6.829404
0.062859
6.021921
5.607712
5.689422
6.015070
6.009707
6.000081
5.992328
5.978131
5.416777
5.714849
5.937941
5.577612
5.849463
5.341712
5.113256
5.785396
5.681941
5.876126
5.747451
5.517502
5.920048
4.876378
5.953297
5.966692
5.132697
4.997988
4.908134
4.812366
5.220401
0.198192
0.200471
0.195283
0.197163
0.193810
0.199464
0.192084
0.201469
0.202347
0.150001
0.155916
0.154454
0.184426
0.177238
0.155257
0.156960
0.159653
0.163290
0.169302
0.202044
0.201018
0.181746
0.166295
0.188062
0.143850
0.190256
0.174198
0.124854
0.098548
16.954502
2.814527
3.069119
3.324529
11.690893
17.379863
7.641207
2.174147
3.708644
19.834889
2.561781
20.634310
2.434118
3.969330
18.495261
29.476827
23.477985
4.217722
4.472250
4.727225
25.374648
27.045904
1.533851
1.024760
1.284465
5.110624
28.010370
0.636708
5.499984
28.306592
28.213820
-219.139375
28.427109
5.741558
6.045297
-99.744231
-158.592994
71.871906
1.324557
1.538479
-549.027308
0.409553
-133.696686
-26.999515
-66.816722
-68.769000
1.081867
1.489156
0.557954
-0.206104
12.436495
28.211399
6.332064
0.403375
0.313177
5.743893
5.490327
5.412533
26.556357
2.696329
-2.144814
0.398322
-64.072277
4.340430
12.607063
-58.749629
5.534279
5.812523
0.386078
5.330300
2.840755
26.465466
0.401534
0.395448
0.310809
1.410840
3.199051
0.827909
46.986359
-136.989897
-1.179552
0.385956
5.839332
5.830426
-303.390459
10.981752
0.396233
5.257019
4.738282
5.665693
5.728294
5.467090
5.790745
5.768800
5.191176
5.359099
4.734205
4.632982
4.982383
0.382688
0.335834
0.296732
0.351708
0.400472
0.393268
0.307877
33.909444
31.851624
4.093131
3.450686
2.301007
19.898520
1.656778
4.588627
24.940116
17.879263
5.603484
5.878947
5.884709
-315.751310
27.717762
0.786465
5.097978
27.766674
57.057427
16.665328
30.310828
-1.419512
28.176164
2.523883
0.348083
0.555665
0.402638
5.851018
23.429847
0.393557
5.844035
12.804388
-0.479841
-0.177021
0.081177
0.174881
0.401627
5.883018
8.149180
21.503605
5.826605
5.823558
-1.522013
0.404856
5.441915
5.800285
5.805655
5.783017
5.638609
5.296640
5.710266
5.111855
4.886947
4.498039
5.794150
5.773900
5.227797
5.387969
5.677999
5.026495
4.786505
4.506567
4.483953
5.573176
5.590986
5.757259
0.321700
0.371702
0.366366
0.219422
0.402524
0.397471
0.399180
0.311650
0.404402
0.404933
0.329645
0.378395
0.360749
0.279857
0.345344
0.389231
0.315725
0.403746
0.317423
0.390855
0.339129
0.355004
0.302510
0.252396
0.327010
0.376472
19.360242
49.420889
23.266187
26.728872
2.937244
44.635356
4.852061
2.567488
3.829475
1.142931
39.518831
28.064717
31.102116
1.924517
19.386252
2.811543
2.176573
41.790187
1.430665
3.704947
20.985404
27.387950
25.706684
87.111055
1.019738
-48.445499
27.858030
0.232429
-196.141058
0.665032
1.353161
148.414080
1.666185
1.595814
-4.956729
1.442050
0.245144
0.606089
0.363234
0.541801
0.518714
0.476783
0.599916
0.462436
5.591449
0.588334
0.568206
4.203360
4.884576
4.648631
5.573876
5.226610
2.703383
5.622188
-0.109017
60.990885
12.116836
3.849115
23.164152
26.521983
4.167096
1.780491
5.657161
0.586248
4.990631
23.164732
1.226314
27.392916
27.707742
0.605988
5.678788
5.005394
0.486705
27.833108
-1.311324
44.961719
17.111717
-2.471215
5.809272
5.427774
5.500522
5.584914
5.512993
4.590784
0.561528
0.528136
3.584719
2.048240
3.450005
-219.756518
34.814570
2.050895
5.689525
13.406332
-2.250363
1.148996
-103.040028
0.904630
3.460984
0.747107
25.283802
2.453660
-149.683593
-6.883880
0.568781
5.836420
0.348412
-262.643653
-30.818899
0.397240
0.086628
9.501515
5.828094
0.400026
-0.833390
21.251624
5.812861
0.139549
0.396384
5.632408
5.715589
0.600172
0.199719
5.803437
4.930925
7.150984
5.736440
5.076797
4.593974
5.750744
5.554152
4.686091
4.542887
5.490637
4.187017
4.220697
5.786979
5.763218
5.719502
5.652495
4.936128
5.328715
5.152840
5.564666
5.171046
5.467841
5.479423
5.379287
5.396356
4.540286
4.794718
0.606976
0.513746
0.537245
0.402283
0.396612
0.290118
0.380744
0.348718
0.332885
0.310923
0.363819
0.319551
0.404322
0.403199
0.387925
0.384536
0.314390
0.312384
0.408771
0.369288
0.401140
0.394568
0.309791
0.504333
0.398361
0.495170
0.584571
0.451448
2.958554
37.040259
0.390673
30.390306
49.046752
15.405422
2.443471
3.061820
24.747701
3.948726
1.271937
26.737059
19.335435
24.170872
2.839097
5.734257
27.118506
4.717099
3.325112
4.218146
-16.183968
1.533594
51.183682
2.317810
4.460430
21.594182
13.758980
-9.065907
28.121089
25.425778
5.456501
-340.825458
27.504201
-0.344854
93.936029
1.253448
5.207244
-56.829789
1.666154
-116.607486
-1.887477
27.243164
5.846754
0.723295
0.692569
3.940582
5.217291
5.291021
0.101229
-3.317424
1.244986
-9.236733
-28.224997
22.897973
4.606139
-34.377359
-109.059841
27.240057
0.863397
5.534490
4.308734
5.321198
0.604175
0.470513
0.593567
0.467689
-2.466817
-27.536696
0.587300
5.638864
5.631635
8.884500
5.607510
0.238758
4.563287
5.455564
4.927432
5.109955
4.699340
5.361309
5.577882
4.425455
5.548015
5.559663
5.269630
5.185294
0.602667
2.747579
0.605514
0.474150
0.596383
0.599151
0.465397
0.590457
0.483189
0.579808
0.550454
0.444059
0.537686
0.568285
27.724744
4.577179
26.301435
-204.635054
3.183232
23.169268
-114.272138
24.461876
-0.004840
5.658457
1.376936
0.795113
15.356629
4.277767
5.317659
24.846013
5.595684
0.585856
-0.987534
5.649097
5.133508
-0.378546
5.643919
5.621126
19.260827
0.588776
0.585743
-1.536928
10.408007
0.179805
5.623095
0.306300
0.340906
5.596412
5.260930
5.441979
4.967209
5.141421
4.748069
5.603707
5.518657
5.581798
4.486944
4.273561
5.509933
5.588323
5.252408
7.614236
5.299502
4.265594
0.603287
4.200112
4.596102
4.370744
5.569359
5.199537
4.840783
5.042084
0.388056
0.607657
0.558081
0.468522
0.509288
0.533138
0.490967
0.457273
0.586729
0.565149
0.574205
0.601036
0.606822
0.479717
0.546374
0.523780
0.582316
0.571445
0.499899
0.429092
34.873053
34.288691
3.436789
2.569650
0.581281
51.376895
4.848163
2.193122
53.224762
-68.756934
22.158467
26.143245
3.716096
1.906647
26.914911
27.741094
-6.017608
1.640691
1.077948
27.583223
27.245681
2.824179
2.297655
3.952486
-136.543373
4.508833
37.292834
5.726036
56.870708
3.067030
58.205670
-34.228568
21.699820
4.065080
27.314741
-2.521010
24.928410
-38.044595
5.661477
1.873946
3.490018
-16.588335
13.728526
-297.073028
-143.376095
0.804159
0.808396
0.622560
0.800674
0.650096
5.368456
4.362072
0.429737
5.403614
0.758424
0.780123
5.380096
5.350560
5.038438
4.892200
4.704039
2.700296
5.427677
11.495706
4.116250
25.285127
0.774279
5.475082
-1.094712
26.833445
4.991126
0.763767
1.782569
32.390291
3.585378
-25.670078
5.518920
4.187336
4.030958
0.673214
0.636486
24.454227
27.187676
58.002286
11.983044
-6.263256
23.371167
18.848727
8.220808
0.306683
-1.741870
3.987218
4.470621
5.086739
5.373089
0.748766
4.984358
4.822812
0.505488
0.586284
0.785391
0.749489
0.809647
0.704931
-94.826358
5.510537
42.167419
-94.938579
-154.830513
0.782873
0.557387
-0.345575
21.017377
5.464304
5.431758
5.238139
-11.131149
0.590916
0.237295
5.609396
-2.689355
1.018403
-12.883530
5.389032
5.436816
0.712316
6.631435
-165.904069
5.232004
5.257959
4.849076
4.384836
0.279660
4.326530
5.341802
5.300608
5.526935
5.276624
5.554073
5.598769
5.541589
0.612680
5.280637
5.201730
3.945251
3.930188
4.660399
5.369076
5.364846
5.360323
0.807334
4.245944
4.614888
4.924968
4.746177
5.149689
5.168042
4.521397
16.379024
0.686021
0.717324
0.602158
0.468059
0.577337
0.786100
0.554519
0.603776
0.661092
0.597864
0.469598
0.605138
0.472284
0.595342
0.466850
0.592207
0.645069
0.565875
0.729467
0.766390
0.773919
0.699284
3.997672
60.285137
-15.647618
26.176476
29.446271
30.597807
2.529726
3.304520
2.427759
4.702754
3.840059
5.449102
5.778362
5.412977
2.028160
27.155935
-18.797002
27.186386
26.965050
-116.583590
4.436869
-21.118525
1.507843
2.945385
4.183246
-99.968300
1.903095
2.164520
-255.304143
3.223765
-3.731152
26.099470
5.520686
1.625276
5.484306
24.785871
26.570628
27.102516
27.149999
2.798669
5.487775
96.016741
-191.521688
12.874646
1.004545
0.729318
0.867043
0.813776
0.905430
5.164602
4.023530
5.021914
5.091335
3.759397
4.485466
4.677599
5.238058
0.414297
-2.924060
26.892990
27.072089
2.233188
2.009373
18.123640
5.282769
0.946197
26.808290
2.077006
26.423944
5.689387
24.361333
1.020547
5.332384
0.795756
0.806045
0.628474
0.626434
74.632218
4.575907
12.644813
1.339760
6.101556
0.392302
5.392960
4.485744
5.048382
0.738845
5.345161
4.137726
5.130237
3.713574
5.156349
5.406632
4.991510
5.763546
0.804078
0.799425
0.807905
0.633236
0.791992
0.626395
79.198912
32.003569
2.276269
4.845473
3.464249
3.063556
-164.289770
-7.794333
0.172024
132.075736
27.009142
1.196069
14.015210
0.758647
-6.086290
9.744264
-4.590745
-91.729426
7.040879
0.350775
5.398981
5.484938
0.785639
22.771501
4.850381
4.414852
5.427116
0.535146
5.063917
4.076003
5.108885
5.376516
5.383213
0.760805
5.317744
5.309406
5.414555
0.470451
0.809473
0.787782
0.600260
5.081684
5.012139
4.858368
4.080866
4.440190
5.245534
5.355661
3.990395
4.569667
4.955581
4.786069
4.310198
4.957249
5.071221
-0.904127
0.626444
0.744950
5.449318
0.762952
0.711741
0.782873
0.640496
0.619350
0.655646
0.679879
0.777085
0.754430
0.808787
0.801860
0.787989
5.467734
-29.015371
0.734378
0.667542
0.882885
0.770471
-3.224652
1.637700
0.853064
57.021883
43.304459
2.557925
26.662486
26.779441
1.567297
-5.441758
24.215507
14.316139
3.085864
3.971968
24.099967
5.112474
1.906732
24.977387
3.718290
26.018404
3.621347
-152.027947
4.291090
7.091205
2.983904
2.842805
-18.860187
1.932285
27.395556
1.291247
3.358118
49.745842
-4.392459
7.301723
5.386410
30.962768
26.477019
-190.618590
-166.593398
5.579260
5.194674
1.010716
1.001541
0.789138
0.958813
0.982634
4.851458
4.882454
4.269708
2.999065
-4.698602
35.568141
-8.059309
0.938100
3.558049
0.958954
4.991498
5.402994
0.517787
0.796737
0.843074
35.788366
-0.229861
24.407490
4.294563
27.046430
8.983886
0.922115
0.940471
0.616666
4.474082
3.833599
5.258516
4.567747
4.798795
4.642839
4.918767
5.325446
5.182638
0.967780
0.859088
0.898229
2.701037
3.843456
4.153266
7.328028
15.898415
6.322490
1.754936
3.219115
25.233678
43.074414
-1.399040
5.216695
20.785622
1.176491
-93.173136
0.359185
4.885590
1.013325
10.706344
25.706606
-137.435803
19.405695
5.204139
26.815818
0.964029
0.961737
5.283338
5.108630
5.244502
5.228730
5.035978
4.239004
4.527357
4.938799
5.172680
5.338918
4.083739
0.662566
5.100332
0.988508
3.723972
5.160561
5.168323
0.714116
0.767918
5.007220
1.008943
1.010541
0.703561
5.146954
5.136319
4.348803
3.744721
3.803185
3.863384
3.976236
4.741259
4.710269
4.872825
5.151765
4.396115
5.060233
4.974878
5.325287
4.192573
12.580323
4.897170
0.440090
0.975544
0.803386
0.807443
0.626660
0.790174
0.755190
0.740083
0.875192
0.777869
0.805508
0.797776
1.010891
0.949201
0.627755
0.807295
0.630851
0.794384
7.544325
0.626267
0.821034
0.919351
0.913011
0.890679
40.278519
0.827431
18.956025
-6.317319
5.328417
27.233099
4.433511
26.590554
2.407468
-2.523039
27.853564
1.487966
5.081055
28.485717
2.132793
25.585960
4.701671
26.558648
11.697654
-109.707521
7.169709
0.674912
21.148247
7.890687
-90.861148
3.114298
2.199426
5.348191
14.197485
-16.465726
1.879914
3.305715
0.570588
5.013105
0.786318
1.213466
0.933474
1.088714
1.042140
1.194873
4.952436
3.823974
0.786084
4.826487
4.764953
3.643691
0.994930
4.429716
4.674181
8.155660
5.071864
16.259837
16.163111
5.157786
1.123254
26.832395
1.727468
4.568380
1.008159
1.179917
3.672739
4.708112
3.561385
0.990749
2.276919
6.578136
0.939872
1.134484
-0.241193
-6.792871
4.248232
4.497448
4.943351
0.787325
0.978141
1.005752
1.061306
0.995439
1.010346
0.985831
0.787462
0.932549
12.022488
-11.566725
2.554679
11.232433
4.840341
30.445092
47.100425
0.927494
0.988536
5.042873
5.144527
-2.050168
26.147041
3.169035
28.631164
1.759198
4.011457
24.682390
-6.503761
0.529107
5.101637
6.444058
0.471213
0.959465
5.200303
5.314964
4.826593
0.566096
1.340708
4.922229
5.233652
4.851164
4.314095
22.464354
4.298285
5.176175
4.891701
4.825754
4.606020
5.129989
5.116339
5.187510
20.114909
3.556159
4.960958
5.284551
3.960177
4.169872
0.948748
4.812419
5.141905
3.778046
4.862334
3.918666
1.205452
1.209502
4.144111
4.874938
4.770896
4.180859
4.226912
4.728454
4.797708
0.841633
0.884902
1.011202
0.792881
0.788025
0.972287
0.835599
1.002981
1.104817
0.801910
0.964060
0.851423
0.944290
0.999937
0.790128
0.979487
0.926313
1.079834
0.954348
32.036104
14.130737
26.636077
27.283189
12.643853
2.841468
14.278430
24.769044
4.287515
25.833687
2.007144
23.879903
3.684449
1.626411
-60.716568
3.420275
-46.697298
0.852533
-11.310705
8.108633
2.269742
5.635684
7.801880
3.268810
1.202665
1.151956
1.392699
0.988282
4.840441
1.134854
1.272374
1.180271
4.617685
4.102754
4.499360
2.986266
-0.116255
25.463583
22.161243
4.917649
3.838498
4.991504
4.613951
4.683296
0.960491
6.090804
14.892517
4.993704
5.019794
4.032609
-2.677030
0.957661
1.127252
1.337270
16.816152
27.283993
5.119549
0.595564
4.977389
4.139615
3.717947
4.393282
4.965943
3.628679
4.933395
4.653743
4.016532
25.187583
1.213416
1.162564
0.970655
0.958958
1.113476
1.013249
2.699616
3.557348
22.016674
1.592458
7.152222
1.092948
1.186091
12.257960
1.178622
26.566824
6.267903
0.673795
-7.764362
4.308979
1.120688
9.920383
0.562493
5.003188
1.144711
1.142974
4.496505
0.659795
3.900650
0.723875
5.057213
5.034253
3.768097
4.839377
4.353779
4.640094
4.686689
1.404993
4.927697
3.875181
5.094516
5.123480
3.584261
3.586365
6.834377
4.956456
3.744022
4.938685
4.664362
4.464705
3.559426
4.948062
4.781894
4.084842
4.134592
3.929634
1.150396
4.586666
4.529440
4.603684
1.048245
4.747371
4.899955
1.213136
1.004800
1.171836
1.032714
1.140529
0.918189
0.788334
1.070984
1.211515
1.097498
0.789786
0.786894
0.986609
1.007337
1.052261
0.993746
5.153285
1.009582
12.466965
0.997973
0.988580
0.786437
11.279226
4.429905
1.479485
1.004140
18.097134
13.871857
26.884086
0.609761
38.347746
-3.046024
29.414780
-8.615951
1.852490
8.076346
26.334680
2.409851
2.140161
1.206599
17.710496
4.697868
1.081093
48.346505
3.289229
8.065912
20.787683
6.775505
-8.975529
25.072974
5.766978
23.464465
0.653729
0.946474
4.516735
1.415963
1.218234
3.496802
4.744405
4.719759
3.682802
1.232546
1.591038
1.162962
4.475278
4.409501
4.403986
4.253585
3.592645
8.784715
1.322309
21.533565
1.210249
24.451027
3.831126
1.195504
1.279367