# vtk DataFile Version 2.0
Test
ASCII
DATASET POLYDATA
POINTS 3011 float
0.000000 0.000000 0.000000
2.000000 0.000000 0.000000
2.000000 4.000000 0.000000
0.000000 4.000000 0.000000
0.000000 0.500000 0.000000
1.500000 2.000000 0.000000
2.000000 2.500000 0.000000
0.285714 0.000000 0.000000
0.571429 0.000000 0.000000
0.857143 0.000000 0.000000
1.142857 0.000000 0.000000
1.428571 0.000000 0.000000
1.714286 0.000000 0.000000
2.000000 0.276366 0.000000
2.000000 0.523709 0.000000
2.000000 0.745076 0.000000
2.000000 0.943195 0.000000
2.000000 1.120508 0.000000
2.000000 1.279199 0.000000
2.000000 1.421225 0.000000
2.000000 1.548336 0.000000
2.000000 1.662097 0.000000
2.000000 1.763911 0.000000
2.000000 1.855033 0.000000
2.000000 1.936585 0.000000
2.000000 2.009573 0.000000
2.000000 2.074896 0.000000
2.000000 2.133358 0.000000
2.000000 2.185681 0.000000
2.000000 2.232509 0.000000
2.000000 2.274419 0.000000
2.000000 2.311927 0.000000
2.000000 2.345497 0.000000
2.000000 2.375541 0.000000
2.000000 2.402430 0.000000
2.000000 2.426495 0.000000
2.000000 2.448033 0.000000
2.000000 2.467309 0.000000
2.000000 2.484560 0.000000
2.000000 2.516256 0.000000
2.000000 2.535859 0.000000
2.000000 2.559499 0.000000
2.000000 2.588006 0.000000
2.000000 2.622383 0.000000
2.000000 2.663839 0.000000
2.000000 2.713831 0.000000
2.000000 2.774116 0.000000
2.000000 2.846815 0.000000
2.000000 2.934483 0.000000
2.000000 3.040202 0.000000
2.000000 3.167691 0.000000
2.000000 3.321430 0.000000
2.000000 3.506825 0.000000
2.000000 3.730395 0.000000
1.714286 4.000000 0.000000
1.428571 4.000000 0.000000
1.142857 4.000000 0.000000
0.857143 4.000000 0.000000
0.571429 4.000000 0.000000
0.285714 4.000000 0.000000
0.000000 3.713462 0.000000
0.000000 3.449209 0.000000
0.000000 3.205508 0.000000
0.000000 2.980761 0.000000
0.000000 2.773493 0.000000
0.000000 2.582346 0.000000
0.000000 2.406065 0.000000
0.000000 2.243495 0.000000
0.000000 2.093568 0.000000
0.000000 1.955302 0.000000
0.000000 1.827789 0.000000
0.000000 1.710194 0.000000
0.000000 1.601745 0.000000
0.000000 1.501730 0.000000
0.000000 1.409494 0.000000
0.000000 1.324431 0.000000
0.000000 1.245984 0.000000
0.000000 1.173639 0.000000
0.000000 1.106920 0.000000
0.000000 1.045390 0.000000
0.000000 0.988645 0.000000
0.000000 0.936314 0.000000
0.000000 0.888053 0.000000
0.000000 0.843545 0.000000
0.000000 0.802499 0.000000
0.000000 0.764646 0.000000
0.000000 0.729736 0.000000
0.000000 0.697541 0.000000
0.000000 0.667851 0.000000
0.000000 0.640469 0.000000
0.000000 0.615217 0.000000
0.000000 0.591929 0.000000
0.000000 0.570453 0.000000
0.000000 0.550646 0.000000
0.000000 0.532380 0.000000
0.000000 0.515535 0.000000
0.000000 0.483768 0.000000
0.000000 0.461535 0.000000
0.000000 0.431083 0.000000
0.000000 0.389372 0.000000
0.000000 0.332241 0.000000
0.000000 0.253989 0.000000
0.000000 0.146807 0.000000
0.010563 0.510563 0.000000
0.021127 0.521127 0.000000
0.031690 0.531690 0.000000
0.042254 0.542254 0.000000
0.052817 0.552817 0.000000
0.063380 0.563380 0.000000
0.073944 0.573944 0.000000
0.084507 0.584507 0.000000
0.095070 0.595070 0.000000
0.105634 0.605634 0.000000
0.116197 0.616197 0.000000
0.126761 0.626761 0.000000
0.137324 0.637324 0.000000
0.147887 0.647887 0.000000
0.158451 0.658451 0.000000
0.169014 0.669014 0.000000
0.179577 0.679577 0.000000
0.190141 0.690141 0.000000
0.200704 0.700704 0.000000
0.211268 0.711268 0.000000
0.221831 0.721831 0.000000
0.232394 0.732394 0.000000
0.242958 0.742958 0.000000
0.253521 0.753521 0.000000
0.264085 0.764085 0.000000
0.274648 0.774648 0.000000
0.285211 0.785211 0.000000
0.295775 0.795775 0.000000
0.306338 0.806338 0.000000
0.316901 0.816901 0.000000
0.327465 0.827465 0.000000
0.338028 0.838028 0.000000
0.348592 0.848592 0.000000
0.359155 0.859155 0.000000
0.369718 0.869718 0.000000
0.380282 0.880282 0.000000
0.390845 0.890845 0.000000
0.401408 0.901408 0.000000
0.411972 0.911972 0.000000
0.422535 0.922535 0.000000
0.433099 0.933099 0.000000
0.443662 0.943662 0.000000
0.454225 0.954225 0.000000
0.464789 0.964789 0.000000
0.475352 0.975352 0.000000
0.485915 0.985915 0.000000
0.496479 0.996479 0.000000
0.507042 1.007042 0.000000
0.517606 1.017606 0.000000
0.528169 1.028169 0.000000
0.538732 1.038732 0.000000
0.549296 1.049296 0.000000
0.559859 1.059859 0.000000
0.570423 1.070423 0.000000
0.580986 1.080986 0.000000
0.591549 1.091549 0.000000
0.602113 1.102113 0.000000
0.612676 1.112676 0.000000
0.623239 1.123239 0.000000
0.633803 1.133803 0.000000
0.644366 1.144366 0.000000
0.654930 1.154930 0.000000
0.665493 1.165493 0.000000
0.676056 1.176056 0.000000
0.686620 1.186620 0.000000
0.697183 1.197183 0.000000
0.707746 1.207746 0.000000
0.718310 1.218310 0.000000
0.728873 1.228873 0.000000
0.739437 1.239437 0.000000
0.750000 1.250000 0.000000
0.760563 1.260563 0.000000
0.771127 1.271127 0.000000
0.781690 1.281690 0.000000
0.792254 1.292254 0.000000
0.802817 1.302817 0.000000
0.813380 1.313380 0.000000
0.823944 1.323944 0.000000
0.834507 1.334507 0.000000
0.845070 1.345070 0.000000
0.855634 1.355634 0.000000
0.866197 1.366197 0.000000
0.876761 1.376761 0.000000
0.887324 1.387324 0.000000
0.897887 1.397887 0.000000
0.908451 1.408451 0.000000
0.919014 1.419014 0.000000
0.929577 1.429577 0.000000
0.940141 1.440141 0.000000
0.950704 1.450704 0.000000
0.961268 1.461268 0.000000
0.971831 1.471831 0.000000
0.982394 1.482394 0.000000
0.992958 1.492958 0.000000
1.003521 1.503521 0.000000
1.014085 1.514085 0.000000
1.024648 1.524648 0.000000
1.035211 1.535211 0.000000
1.045775 1.545775 0.000000
1.056338 1.556338 0.000000
1.066901 1.566901 0.000000
1.077465 1.577465 0.000000
1.088028 1.588028 0.000000
1.098592 1.598592 0.000000
1.109155 1.609155 0.000000
1.119718 1.619718 0.000000
1.130282 1.630282 0.000000
1.140845 1.640845 0.000000
1.151408 1.651408 0.000000
1.161972 1.661972 0.000000
1.172535 1.672535 0.000000
1.183099 1.683099 0.000000
1.193662 1.693662 0.000000
1.204225 1.704225 0.000000
1.214789 1.714789 0.000000
1.225352 1.725352 0.000000
1.235915 1.735915 0.000000
1.246479 1.746479 0.000000
1.257042 1.757042 0.000000
1.267606 1.767606 0.000000
1.278169 1.778169 0.000000
1.288732 1.788732 0.000000
1.299296 1.799296 0.000000
1.309859 1.809859 0.000000
1.320423 1.820423 0.000000
1.330986 1.830986 0.000000
1.341549 1.841549 0.000000
1.352113 1.852113 0.000000
1.362676 1.862676 0.000000
1.373239 1.873239 0.000000
1.383803 1.883803 0.000000
1.394366 1.894366 0.000000
1.404930 1.904930 0.000000
1.415493 1.915493 0.000000
1.426056 1.926056 0.000000
1.436620 1.936620 0.000000
1.447183 1.947183 0.000000
1.457746 1.957746 0.000000
1.468310 1.968310 0.000000
1.478873 1.978873 0.000000
1.489437 1.989437 0.000000
1.510417 2.010417 0.000000
1.520833 2.020833 0.000000
1.531250 2.031250 0.000000
1.541667 2.041667 0.000000
1.552083 2.052083 0.000000
1.562500 2.062500 0.000000
1.572917 2.072917 0.000000
1.583333 2.083333 0.000000
1.593750 2.093750 0.000000
1.604167 2.104167 0.000000
1.614583 2.114583 0.000000
1.625000 2.125000 0.000000
1.635417 2.135417 0.000000
1.645833 2.145833 0.000000
1.656250 2.156250 0.000000
1.666667 2.166667 0.000000
1.677083 2.177083 0.000000
1.687500 2.187500 0.000000
1.697917 2.197917 0.000000
1.708333 2.208333 0.000000
1.718750 2.218750 0.000000
1.729167 2.229167 0.000000
1.739583 2.239583 0.000000
1.750000 2.250000 0.000000
1.760417 2.260417 0.000000
1.770833 2.270833 0.000000
1.781250 2.281250 0.000000
1.791667 2.291667 0.000000
1.802083 2.302083 0.000000
1.812500 2.312500 0.000000
1.822917 2.322917 0.000000
1.833333 2.333333 0.000000
1.843750 2.343750 0.000000
1.854167 2.354167 0.000000
1.864583 2.364583 0.000000
1.875000 2.375000 0.000000
1.885417 2.385417 0.000000
1.895833 2.395833 0.000000
1.906250 2.406250 0.000000
1.916667 2.416667 0.000000
1.927083 2.427083 0.000000
1.937500 2.437500 0.000000
1.947917 2.447917 0.000000
1.958333 2.458333 0.000000
1.968750 2.468750 0.000000
1.979167 2.479167 0.000000
1.989583 2.489583 0.000000
0.206561 0.791563 0.000000
0.205359 0.816165 0.000000
0.186354 0.798211 0.000000
0.221961 0.800924 0.000000
0.280649 1.360489 0.000000
0.304015 1.400469 0.000000
0.229142 1.396096 0.000000
0.275922 1.451476 0.000000
1.869084 2.391788 0.000000
1.857928 2.378421 0.000000
1.238669 2.061899 0.000000
1.278787 2.082276 0.000000
1.238298 2.096047 0.000000
1.277579 2.032995 0.000000
0.402536 1.205823 0.000000
0.415290 1.176040 0.000000
0.428330 1.201952 0.000000
0.387294 1.172617 0.000000
0.146930 1.050586 0.000000
0.109488 1.087198 0.000000
0.102742 1.042403 0.000000
0.157178 1.091184 0.000000
0.588967 1.178581 0.000000
0.593116 1.153718 0.000000
0.608054 1.166752 0.000000
0.612180 1.145944 0.000000
0.860304 1.543784 0.000000
0.868821 1.521840 0.000000
0.878420 1.536650 0.000000
0.845380 1.517623 0.000000
1.129525 1.764330 0.000000
1.142005 1.751560 0.000000
1.145757 1.773681 0.000000
1.159368 1.759106 0.000000
1.968150 2.518865 0.000000
1.986105 2.509269 0.000000
1.986696 2.531115 0.000000
0.668964 1.191005 0.000000
0.683291 1.201259 0.000000
0.557625 1.074830 0.000000
0.569760 1.084377 0.000000
0.557769 1.089278 0.000000
0.707567 1.266174 0.000000
0.719026 1.281845 0.000000
0.700768 1.282275 0.000000
0.722329 1.266956 0.000000
0.468225 2.149688 0.000000
0.419106 2.064198 0.000000
0.523878 2.082648 0.000000
0.838546 1.421191 0.000000
0.823708 1.410355 0.000000
0.840477 1.404206 0.000000
0.818500 1.425973 0.000000
0.953187 1.488222 0.000000
0.959780 1.473222 0.000000
0.967054 1.485637 0.000000
1.047418 1.769126 0.000000
1.080240 1.782403 0.000000
1.047768 1.802712 0.000000
0.971392 1.693320 0.000000
0.949208 1.720793 0.000000
0.940644 1.684781 0.000000
0.381391 2.160909 0.000000
0.944091 1.477800 0.000000
0.530075 1.477351 0.000000
0.521303 1.516669 0.000000
0.474240 1.491166 0.000000
0.489489 1.546185 0.000000
1.537370 2.239326 0.000000
1.555275 2.267640 0.000000
1.532966 2.278201 0.000000
0.962010 1.661716 0.000000
0.986804 1.643200 0.000000
0.986259 1.672729 0.000000
1.049149 1.737940 0.000000
1.075111 1.737123 0.000000
[...]
POINT_DATA 3011
SCALARS UX float 1
LOOKUP_TABLE default
-0.000000
0.000000
-0.140745
-0.318497
-0.162607
-0.042569
-0.083385
-0.000000
-0.000000
-0.000000
-0.000000
0.000000
-0.000000
0.059829
0.084053
0.097706
0.106230
0.111437
0.114220
0.114632
0.111985
0.105712
0.095380
0.080051
0.061701
0.041070
0.021178
0.002748
-0.013441
-0.027055
-0.038352
-0.047732
-0.055468
-0.061817
-0.067119
-0.071561
-0.075296
-0.078446
-0.081121
-0.085681
-0.088312
-0.091360
-0.094653
-0.098391
-0.102561
-0.106794
-0.111429
-0.116207
-0.120647
-0.125207
-0.129496
-0.133645
-0.137259
-0.139619
-0.171251
-0.199672
-0.225708
-0.249835
-0.273163
-0.295856
-0.315983
-0.311188
-0.303806
-0.295883
-0.288212
-0.282058
-0.278080
-0.276319
-0.277036
-0.279678
-0.283976
-0.288918
-0.294339
-0.299905
-0.305282
-0.310239
-0.314684
-0.318534
-0.321796
-0.324504
-0.326587
-0.328190
-0.329290
-0.329812
-0.329905
-0.329613
-0.329170
-0.328437
-0.327276
-0.325125
-0.321910
-0.319425
-0.317567
-0.307785
-0.300720
-0.235986
-0.090937
-0.079305
-0.068729
-0.062380
-0.054634
-0.045049
-0.031195
-0.163714
-0.165653
-0.163871
-0.161531
-0.164085
-0.164836
-0.164314
-0.166499
-0.166339
-0.164243
-0.164289
-0.162386
-0.161822
-0.163604
-0.155321
-0.155561
-0.158510
-0.158609
-0.155078
-0.154340
-0.155086
-0.157010
-0.156951
-0.155869
-0.157897
-0.157644
-0.159853
-0.159155
-0.164610
-0.165446
-0.166816
-0.163308
-0.160714
-0.157991
-0.160519
-0.154719
-0.152207
-0.150638
-0.153530
-0.148229
-0.147349
-0.143701
-0.142260
-0.143099
-0.143309
-0.140796
-0.139635
-0.138227
-0.135875
-0.132309
-0.130072
-0.128630
-0.127668
-0.126231
-0.129529
-0.129604
-0.127294
-0.127434
-0.123935
-0.127062
-0.125194
-0.123209
-0.121303
-0.119534
-0.114862
-0.117782
-0.116393
-0.115697
-0.112966
-0.112411
-0.112870
-0.112076
-0.114120
-0.115035
-0.120732
-0.119124
-0.116250
-0.117048
-0.115568
-0.113254
-0.112737
-0.108925
-0.106631
-0.098815
-0.095543
-0.115273
-0.112759
-0.107470
-0.105355
-0.103758
-0.102594
-0.103884
-0.102501
-0.098756
-0.097967
-0.095391
-0.095342
-0.094444
-0.095498
-0.092916
-0.091938
-0.089410
-0.085950
-0.085254
-0.084774
-0.080241
-0.076894
-0.077076
-0.075830
-0.073385
-0.073653
-0.071895
-0.073434
-0.070301
-0.073027
-0.072757
-0.068827
-0.068533
-0.070782
-0.069291
-0.071810
-0.069436
-0.069912
-0.064334
-0.066589
-0.066315
-0.061570
-0.064653
-0.062717
-0.059464
-0.057450
-0.062867
-0.063684
-0.061162
-0.059719
-0.055274
-0.055414
-0.052742
-0.048358
-0.047397
-0.045429
-0.042426
-0.043931
-0.045263
-0.047598
-0.049488
-0.051116
-0.052863
-0.054394
-0.055612
-0.056904
-0.058087
-0.059262
-0.060473
-0.061681
-0.062831
-0.063897
-0.064895
-0.065923
-0.066893
-0.067861
-0.068797
-0.069712
-0.070604
-0.071530
-0.072394
-0.073268
-0.074101
-0.074941
-0.075740
-0.076529
-0.077291
-0.078016
-0.078726
-0.079376
-0.080004
-0.080583
-0.081109
-0.081599
-0.082019
-0.082405
-0.082730
-0.083003
-0.083223
-0.083379
-0.083466
-0.083509
-0.083479
-0.303203
-0.307645
-0.309163
-0.300937
-0.285202
-0.280621
-0.287118
-0.279640
-0.084739
-0.083779
-0.140784
-0.133341
-0.140057
-0.135253
-0.285203
-0.285644
-0.283135
-0.288316
-0.313503
-0.314676
-0.317153
-0.310849
-0.263178
-0.257356
-0.254378
-0.239151
-0.222754
-0.222618
-0.220905
-0.225710
-0.178060
-0.176544
-0.174928
-0.172891
-0.090839
-0.086829
-0.089703
-0.214644
-0.198983
-0.218147
-0.199868
-0.241608
-0.240035
-0.239020
-0.245951
-0.233039
-0.231908
-0.237644
-0.227036
-0.225691
-0.228723
-0.223165
-0.230633
-0.188551
-0.149430
-0.160682
-0.188031
-0.183251
-0.185207
-0.201705
-0.201928
-0.205453
-0.240265
-0.189403
-0.256616
-0.254580
-0.260293
-0.255235
-0.108443
-0.110361
-0.115230
-0.204836
-0.202961
-0.201450
-0.190223
-0.187192
-0.186629
-0.104712
-0.189158
-0.168215
-0.138776
-0.144303
-0.162798
-0.126342
-0.120342
-0.125456
-0.117064
-0.124333
-0.120425
-0.254987
-0.257411
-0.253576
-0.255131
-0.249240
-0.249867
-0.256060
-0.243548
-0.294700
-0.291437
-0.293002
-0.294190
-0.174103
-0.177662
-0.171610
-0.183938
-0.251081
-0.254884
-0.246697
-0.098253
-0.098755
-0.103981
-0.258989
-0.299800
-0.304186
-0.305475
-0.250214
-0.248971
-0.246561
-0.245527
-0.309657
-0.270694
-0.263547
-0.273517
-0.097712
-0.091717
-0.093631
-0.179757
-0.175966
-0.172827
-0.281570
-0.280281
-0.167273
-0.228859
-0.226018
-0.230824
-0.225629
-0.089513
-0.096806
-0.096510
-0.224905
-0.222056
-0.225399
-0.087426
-0.276143
-0.239640
-0.255023
-0.270912
-0.270394
-0.267692
-0.315758
-0.312045
-0.267937
-0.208712
-0.211560
-0.205213
-0.318446
-0.207686
-0.182637
-0.178975
-0.312638
-0.309591
-0.309573
-0.248022
-0.228526
-0.218130
-0.256588
-0.263472
-0.063018
-0.061508
-0.068136
-0.155278
-0.157784
-0.161057
-0.175071
-0.170368
-0.174327
-0.187457
-0.192293
-0.195097
-0.178280
-0.275132
-0.283557
-0.282274
-0.227548
-0.230150
-0.229611
-0.206117
-0.227445
-0.321410
-0.319180
-0.322424
-0.259549
-0.267148
-0.092749
-0.197979
-0.079194
-0.084673
-0.083836
-0.231581
-0.227780
-0.229214
-0.238355
-0.111373
-0.114558
-0.119825
-0.246961
-0.253447
-0.244398
-0.148340
-0.144143
-0.142816
-0.153713
-0.080030
-0.079834
-0.092345
-0.146937
-0.152007
-0.152552
-0.163418
-0.149170
-0.153654
-0.173871
-0.170351
-0.185233
-0.182580
-0.068223
-0.063231
-0.078286
-0.243751
-0.265825
-0.268315
-0.271778
-0.271488
-0.181273
-0.108205
-0.108196
-0.101516
-0.129171
-0.131384
-0.124234
-0.135065
-0.120076
-0.117117
-0.113552
-0.073721
-0.071212
-0.215423
-0.212081
-0.212062
-0.215751
-0.223414
-0.217397
-0.222054
-0.216863
-0.124613
-0.129002
-0.123681
-0.124139
-0.123325
-0.133987
-0.080479
-0.075176
-0.082923
-0.074640
-0.073508
-0.237755
-0.238782
-0.242774
-0.233658
-0.235806
-0.232260
-0.233247
-0.240542
-0.239062
-0.234594
-0.217153
-0.219897
-0.216602
-0.219796
-0.157929
-0.155710
-0.152229
-0.161983
-0.185458
-0.228351
-0.232982
-0.229487
-0.230793
-0.227772
-0.225787
-0.086059
-0.091324
-0.088098
-0.094150
-0.172987
-0.171102
-0.218315
-0.217195
-0.213987
-0.121491
-0.134345
-0.163027
-0.179736
-0.184420
-0.178536
-0.183227
-0.201467
-0.202660
-0.195841
-0.206389
-0.079821
-0.076868
-0.197089
-0.175487
-0.212168
-0.186746
-0.188163
-0.191098
-0.120276
-0.127456
-0.134243
-0.182872
-0.194781
-0.191736
-0.195993
-0.116551
-0.121423
-0.100156
-0.092760
-0.101651
-0.094541
-0.140131
-0.139743
-0.145589
-0.142719
-0.320168
-0.319756
-0.323183
-0.316597
-0.283030
-0.272527
-0.256761
-0.250397
-0.254265
-0.270676
-0.070246
-0.289976
-0.290193
-0.293418
-0.292735
-0.160049
-0.155226
-0.152599
-0.147819
-0.217059
-0.212363
-0.208892
-0.206705
-0.082990
-0.077991
-0.081358
-0.076132
-0.081767
-0.089331
-0.283052
-0.285539
-0.291152
-0.312058
-0.316448
-0.309734
-0.317644
-0.316951
-0.314257
-0.192668
-0.195777
-0.195825
-0.121327
-0.128603
-0.279063
-0.277790
-0.281532
-0.279207
-0.282586
-0.218798
-0.215179
-0.219273
-0.215422
-0.289458
-0.293284
-0.293321
-0.287501
-0.234398
-0.230714
-0.314046
-0.312393
-0.310472
-0.311979
-0.314783
-0.308534
-0.313709
-0.303014
-0.284365
-0.292059
-0.307221
-0.300669
-0.303274
-0.308532
-0.304263
-0.201440
-0.200673
-0.204360
-0.158083
-0.284531
-0.279179
-0.270820
-0.300497
-0.288089
-0.110328
-0.108980
-0.105209
-0.116644
-0.116606
-0.109028
-0.301519
-0.301689
-0.304132
-0.276687
-0.272457
-0.268135
-0.274890
-0.132539
-0.122520
-0.128034
-0.136326
-0.193744
-0.192196
-0.286285
-0.283186
-0.286311
-0.282573
-0.260228
-0.281709
-0.283459
-0.227761
-0.235982
-0.295220
-0.091386
-0.096831
-0.097912
-0.089145
-0.294874
-0.292308
-0.154596
-0.154342
-0.161371
-0.162705
-0.158778
-0.195448
-0.207645
-0.200092
-0.216193
-0.238745
-0.236836
-0.237524
-0.321995
-0.323581
-0.325363
-0.319631
-0.105527
-0.156334
-0.306134
-0.306768
-0.309763
-0.315587
-0.310346
-0.308904
-0.099031
-0.095835
-0.092273
-0.303112
-0.303377
-0.309334
-0.279304
-0.294789
-0.290734
-0.090865
-0.087580
-0.092105
-0.086919
-0.089959
-0.146030
-0.142119
-0.305300
-0.306726
-0.303965
-0.094814
-0.138568
-0.131522
-0.133882
-0.284385
-0.274967
-0.271089
-0.275250
-0.272029
-0.268818
-0.252281
-0.251005
-0.303724
-0.299373
-0.327010
-0.324930
-0.324178
-0.322581
-0.283146
-0.069812
-0.284799
-0.304777
-0.310079
-0.294147
-0.286182
-0.109085
-0.116877
-0.304198
-0.313349
-0.306218
-0.086322
-0.315265
-0.109815
-0.108305
-0.115557
-0.305213
-0.307102
-0.301820
-0.204371
-0.194322
-0.198000
-0.188235
-0.191097
-0.313438
-0.312512
-0.316477
-0.317295
-0.121954
-0.129966
-0.300540
-0.295642
-0.298302
-0.294302
-0.267917
-0.264947
-0.269539
-0.262338
-0.267352
-0.268310
-0.265027
-0.261403
-0.266108
-0.297745
-0.308237
-0.103788
-0.104013
-0.287914
-0.284764
-0.288046
-0.285581
-0.290468
-0.054645
-0.057398
-0.066120
-0.260042
-0.260157
-0.289730
-0.291756
-0.261333
-0.258043
-0.161314
-0.170023
-0.166543
-0.160447
-0.245207
-0.294426
-0.285128
-0.286209
-0.281774
-0.141691
-0.081289
-0.086456
-0.085435
-0.090999
-0.194374
-0.196403
-0.189229
-0.186939
-0.181309
-0.182276
-0.123157
-0.116367
-0.099023
-0.101624
-0.186244
-0.180165
-0.103227
-0.102108
-0.232665
-0.286880
-0.290914
-0.283344
-0.257015
-0.241549
-0.286054
-0.295139
-0.134728
-0.244996
-0.326630
-0.128712
-0.162855
-0.166520
-0.085250
-0.088176
-0.095601
-0.325594
-0.292147
-0.290586
-0.295744
-0.168186
-0.168978
-0.174064
-0.172684
-0.090361
-0.313369
-0.311588
-0.308988
-0.290275
-0.136330
-0.137805
-0.143634
-0.141952
-0.081896
-0.326689
-0.327228
-0.324442
-0.293803
-0.319131
-0.246440
-0.252630
-0.240093
-0.250686
-0.262437
-0.292919
-0.308009
-0.179657
-0.186899
-0.190380
-0.176010
-0.199798
-0.208827
-0.188542
-0.292635
-0.213886
-0.222128
-0.185394
-0.194465
-0.192125
-0.313368
-0.316447
-0.311187
-0.323794
-0.320445
-0.238598
-0.222096
-0.234173
-0.225453
-0.313663
-0.186111
-0.202014
-0.199124
-0.232150
-0.237255
-0.233032
-0.297757
-0.295474
-0.302207
-0.283569
-0.283816
-0.292105
-0.292557
-0.225125
-0.223244
-0.219608
-0.217332
-0.213995
-0.159958
-0.166849
-0.198800
-0.208865
-0.212526
-0.211306
-0.208085
-0.152757
-0.172638
-0.175429
-0.181952
-0.183878
-0.277863
-0.263664
-0.267650
-0.254437
-0.285670
-0.293393
-0.302721
-0.287687
-0.086878
-0.297815
-0.297337
-0.301397
-0.301597
-0.239081
-0.242585
-0.236276
-0.250979
-0.246817
-0.323754
-0.299338
-0.298960
-0.319966
-0.067942
-0.071294
-0.255361
-0.306956
-0.069776
-0.114715
-0.247712
-0.256514
-0.249347
-0.154506
-0.259694
-0.318126
-0.313465
-0.327210
-0.323127
-0.087981
-0.315939
-0.209087
-0.233584
-0.212704
-0.298688
-0.315836
-0.085684
-0.240875
-0.259434
-0.276326
-0.266556
-0.115525
-0.123033
-0.121455
-0.083005
-0.087106
-0.082694
-0.259387
-0.286183
-0.291218
-0.301499
-0.255454
-0.163058
-0.171374
-0.178862
-0.188951
-0.296444
-0.295759
-0.242536
-0.243514
-0.235227
-0.227683
-0.136316
-0.221913
-0.325657
-0.273577
-0.275989
-0.274523
-0.178806
-0.262943
-0.260802
-0.259965
-0.265974
-0.255631
-0.252772
-0.248445
-0.243136
-0.267266
-0.244438
-0.248774
-0.245747
-0.153443
-0.139310
-0.145660
-0.221915
-0.278997
-0.281753
-0.278609
-0.306174
-0.299235
-0.309125
-0.317808
-0.250919
-0.169962
-0.247639
-0.257249
-0.259250
-0.253443
-0.320459
-0.306321
-0.257792
-0.258139
-0.281397
-0.158045
-0.096262
-0.102437
-0.317630
-0.252329
-0.211331
-0.322982
-0.293796
-0.287696
-0.292272
-0.140272
-0.317559
-0.149864
-0.148536
-0.153143
-0.231569
-0.218945
-0.320391
-0.241951
-0.274272
-0.277172
-0.281689
-0.134684
-0.196855
-0.204258
-0.198528
-0.254525
-0.285688
-0.249925
-0.289017
-0.286865
-0.284494
-0.265070
-0.266607
-0.290774
-0.310704
-0.085112
-0.078799
-0.279347
-0.279081
-0.281925
-0.087732
-0.220948
-0.216580
-0.095271
-0.111516
-0.151291
-0.181115
-0.188784
-0.311181
-0.314867
-0.178348
-0.177583
-0.204368
-0.192090
-0.230510
-0.239262
-0.298873
-0.292377
-0.297250
-0.124630
-0.129678
-0.169491
-0.163999
-0.261374
-0.297752
-0.293410
-0.263406
-0.266648
-0.263353
-0.285267
-0.320440
-0.264294
-0.227653
-0.229353
-0.300388
-0.302759
-0.302989
-0.124442
-0.233660
-0.235310
-0.238884
-0.274669
-0.246511
-0.296946
-0.294175
-0.233454
-0.223673
-0.222690
-0.239686
-0.195971
-0.087365
-0.268085
-0.233136
-0.232899
-0.277971
-0.275504
-0.281934
-0.263797
-0.266067
-0.265145
-0.151090
-0.211352
-0.224949
-0.223080
-0.192386
-0.202252
-0.265300
-0.243704
-0.234417
-0.150445
-0.150377
-0.147225
-0.173869
-0.228892
-0.296760
-0.297281
-0.299762
-0.300058
-0.123161
-0.111228
-0.129906
-0.243812
-0.240913
-0.262351
-0.266201
-0.268730
-0.265958
-0.268904
-0.156700
-0.085391
-0.084826
-0.163042
-0.140858
-0.166354
-0.150236
-0.280206
-0.251308
-0.248710
-0.295768
-0.291666
-0.293600
-0.223718
-0.115916
-0.120931
-0.222708
-0.184400
-0.189994
-0.297369
-0.189748
-0.261553
-0.222960
-0.277374
-0.250899
-0.248483
-0.275295
-0.197026
-0.192940
-0.195027
-0.193905
-0.093691
-0.243424
-0.272196
-0.117989
-0.252686
-0.284054
-0.123697
-0.132230
-0.130339
-0.137211
-0.130138
-0.138608
-0.142666
-0.303947
-0.294658
-0.308535
-0.270357
-0.274425
-0.272633
-0.187112
-0.193497
-0.276659
-0.284833
-0.291497
-0.233046
-0.220005
-0.257874
-0.276357
-0.162625
-0.236605
-0.273356
-0.299136
-0.309959
-0.085643
-0.202626
-0.282039
-0.288551
-0.278599
-0.209882
-0.216030
-0.175379
-0.197182
-0.201178
-0.204663
-0.209800
-0.224936
-0.211785
-0.213445
-0.201966
-0.206997
-0.208490
-0.241282
-0.292923
-0.067204
-0.066670
-0.237807
-0.279506
-0.240400
-0.242191
-0.243732
-0.157328
-0.168308
-0.209294
-0.210594
-0.212578
-0.211739
-0.137097
-0.128140
-0.267819
-0.264747
-0.237808
-0.272787
-0.199446
-0.181679
-0.280038
-0.142540
-0.141692
-0.288266
-0.222023
-0.215219
-0.217723
-0.088776
-0.148192
-0.140948
-0.144084
-0.294502
-0.298862
-0.122888
-0.275506
-0.247544
-0.278382
-0.139194
-0.256434
-0.247853
-0.210214
-0.276992
-0.263770
-0.262787
-0.236597
-0.146661
-0.154543
-0.149080
-0.090156
-0.085948
-0.091566
-0.095804
-0.087929
-0.144592
-0.072702
-0.074931
-0.266013
-0.187515
-0.186747
-0.260620
-0.240179
-0.234670
-0.129242
-0.133289
-0.218454
-0.274987
-0.226680
-0.272003
-0.271528
-0.242576
-0.240288
-0.243695
-0.088008
-0.091772
-0.263696
-0.208057
-0.242793
-0.146747
-0.113042
-0.108994
-0.109655
-0.122643
-0.127965
-0.109332
-0.267244
-0.278863
-0.253196
-0.215062
-0.212291
-0.244198
-0.296003
-0.240866
-0.164647
-0.175268
-0.165393
-0.175608
-0.254672
-0.252553
-0.225289
-0.265745
-0.127943
-0.263418
-0.245194
-0.213775
-0.208537
-0.112498
-0.115394
-0.262058
-0.084298
-0.079379
-0.288065
-0.182340
-0.222823
-0.081737
-0.194578
-0.117920
-0.255755
-0.089044
-0.304160
-0.109565
-0.270882
-0.247446
-0.236831
-0.240742
-0.301335
-0.146399
-0.145833
-0.156190
-0.134572
-0.166908
-0.161796
-0.163413
-0.229156
-0.212838
-0.215126
-0.229393
-0.166400
-0.158539
-0.254932
-0.149169
-0.215654
-0.217021
-0.258269
-0.254808
-0.255629
-0.254562
-0.252514
-0.251563
-0.210873
-0.284803
-0.167096
-0.213763
-0.126417
-0.135987
-0.123707
-0.254045
-0.166521
-0.181390
-0.157978
-0.252151
-0.273630
-0.281740
-0.192702
-0.187132
-0.197121
-0.143009
-0.147428
-0.153337
-0.157782
-0.085456
-0.079592
-0.085381
-0.076204
-0.286871
-0.309444
-0.188033
-0.187516
-0.190455
-0.176873
-0.246415
-0.150299
-0.147110
-0.145821
-0.198512
-0.197366
-0.228769
-0.220498
-0.141903
-0.143689
-0.139257
-0.208060
-0.210523
-0.172676
-0.200938
-0.199420
-0.277346
-0.258776
-0.091457
-0.087797
-0.207722
-0.204172
-0.204443
-0.094740
-0.097275
-0.082786
-0.091674
-0.283971
-0.136931
-0.077752
-0.249903
-0.247470
-0.246983
-0.108172
-0.102162
-0.109746
-0.254248
-0.257890
-0.103137
-0.268733
-0.275769
-0.278585
-0.097842
-0.110622
-0.206185
-0.209372
-0.202121
-0.195731
-0.221364
-0.082459
-0.070863
-0.087091
-0.212533
-0.204926
-0.232147
-0.211107
-0.239101
-0.236733
-0.234768
-0.083242
-0.092873
-0.296444
-0.303222
-0.228323
-0.182692
-0.173921
-0.214795
-0.191587
-0.321102
-0.202056
-0.268029
-0.268810
-0.259559
-0.110234
-0.263820
-0.267590
-0.274691
-0.274783
-0.116300
-0.214034
-0.304578
-0.132868
-0.058794
-0.064265
-0.124912
-0.121384
-0.119193
-0.112037
-0.175689
-0.176963
-0.176653
-0.181703
-0.179915
-0.128111
-0.075367
-0.077549
-0.214107
-0.188278
-0.204137
-0.248893
-0.243676
-0.186568
-0.175228
-0.206315
-0.174071
-0.237843
-0.168831
-0.169280
-0.160941
-0.168478
-0.073578
-0.152960
-0.160853
-0.078920
-0.083910
-0.072802
-0.090364
-0.140646
-0.102660
-0.216201
-0.204003
-0.142548
-0.118203
-0.133778
-0.185881
-0.196290
-0.252957
-0.257560
-0.258015
-0.240837
-0.239956
-0.180060
-0.178820
-0.205109
-0.149368
-0.144394
-0.155670
-0.140481
-0.128903
-0.098251
-0.094171
-0.147932
-0.149516
-0.115190
-0.112260
-0.107415
-0.095466
-0.088911
-0.104493
-0.270638
-0.077004
-0.066455
-0.070174
-0.065122
-0.086129
-0.069093
-0.070661
-0.203464
-0.203666
-0.227822
-0.104754
-0.098169
-0.272081
-0.072042
-0.135581
-0.127746
-0.156203
-0.092697
-0.322822
-0.319622
-0.254625
-0.315691
-0.321184
-0.185168
-0.258658
-0.198661
-0.252164
-0.239111
-0.251899
-0.258289
-0.249344
-0.142449
-0.135371
-0.173017
-0.161591
-0.091463
-0.103184
-0.114755
-0.189304
-0.120377
-0.191074
-0.160698
-0.157042
-0.258835
-0.113229
-0.176662
-0.116112
-0.118539
-0.081302
-0.077980
-0.059334
-0.058526
-0.073036
-0.070589
-0.064868
-0.175906
-0.166748
-0.293404
-0.099668
-0.107247
-0.100772
-0.103157
-0.191920
-0.154591
-0.155606
-0.253034
-0.251175
-0.239112
-0.241821
-0.220078
-0.221448
-0.166064
-0.166651
-0.170137
-0.114259
-0.254167
-0.247498
-0.260984
-0.094169
-0.100014
-0.130655
-0.137143
-0.142686
-0.161685
-0.244974
-0.222354
-0.255734
-0.088383
-0.147891
-0.151004
-0.152917
-0.089451
-0.085426
-0.089418
-0.283565
-0.141121
-0.215862
-0.225878
-0.223493
-0.231492
-0.247123
-0.152811
-0.225005
-0.319547
-0.251771
-0.142635
-0.169756
-0.199175
-0.207457
-0.165494
-0.225230
-0.232508
-0.227019
-0.168638
-0.113219
-0.209747
-0.237101
-0.243345
-0.186644
-0.218884
-0.160987
-0.190039
-0.294063
-0.275464
-0.109222
-0.142701
-0.273641
-0.154129
-0.147787
-0.102403
-0.198788
-0.106722
-0.155855
-0.147128
-0.211689
-0.210142
-0.233986
-0.166950
-0.296646
-0.185438
-0.244161
-0.123740
-0.117178
-0.146672
-0.179226
-0.177712
-0.122654
-0.128148
-0.302230
-0.302098
-0.227178
-0.240113
-0.136921
-0.141602
-0.189303
-0.235915
-0.096748
-0.232609
-0.098738
-0.105183
-0.190057
-0.211705
-0.206897
-0.102060
-0.103316
-0.101376
-0.119137
-0.197963
-0.165229
-0.101356
-0.100209
-0.111243
-0.097208
-0.084258
-0.079933
-0.196979
-0.165607
-0.167792
-0.129704
-0.313237
-0.061194
-0.178372
-0.132019
-0.259994
-0.155762
-0.095688
-0.212615
-0.227295
-0.086112
-0.194310
-0.079663
-0.067615
-0.255876
-0.200059
-0.290299
-0.270358
-0.210442
-0.215228
-0.221269
-0.217482
-0.235916
-0.210939
-0.188104
-0.199876
-0.116678
-0.164734
-0.157436
-0.156030
-0.180288
-0.123554
-0.222749
-0.101698
-0.107124
-0.069101
-0.209331
-0.229908
-0.165950
-0.148298
-0.145585
-0.076816
-0.126975
-0.267770
-0.112095
-0.144892
-0.204186
-0.123065
-0.076211
-0.103480
-0.074337
-0.072644
-0.270030
-0.081337
-0.225708
-0.098048
-0.076700
-0.111340
-0.208400
-0.167070
-0.163625
-0.218045
-0.204384
-0.162477
-0.216184
-0.183960
-0.185849
-0.146975
-0.197205
-0.135507
-0.134332
-0.130844
-0.217015
-0.177858
-0.093077
-0.104728
-0.157919
-0.195282
-0.149695
-0.155798
-0.156315
-0.114491
-0.222367
-0.150218
-0.187170
-0.108059
-0.161049
-0.105780
-0.225306
-0.192050
-0.201636
-0.081126
-0.057473
-0.181346
-0.125165
-0.125358
-0.069294
-0.169947
-0.138066
-0.117756
-0.272873
-0.244023
-0.095889
-0.133511
-0.077267
-0.091871
-0.095778
-0.224858
-0.201044
-0.158800
-0.051222
-0.044139
-0.043760
-0.082522
-0.053207
-0.065660
-0.039293
-0.052390
-0.026117
0.035088
0.024777
0.039139
0.022863
0.020003
0.029072
0.023298
0.052528
-0.001534
-0.001623
-0.007518
0.056011
0.068248
0.071768
-0.020209
-0.027621
-0.019223
-0.029167
-0.023432
-0.017990
-0.036698
-0.026615
-0.053139
-0.044851
-0.024435
-0.022110
-0.019413
-0.018662
-0.016435
-0.022045
-0.027729
0.035044
0.029015
0.033057
0.027696
-0.018675
-0.012920
-0.024193
-0.028039
-0.023994
-0.010273
-0.004787
0.044193
0.040071
0.042666
0.040581
-0.037894
-0.034991
-0.043273
0.018253
0.016761
-0.000073
0.005477