# vtk DataFile Version 2.0
Test
ASCII
DATASET POLYDATA
POINTS 3011 float
0.000000 0.000000 0.000000
2.000000 0.000000 0.000000
2.000000 4.000000 0.000000
0.000000 4.000000 0.000000
0.000000 0.500000 0.000000
1.500000 2.000000 0.000000
2.000000 2.500000 0.000000
0.285714 0.000000 0.000000
0.571429 0.000000 0.000000
0.857143 0.000000 0.000000
1.142857 0.000000 0.000000
1.428571 0.000000 0.000000
1.714286 0.000000 0.000000
2.000000 0.276366 0.000000
2.000000 0.523709 0.000000
2.000000 0.745076 0.000000
2.000000 0.943195 0.000000
2.000000 1.120508 0.000000
2.000000 1.279199 0.000000
2.000000 1.421225 0.000000
2.000000 1.548336 0.000000
2.000000 1.662097 0.000000
2.000000 1.763911 0.000000
2.000000 1.855033 0.000000
2.000000 1.936585 0.000000
2.000000 2.009573 0.000000
2.000000 2.074896 0.000000
2.000000 2.133358 0.000000
2.000000 2.185681 0.000000
2.000000 2.232509 0.000000
2.000000 2.274419 0.000000
2.000000 2.311927 0.000000
2.000000 2.345497 0.000000
2.000000 2.375541 0.000000
2.000000 2.402430 0.000000
2.000000 2.426495 0.000000
2.000000 2.448033 0.000000
2.000000 2.467309 0.000000
2.000000 2.484560 0.000000
2.000000 2.516256 0.000000
2.000000 2.535859 0.000000
2.000000 2.559499 0.000000
2.000000 2.588006 0.000000
2.000000 2.622383 0.000000
2.000000 2.663839 0.000000
2.000000 2.713831 0.000000
2.000000 2.774116 0.000000
2.000000 2.846815 0.000000
2.000000 2.934483 0.000000
2.000000 3.040202 0.000000
2.000000 3.167691 0.000000
2.000000 3.321430 0.000000
2.000000 3.506825 0.000000
2.000000 3.730395 0.000000
1.714286 4.000000 0.000000
1.428571 4.000000 0.000000
1.142857 4.000000 0.000000
0.857143 4.000000 0.000000
0.571429 4.000000 0.000000
0.285714 4.000000 0.000000
0.000000 3.713462 0.000000
0.000000 3.449209 0.000000
0.000000 3.205508 0.000000
0.000000 2.980761 0.000000
0.000000 2.773493 0.000000
0.000000 2.582346 0.000000
0.000000 2.406065 0.000000
0.000000 2.243495 0.000000
0.000000 2.093568 0.000000
0.000000 1.955302 0.000000
0.000000 1.827789 0.000000
0.000000 1.710194 0.000000
0.000000 1.601745 0.000000
0.000000 1.501730 0.000000
0.000000 1.409494 0.000000
0.000000 1.324431 0.000000
0.000000 1.245984 0.000000
0.000000 1.173639 0.000000
0.000000 1.106920 0.000000
0.000000 1.045390 0.000000
0.000000 0.988645 0.000000
0.000000 0.936314 0.000000
0.000000 0.888053 0.000000
0.000000 0.843545 0.000000
0.000000 0.802499 0.000000
0.000000 0.764646 0.000000
0.000000 0.729736 0.000000
0.000000 0.697541 0.000000
0.000000 0.667851 0.000000
0.000000 0.640469 0.000000
0.000000 0.615217 0.000000
0.000000 0.591929 0.000000
0.000000 0.570453 0.000000
0.000000 0.550646 0.000000
0.000000 0.532380 0.000000
0.000000 0.515535 0.000000
0.000000 0.483768 0.000000
0.000000 0.461535 0.000000
0.000000 0.431083 0.000000
0.000000 0.389372 0.000000
0.000000 0.332241 0.000000
0.000000 0.253989 0.000000
0.000000 0.146807 0.000000
0.010563 0.510563 0.000000
0.021127 0.521127 0.000000
0.031690 0.531690 0.000000
0.042254 0.542254 0.000000
0.052817 0.552817 0.000000
0.063380 0.563380 0.000000
0.073944 0.573944 0.000000
0.084507 0.584507 0.000000
0.095070 0.595070 0.000000
0.105634 0.605634 0.000000
0.116197 0.616197 0.000000
0.126761 0.626761 0.000000
0.137324 0.637324 0.000000
0.147887 0.647887 0.000000
0.158451 0.658451 0.000000
0.169014 0.669014 0.000000
0.179577 0.679577 0.000000
0.190141 0.690141 0.000000
0.200704 0.700704 0.000000
0.211268 0.711268 0.000000
0.221831 0.721831 0.000000
0.232394 0.732394 0.000000
0.242958 0.742958 0.000000
0.253521 0.753521 0.000000
0.264085 0.764085 0.000000
0.274648 0.774648 0.000000
0.285211 0.785211 0.000000
0.295775 0.795775 0.000000
0.306338 0.806338 0.000000
0.316901 0.816901 0.000000
0.327465 0.827465 0.000000
0.338028 0.838028 0.000000
0.348592 0.848592 0.000000
0.359155 0.859155 0.000000
0.369718 0.869718 0.000000
0.380282 0.880282 0.000000
0.390845 0.890845 0.000000
0.401408 0.901408 0.000000
0.411972 0.911972 0.000000
0.422535 0.922535 0.000000
0.433099 0.933099 0.000000
0.443662 0.943662 0.000000
0.454225 0.954225 0.000000
0.464789 0.964789 0.000000
0.475352 0.975352 0.000000
0.485915 0.985915 0.000000
0.496479 0.996479 0.000000
0.507042 1.007042 0.000000
0.517606 1.017606 0.000000
0.528169 1.028169 0.000000
0.538732 1.038732 0.000000
0.549296 1.049296 0.000000
0.559859 1.059859 0.000000
0.570423 1.070423 0.000000
0.580986 1.080986 0.000000
0.591549 1.091549 0.000000
0.602113 1.102113 0.000000
0.612676 1.112676 0.000000
0.623239 1.123239 0.000000
0.633803 1.133803 0.000000
0.644366 1.144366 0.000000
0.654930 1.154930 0.000000
0.665493 1.165493 0.000000
0.676056 1.176056 0.000000
0.686620 1.186620 0.000000
0.697183 1.197183 0.000000
0.707746 1.207746 0.000000
0.718310 1.218310 0.000000
0.728873 1.228873 0.000000
0.739437 1.239437 0.000000
0.750000 1.250000 0.000000
0.760563 1.260563 0.000000
0.771127 1.271127 0.000000
0.781690 1.281690 0.000000
0.792254 1.292254 0.000000
0.802817 1.302817 0.000000
0.813380 1.313380 0.000000
0.823944 1.323944 0.000000
0.834507 1.334507 0.000000
0.845070 1.345070 0.000000
0.855634 1.355634 0.000000
0.866197 1.366197 0.000000
0.876761 1.376761 0.000000
0.887324 1.387324 0.000000
0.897887 1.397887 0.000000
0.908451 1.408451 0.000000
0.919014 1.419014 0.000000
0.929577 1.429577 0.000000
0.940141 1.440141 0.000000
0.950704 1.450704 0.000000
0.961268 1.461268 0.000000
0.971831 1.471831 0.000000
0.982394 1.482394 0.000000
0.992958 1.492958 0.000000
1.003521 1.503521 0.000000
1.014085 1.514085 0.000000
1.024648 1.524648 0.000000
1.035211 1.535211 0.000000
1.045775 1.545775 0.000000
1.056338 1.556338 0.000000
1.066901 1.566901 0.000000
1.077465 1.577465 0.000000
1.088028 1.588028 0.000000
1.098592 1.598592 0.000000
1.109155 1.609155 0.000000
1.119718 1.619718 0.000000
1.130282 1.630282 0.000000
1.140845 1.640845 0.000000
1.151408 1.651408 0.000000
1.161972 1.661972 0.000000
1.172535 1.672535 0.000000
1.183099 1.683099 0.000000
1.193662 1.693662 0.000000
1.204225 1.704225 0.000000
1.214789 1.714789 0.000000
1.225352 1.725352 0.000000
1.235915 1.735915 0.000000
1.246479 1.746479 0.000000
1.257042 1.757042 0.000000
1.267606 1.767606 0.000000
1.278169 1.778169 0.000000
1.288732 1.788732 0.000000
1.299296 1.799296 0.000000
1.309859 1.809859 0.000000
1.320423 1.820423 0.000000
1.330986 1.830986 0.000000
1.341549 1.841549 0.000000
1.352113 1.852113 0.000000
1.362676 1.862676 0.000000
1.373239 1.873239 0.000000
1.383803 1.883803 0.000000
1.394366 1.894366 0.000000
1.404930 1.904930 0.000000
1.415493 1.915493 0.000000
1.426056 1.926056 0.000000
1.436620 1.936620 0.000000
1.447183 1.947183 0.000000
1.457746 1.957746 0.000000
1.468310 1.968310 0.000000
1.478873 1.978873 0.000000
1.489437 1.989437 0.000000
1.510417 2.010417 0.000000
1.520833 2.020833 0.000000
1.531250 2.031250 0.000000
1.541667 2.041667 0.000000
1.552083 2.052083 0.000000
1.562500 2.062500 0.000000
1.572917 2.072917 0.000000
1.583333 2.083333 0.000000
1.593750 2.093750 0.000000
1.604167 2.104167 0.000000
1.614583 2.114583 0.000000
1.625000 2.125000 0.000000
1.635417 2.135417 0.000000
1.645833 2.145833 0.000000
1.656250 2.156250 0.000000
1.666667 2.166667 0.000000
1.677083 2.177083 0.000000
1.687500 2.187500 0.000000
1.697917 2.197917 0.000000
1.708333 2.208333 0.000000
1.718750 2.218750 0.000000
1.729167 2.229167 0.000000
1.739583 2.239583 0.000000
1.750000 2.250000 0.000000
1.760417 2.260417 0.000000
1.770833 2.270833 0.000000
1.781250 2.281250 0.000000
1.791667 2.291667 0.000000
1.802083 2.302083 0.000000
1.812500 2.312500 0.000000
1.822917 2.322917 0.000000
1.833333 2.333333 0.000000
1.843750 2.343750 0.000000
1.854167 2.354167 0.000000
1.864583 2.364583 0.000000
1.875000 2.375000 0.000000
1.885417 2.385417 0.000000
1.895833 2.395833 0.000000
1.906250 2.406250 0.000000
1.916667 2.416667 0.000000
1.927083 2.427083 0.000000
1.937500 2.437500 0.000000
1.947917 2.447917 0.000000
1.958333 2.458333 0.000000
1.968750 2.468750 0.000000
1.979167 2.479167 0.000000
1.989583 2.489583 0.000000
0.206561 0.791563 0.000000
0.205359 0.816165 0.000000
0.186354 0.798211 0.000000
0.221961 0.800924 0.000000
0.280649 1.360489 0.000000
0.304015 1.400469 0.000000
0.229142 1.396096 0.000000
0.275922 1.451476 0.000000
1.869084 2.391788 0.000000
1.857928 2.378421 0.000000
1.238669 2.061899 0.000000
1.278787 2.082276 0.000000
1.238298 2.096047 0.000000
1.277579 2.032995 0.000000
0.402536 1.205823 0.000000
0.415290 1.176040 0.000000
0.428330 1.201952 0.000000
0.387294 1.172617 0.000000
0.146930 1.050586 0.000000
0.109488 1.087198 0.000000
0.102742 1.042403 0.000000
0.157178 1.091184 0.000000
0.588967 1.178581 0.000000
0.593116 1.153718 0.000000
0.608054 1.166752 0.000000
0.612180 1.145944 0.000000
0.860304 1.543784 0.000000
0.868821 1.521840 0.000000
0.878420 1.536650 0.000000
0.845380 1.517623 0.000000
1.129525 1.764330 0.000000
1.142005 1.751560 0.000000
1.145757 1.773681 0.000000
1.159368 1.759106 0.000000
1.968150 2.518865 0.000000
1.986105 2.509269 0.000000
1.986696 2.531115 0.000000
0.668964 1.191005 0.000000
0.683291 1.201259 0.000000
0.557625 1.074830 0.000000
0.569760 1.084377 0.000000
0.557769 1.089278 0.000000
0.707567 1.266174 0.000000
0.719026 1.281845 0.000000
0.700768 1.282275 0.000000
0.722329 1.266956 0.000000
0.468225 2.149688 0.000000
0.419106 2.064198 0.000000
0.523878 2.082648 0.000000
0.838546 1.421191 0.000000
0.823708 1.410355 0.000000
0.840477 1.404206 0.000000
0.818500 1.425973 0.000000
0.953187 1.488222 0.000000
0.959780 1.473222 0.000000
0.967054 1.485637 0.000000
1.047418 1.769126 0.000000
1.080240 1.782403 0.000000
1.047768 1.802712 0.000000
0.971392 1.693320 0.000000
0.949208 1.720793 0.000000
0.940644 1.684781 0.000000
0.381391 2.160909 0.000000
0.944091 1.477800 0.000000
0.530075 1.477351 0.000000
0.521303 1.516669 0.000000
0.474240 1.491166 0.000000
0.489489 1.546185 0.000000
1.537370 2.239326 0.000000
1.555275 2.267640 0.000000
1.532966 2.278201 0.000000
0.962010 1.661716 0.000000
0.986804 1.643200 0.000000
0.986259 1.672729 0.000000
1.049149 1.737940 0.000000
1.075111 1.737123 0.000000
[...]
POINT_DATA 3011
SCALARS UX float 1
LOOKUP_TABLE default
-0.000000
0.000000
-0.388568
-0.873913
-0.321466
-0.117622
-0.230727
-0.000000
-0.000000
-0.000000
-0.000000
0.000000
-0.000000
0.163471
0.229585
0.266633
0.289553
0.303362
0.310571
0.311420
0.304062
0.286950
0.258849
0.217135
0.167106
0.110723
0.056262
0.005737
-0.038682
-0.076056
-0.107074
-0.132830
-0.154071
-0.171505
-0.186065
-0.198260
-0.208516
-0.217166
-0.224510
-0.237032
-0.244256
-0.252627
-0.261671
-0.271938
-0.283395
-0.295028
-0.307769
-0.320907
-0.333131
-0.345692
-0.357518
-0.368963
-0.378935
-0.385458
-0.471941
-0.549599
-0.620719
-0.686602
-0.750275
-0.812176
-0.867011
-0.853855
-0.833587
-0.811817
-0.790713
-0.773723
-0.762646
-0.757602
-0.759307
-0.766267
-0.777774
-0.791078
-0.805737
-0.820852
-0.835505
-0.849059
-0.861275
-0.871917
-0.881003
-0.888612
-0.894523
-0.899118
-0.902344
-0.904059
-0.904652
-0.904209
-0.903353
-0.901791
-0.898573
-0.893642
-0.883177
-0.870119
-0.854122
-0.807359
-0.724294
-0.520378
-0.261535
-0.214150
-0.186270
-0.169737
-0.149229
-0.123179
-0.085239
-0.434152
-0.422517
-0.419766
-0.426231
-0.429337
-0.435957
-0.437980
-0.441054
-0.441210
-0.442646
-0.436932
-0.444022
-0.433900
-0.444679
-0.419963
-0.420965
-0.429329
-0.430358
-0.420962
-0.419604
-0.422016
-0.427577
-0.428096
-0.424716
-0.430542
-0.430066
-0.436292
-0.434446
-0.449870
-0.452225
-0.456170
-0.446626
-0.439651
-0.432271
-0.439224
-0.423430
-0.416619
-0.412445
-0.420398
-0.405975
-0.403638
-0.393714
-0.389823
-0.392158
-0.392867
-0.386034
-0.382907
-0.379088
-0.372729
-0.363030
-0.356983
-0.353101
-0.350534
-0.346642
-0.355710
-0.355915
-0.349694
-0.350109
-0.340631
-0.349178
-0.344073
-0.338657
-0.333518
-0.328690
-0.315746
-0.323694
-0.319247
-0.317188
-0.310797
-0.309479
-0.297736
-0.307831
-0.306616
-0.313379
-0.329814
-0.325986
-0.318909
-0.322172
-0.314756
-0.311781
-0.310130
-0.299854
-0.293629
-0.272673
-0.263808
-0.318791
-0.312830
-0.298397
-0.292445
-0.288813
-0.285539
-0.284910
-0.280312
-0.271463
-0.269252
-0.262369
-0.260313
-0.255223
-0.256324
-0.248645
-0.240507
-0.232378
-0.223672
-0.223462
-0.213210
-0.205574
-0.195646
-0.198161
-0.196267
-0.191120
-0.193059
-0.189082
-0.193861
-0.186474
-0.194368
-0.194186
-0.183874
-0.183279
-0.190051
-0.186249
-0.193228
-0.187006
-0.188366
-0.173163
-0.179226
-0.178847
-0.165471
-0.172962
-0.164839
-0.159522
-0.153419
-0.168793
-0.171007
-0.165648
-0.161901
-0.150068
-0.150842
-0.144198
-0.132544
-0.130349
-0.125208
-0.117269
-0.122170
-0.125501
-0.131953
-0.137188
-0.141661
-0.146453
-0.150639
-0.153961
-0.157477
-0.160688
-0.163858
-0.166756
-0.169967
-0.173285
-0.176330
-0.179157
-0.182050
-0.184769
-0.187476
-0.190084
-0.192631
-0.195109
-0.197680
-0.200077
-0.202501
-0.204810
-0.207138
-0.209352
-0.211539
-0.213653
-0.215663
-0.217633
-0.219436
-0.221182
-0.222792
-0.224255
-0.225623
-0.226795
-0.227875
-0.228789
-0.229557
-0.230181
-0.230629
-0.230889
-0.231028
-0.230964
-0.831926
-0.843944
-0.848194
-0.825746
-0.780870
-0.768359
-0.786049
-0.765661
-0.234193
-0.231534
-0.387576
-0.367205
-0.385736
-0.372328
-0.780944
-0.782163
-0.775270
-0.789497
-0.858735
-0.861722
-0.868667
-0.851307
-0.720505
-0.704630
-0.696439
-0.654872
-0.609586
-0.609092
-0.604432
-0.617619
-0.487626
-0.483190
-0.479013
-0.473079
-0.251135
-0.240157
-0.248052
-0.587840
-0.545176
-0.597591
-0.547689
-0.661708
-0.657267
-0.655456
-0.673854
-0.637793
-0.636455
-0.651940
-0.623072
-0.617210
-0.625530
-0.610188
-0.630856
-0.515401
-0.408949
-0.439884
-0.515522
-0.502334
-0.507965
-0.552668
-0.553506
-0.562863
-0.659240
-0.517747
-0.702892
-0.697317
-0.712927
-0.699123
-0.298535
-0.303827
-0.317184
-0.560890
-0.555431
-0.551729
-0.521373
-0.512848
-0.511465
-0.288327
-0.518243
-0.458706
-0.374961
-0.391021
-0.442765
-0.347951
-0.331457
-0.345418
-0.322290
-0.342253
-0.331598
-0.698384
-0.705039
-0.694519
-0.698871
-0.682778
-0.684551
-0.701373
-0.667326
-0.807022
-0.798093
-0.802337
-0.805602
-0.478877
-0.488598
-0.472047
-0.505790
-0.688009
-0.698263
-0.675998
-0.270885
-0.272019
-0.286483
-0.709515
-0.820831
-0.832759
-0.836398
-0.685236
-0.681798
-0.675062
-0.672135
-0.847737
-0.741494
-0.722122
-0.749299
-0.269715
-0.253284
-0.258564
-0.494285
-0.483885
-0.475354
-0.770976
-0.767435
-0.460142
-0.626804
-0.619169
-0.632331
-0.617899
-0.247014
-0.266962
-0.266220
-0.615599
-0.607932
-0.617113
-0.241240
-0.760361
-0.659814
-0.701367
-0.741712
-0.740281
-0.732862
-0.864422
-0.854141
-0.733538
-0.572504
-0.580096
-0.562931
-0.871937
-0.569410
-0.501158
-0.490939
-0.856401
-0.847989
-0.847978
-0.679192
-0.625912
-0.597488
-0.702635
-0.721433
-0.174275
-0.170112
-0.188289
-0.426723
-0.433673
-0.442422
-0.479888
-0.467102
-0.478113
-0.510414
-0.524737
-0.532690
-0.488723
-0.753797
-0.776878
-0.773425
-0.622492
-0.629706
-0.628137
-0.564930
-0.622287
-0.881124
-0.874898
-0.883681
-0.710668
-0.731461
-0.256079
-0.540885
-0.218779
-0.233814
-0.231485
-0.633522
-0.623027
-0.628001
-0.652826
-0.306965
-0.315745
-0.330110
-0.676290
-0.693876
-0.668976
-0.408175
-0.396720
-0.393015
-0.422940
-0.221101
-0.220586
-0.254672
-0.404281
-0.418197
-0.419490
-0.443314
-0.402336
-0.415791
-0.478532
-0.469011
-0.509681
-0.502558
-0.188156
-0.174729
-0.216107
-0.667469
-0.727806
-0.734599
-0.744120
-0.743294
-0.493066
-0.298392
-0.298306
-0.280014
-0.355562
-0.361571
-0.341959
-0.371717
-0.330515
-0.322448
-0.312620
-0.203552
-0.196636
-0.589371
-0.580096
-0.580123
-0.590145
-0.610985
-0.594434
-0.607275
-0.592982
-0.343250
-0.355222
-0.340606
-0.340045
-0.338055
-0.367689
-0.222360
-0.207699
-0.228970
-0.206173
-0.203029
-0.650654
-0.653312
-0.664627
-0.639548
-0.645325
-0.635588
-0.638186
-0.658687
-0.655081
-0.642100
-0.593925
-0.601476
-0.592337
-0.601277
-0.432466
-0.426012
-0.416504
-0.443434
-0.509896
-0.624437
-0.637157
-0.628345
-0.631771
-0.623523
-0.617476
-0.237282
-0.251703
-0.242803
-0.259402
-0.473966
-0.468513
-0.597315
-0.594386
-0.585557
-0.325516
-0.360312
-0.444488
-0.490997
-0.504460
-0.487507
-0.501149
-0.550710
-0.554244
-0.535279
-0.564495
-0.219049
-0.211202
-0.539684
-0.478506
-0.583620
-0.511689
-0.515483
-0.523781
-0.331333
-0.351091
-0.369603
-0.500607
-0.533713
-0.524993
-0.536284
-0.320809
-0.334181
-0.275719
-0.255553
-0.280050
-0.260662
-0.384303
-0.383583
-0.399535
-0.392070
-0.877032
-0.875706
-0.885184
-0.867326
-0.775383
-0.746598
-0.703387
-0.687852
-0.698500
-0.743249
-0.194241
-0.794192
-0.794724
-0.803610
-0.801666
-0.440391
-0.427180
-0.420049
-0.406879
-0.595610
-0.582765
-0.573435
-0.567372
-0.228969
-0.215267
-0.224535
-0.210201
-0.225747
-0.246586
-0.774973
-0.781791
-0.797024
-0.857565
-0.869400
-0.851418
-0.872436
-0.868407
-0.860944
-0.528087
-0.536642
-0.536698
-0.334002
-0.354018
-0.764129
-0.760611
-0.770893
-0.764490
-0.773770
-0.598961
-0.589257
-0.600492
-0.590200
-0.793069
-0.803494
-0.803694
-0.787782
-0.641726
-0.631447
-0.860824
-0.856484
-0.851123
-0.855063
-0.862660
-0.847495
-0.861092
-0.830554
-0.778246
-0.803662
-0.842635
-0.824794
-0.831792
-0.846008
-0.834361
-0.553123
-0.550933
-0.560855
-0.434697
-0.781270
-0.766618
-0.743848
-0.824803
-0.790867
-0.304562
-0.300815
-0.290536
-0.321829
-0.321651
-0.300881
-0.825962
-0.826330
-0.833108
-0.757644
-0.746097
-0.734383
-0.752814
-0.365364
-0.337968
-0.353125
-0.375806
-0.531137
-0.527000
-0.784096
-0.775579
-0.784095
-0.773856
-0.716200
-0.775111
-0.774506
-0.637298
-0.653153
-0.804325
-0.252454
-0.267403
-0.270318
-0.246272
-0.807674
-0.800635
-0.425320
-0.424605
-0.443905
-0.447589
-0.436780
-0.537617
-0.571038
-0.550250
-0.594356
-0.653660
-0.648562
-0.650166
-0.885051
-0.888565
-0.893852
-0.877904
-0.291460
-0.431108
-0.839000
-0.840558
-0.848835
-0.864224
-0.845673
-0.846701
-0.273269
-0.264469
-0.254732
-0.832243
-0.832679
-0.848936
-0.764923
-0.809539
-0.798301
-0.251131
-0.242153
-0.254553
-0.240321
-0.248694
-0.402076
-0.391166
-0.836192
-0.840129
-0.832538
-0.262048
-0.381315
-0.361997
-0.368412
-0.778721
-0.752873
-0.742284
-0.753729
-0.744820
-0.736064
-0.690995
-0.687562
-0.831332
-0.819412
-0.896352
-0.890910
-0.888626
-0.884531
-0.775390
-0.192942
-0.779889
-0.834208
-0.853706
-0.812805
-0.781670
-0.301251
-0.322600
-0.836043
-0.860646
-0.841729
-0.238727
-0.865644
-0.302935
-0.298851
-0.318712
-0.836664
-0.841970
-0.827581
-0.561699
-0.534209
-0.544305
-0.517573
-0.525427
-0.859861
-0.857151
-0.867935
-0.870367
-0.335982
-0.358066
-0.823953
-0.810636
-0.818161
-0.807076
-0.733744
-0.725702
-0.738199
-0.718529
-0.732217
-0.734791
-0.725846
-0.715954
-0.728787
-0.827692
-0.848602
-0.286347
-0.287008
-0.788391
-0.779747
-0.788786
-0.781986
-0.795348
-0.151580
-0.159120
-0.183057
-0.712215
-0.712534
-0.793408
-0.798943
-0.715712
-0.706795
-0.443837
-0.467700
-0.458179
-0.441487
-0.689332
-0.807205
-0.781719
-0.784739
-0.772423
-0.382008
-0.224596
-0.238772
-0.235934
-0.251203
-0.533957
-0.539362
-0.519815
-0.513692
-0.498312
-0.500840
-0.339489
-0.320867
-0.273614
-0.280680
-0.511546
-0.494977
-0.284911
-0.281907
-0.641626
-0.785578
-0.796620
-0.777126
-0.704304
-0.661707
-0.784659
-0.809573
-0.371031
-0.688728
-0.896793
-0.354634
-0.447967
-0.458024
-0.235709
-0.243742
-0.264155
-0.893849
-0.799734
-0.795458
-0.809505
-0.462213
-0.464600
-0.478349
-0.474324
-0.249423
-0.858660
-0.853642
-0.846536
-0.794710
-0.375500
-0.379551
-0.395496
-0.390842
-0.226297
-0.896203
-0.897976
-0.890521
-0.806020
-0.876092
-0.676475
-0.693192
-0.659033
-0.688200
-0.720100
-0.801432
-0.848979
-0.494083
-0.513969
-0.523489
-0.484091
-0.549150
-0.573817
-0.517283
-0.809781
-0.587711
-0.617052
-0.508865
-0.534472
-0.528144
-0.860219
-0.868676
-0.854606
-0.888145
-0.878964
-0.655563
-0.610444
-0.643548
-0.619551
-0.860747
-0.508340
-0.552497
-0.544322
-0.636030
-0.649893
-0.638155
-0.815357
-0.809038
-0.827527
-0.777217
-0.777844
-0.800583
-0.801889
-0.617106
-0.611866
-0.602114
-0.595799
-0.586871
-0.440085
-0.458983
-0.544364
-0.571890
-0.581875
-0.578329
-0.569113
-0.420372
-0.474837
-0.482503
-0.500376
-0.505651
-0.762616
-0.723846
-0.734848
-0.698724
-0.787243
-0.807463
-0.832865
-0.787823
-0.240269
-0.815558
-0.814293
-0.825438
-0.825977
-0.655269
-0.664930
-0.647536
-0.687379
-0.675828
-0.886985
-0.819912
-0.818966
-0.876677
-0.187365
-0.196637
-0.701663
-0.840898
-0.192547
-0.316618
-0.679651
-0.703582
-0.683900
-0.425209
-0.712081
-0.872215
-0.858246
-0.897227
-0.886683
-0.242989
-0.866130
-0.575305
-0.642203
-0.585139
-0.818790
-0.867984
-0.236806
-0.659861
-0.710954
-0.757558
-0.734872
-0.318457
-0.338980
-0.334748
-0.229368
-0.240630
-0.228541
-0.716855
-0.786876
-0.800138
-0.828220
-0.705973
-0.449329
-0.472164
-0.492519
-0.520163
-0.811935
-0.809981
-0.664078
-0.666639
-0.645632
-0.625194
-0.375206
-0.608112
-0.892395
-0.749025
-0.755652
-0.751636
-0.491757
-0.720036
-0.714161
-0.711982
-0.728895
-0.700692
-0.692726
-0.681102
-0.666565
-0.733498
-0.669424
-0.681376
-0.673081
-0.422940
-0.384282
-0.401750
-0.610256
-0.764034
-0.771507
-0.762854
-0.838097
-0.819156
-0.848649
-0.872027
-0.687323
-0.467483
-0.679064
-0.705260
-0.710117
-0.694214
-0.878078
-0.838876
-0.706097
-0.706932
-0.770557
-0.434940
-0.265924
-0.282859
-0.870506
-0.692835
-0.579848
-0.885029
-0.804366
-0.787716
-0.802179
-0.386176
-0.873739
-0.410600
-0.407315
-0.419902
-0.636198
-0.601682
-0.878041
-0.664647
-0.751111
-0.759004
-0.771352
-0.371401
-0.540489
-0.560437
-0.544907
-0.697518
-0.783459
-0.684562
-0.791632
-0.785812
-0.779261
-0.727040
-0.731014
-0.796512
-0.852022
-0.234871
-0.217552
-0.765048
-0.764363
-0.772180
-0.242009
-0.605316
-0.593581
-0.262888
-0.307535
-0.415179
-0.497881
-0.518822
-0.853418
-0.863402
-0.489845
-0.487469
-0.562302
-0.528826
-0.632376
-0.656157
-0.819286
-0.801491
-0.814765
-0.343156
-0.357027
-0.466080
-0.450959
-0.715899
-0.815036
-0.803229
-0.721387
-0.730200
-0.721221
-0.782977
-0.879287
-0.724020
-0.623755
-0.628525
-0.823311
-0.829870
-0.830379
-0.343150
-0.640319
-0.644717
-0.654539
-0.757191
-0.679568
-0.813399
-0.805840
-0.640218
-0.613677
-0.612222
-0.658714
-0.539262
-0.241369
-0.734830
-0.639190
-0.638426
-0.761099
-0.754425
-0.771980
-0.722306
-0.728527
-0.726063
-0.416689
-0.580849
-0.618037
-0.612850
-0.528252
-0.555445
-0.726633
-0.667473
-0.642045
-0.414148
-0.413931
-0.405247
-0.478088
-0.627437
-0.813005
-0.814554
-0.821246
-0.822140
-0.335927
-0.303008
-0.355210
-0.667961
-0.659986
-0.745912
-0.728839
-0.735742
-0.728131
-0.736256
-0.431250
-0.236070
-0.234503
-0.448603
-0.385293
-0.457661
-0.413585
-0.768465
-0.692458
-0.680836
-0.810528
-0.799322
-0.804542
-0.614159
-0.319263
-0.332956
-0.609871
-0.506351
-0.521495
-0.814983
-0.520967
-0.716796
-0.610672
-0.762435
-0.690427
-0.684177
-0.753757
-0.540477
-0.529331
-0.535187
-0.531830
-0.258840
-0.666387
-0.746707
-0.325007
-0.692247
-0.779228
-0.341042
-0.364430
-0.359193
-0.377997
-0.358570
-0.381711
-0.393025
-0.835172
-0.810068
-0.847286
-0.740388
-0.751461
-0.746565
-0.514354
-0.531749
-0.757491
-0.779796
-0.798563
-0.639966
-0.604350
-0.709759
-0.759742
-0.446915
-0.649843
-0.748429
-0.819710
-0.848724
-0.236722
-0.556798
-0.772184
-0.789923
-0.762816
-0.575787
-0.592542
-0.482086
-0.541726
-0.552734
-0.562125
-0.576205
-0.616973
-0.582173
-0.586677
-0.555251
-0.568992
-0.573204
-0.662500
-0.803969
-0.185415
-0.183635
-0.651485
-0.765422
-0.658339
-0.663333
-0.667617
-0.433456
-0.463569
-0.573368
-0.577104
-0.582356
-0.579884
-0.372165
-0.347489
-0.733916
-0.725488
-0.651485
-0.750061
-0.547252
-0.498765
-0.767131
-0.392248
-0.389982
-0.789721
-0.609324
-0.590760
-0.597732
-0.245359
-0.408234
-0.388404
-0.397063
-0.806479
-0.818524
-0.339113
-0.754370
-0.677870
-0.762291
-0.383013
-0.702553
-0.679006
-0.575847
-0.758999
-0.722460
-0.719457
-0.648184
-0.403512
-0.425163
-0.410141
-0.248852
-0.237343
-0.252732
-0.264259
-0.242642
-0.398152
-0.200196
-0.206640
-0.728927
-0.515814
-0.513616
-0.713791
-0.657802
-0.642737
-0.356040
-0.367055
-0.599257
-0.753004
-0.621569
-0.744898
-0.743615
-0.663869
-0.657634
-0.667069
-0.243224
-0.253549
-0.721899
-0.571275
-0.666863
-0.403760
-0.311327
-0.300280
-0.302154
-0.337551
-0.352150
-0.301103
-0.731890
-0.764972
-0.693546
-0.588695
-0.581871
-0.668410
-0.799713
-0.659026
-0.452996
-0.482104
-0.454962
-0.483125
-0.697447
-0.691676
-0.617107
-0.727763
-0.352122
-0.721590
-0.671637
-0.585617
-0.572873
-0.310028
-0.317909
-0.727615
-0.232509
-0.218966
-0.789392
-0.501284
-0.584758
-0.225365
-0.534094
-0.324900
-0.700458
-0.245562
-0.833476
-0.301953
-0.741651
-0.677596
-0.648042
-0.659033
-0.825790
-0.403492
-0.402040
-0.430201
-0.371215
-0.456620
-0.442172
-0.447025
-0.627183
-0.583066
-0.587799
-0.627724
-0.454748
-0.433359
-0.698274
-0.406769
-0.592359
-0.595972
-0.707124
-0.697836
-0.700291
-0.697431
-0.691905
-0.689416
-0.579029
-0.781388
-0.458951
-0.584179
-0.348848
-0.369721
-0.335977
-0.697746
-0.455932
-0.495411
-0.431986
-0.690889
-0.749928
-0.772266
-0.526578
-0.511703
-0.538810
-0.393665
-0.405854
-0.421982
-0.434270
-0.235783
-0.219684
-0.235550
-0.210424
-0.786333
-0.846951
-0.514851
-0.513456
-0.521806
-0.484608
-0.675008
-0.412841
-0.403984
-0.400716
-0.544358
-0.541097
-0.626416
-0.603705
-0.390082
-0.395057
-0.383003
-0.569098
-0.575980
-0.473949
-0.549463
-0.545608
-0.760016
-0.709029
-0.252263
-0.242266
-0.568294
-0.558311
-0.559232
-0.261312
-0.268215
-0.228125
-0.252524
-0.778225
-0.376890
-0.214601
-0.684909
-0.678531
-0.676572
-0.298042
-0.281601
-0.302128
-0.696487
-0.706542
-0.284360
-0.736071
-0.755326
-0.763084
-0.269916
-0.304881
-0.563799
-0.572542
-0.553270
-0.533801
-0.606713
-0.227285
-0.195115
-0.239722
-0.581180
-0.560171
-0.638270
-0.577198
-0.654198
-0.647514
-0.642270
-0.229741
-0.256139
-0.813379
-0.831838
-0.624911
-0.498157
-0.476147
-0.586916
-0.523990
-0.881587
-0.554068
-0.733942
-0.736125
-0.710795
-0.303503
-0.722229
-0.732837
-0.752246
-0.752538
-0.317624
-0.583932
-0.834476
-0.363904
-0.162712
-0.177725
-0.343493
-0.333607
-0.327716
-0.307735
-0.479554
-0.483659
-0.483164
-0.497279
-0.492601
-0.352333
-0.207892
-0.213800
-0.585094
-0.513728
-0.557521
-0.682310
-0.668701
-0.510461
-0.479831
-0.564098
-0.476033
-0.651242
-0.461021
-0.462701
-0.439044
-0.459784
-0.203045
-0.415776
-0.435748
-0.217440
-0.231237
-0.200677
-0.248940
-0.387019
-0.283037
-0.592893
-0.559667
-0.390587
-0.323330
-0.366836
-0.506676
-0.536319
-0.692447
-0.705051
-0.706319
-0.659371
-0.656907
-0.492910
-0.489142
-0.560914
-0.408863
-0.394776
-0.426540
-0.383513
-0.351574
-0.270594
-0.259346
-0.407097
-0.411392
-0.316880
-0.308628
-0.295468
-0.261867
-0.243950
-0.287113
-0.741039
-0.212655
-0.183720
-0.193908
-0.179948
-0.237209
-0.190726
-0.195079
-0.556333
-0.557986
-0.623822
-0.288830
-0.270793
-0.745488
-0.198975
-0.373255
-0.351807
-0.429771
-0.255796
-0.886767
-0.879098
-0.685725
-0.866994
-0.882113
-0.509958
-0.710591
-0.544369
-0.690321
-0.654672
-0.689622
-0.724057
-0.683076
-0.391928
-0.372487
-0.476722
-0.445528
-0.249896
-0.282361
-0.315493
-0.518838
-0.330571
-0.522627
-0.430412
-0.421160
-0.708572
-0.311999
-0.480171
-0.319821
-0.326558
-0.224509
-0.215423
-0.164194
-0.161976
-0.201704
-0.194956
-0.179295
-0.480876
-0.453447
-0.805201
-0.271654
-0.295328
-0.277564
-0.284165
-0.524595
-0.423878
-0.426508
-0.693288
-0.687995
-0.654070
-0.661743
-0.602283
-0.606144
-0.455567
-0.457511
-0.466778
-0.314774
-0.695759
-0.677516
-0.714445
-0.259793
-0.275803
-0.359702
-0.377330
-0.392450
-0.443798
-0.670682
-0.609705
-0.700513
-0.243968
-0.406544
-0.415118
-0.420145
-0.246866
-0.235820
-0.246745
-0.776519
-0.388290
-0.591295
-0.617397
-0.610452
-0.632704
-0.677033
-0.416373
-0.617763
-0.876278
-0.689211
-0.384328
-0.462356
-0.547550
-0.567783
-0.453684
-0.615306
-0.635960
-0.620831
-0.462063
-0.312041
-0.574537
-0.650760
-0.667392
-0.509101
-0.598142
-0.441551
-0.519483
-0.808623
-0.758818
-0.300836
-0.386765
-0.749460
-0.416005
-0.396879
-0.278942
-0.546587
-0.294174
-0.429139
-0.405134
-0.579898
-0.577992
-0.640619
-0.459219
-0.813916
-0.507903
-0.668406
-0.336629
-0.318710
-0.400577
-0.490478
-0.485439
-0.337444
-0.352640
-0.828012
-0.827765
-0.624569
-0.659965
-0.376162
-0.382820
-0.519189
-0.645095
-0.266582
-0.636013
-0.272095
-0.289791
-0.522588
-0.579942
-0.566827
-0.281360
-0.284744
-0.277083
-0.327555
-0.544256
-0.454875
-0.279093
-0.275953
-0.305253
-0.266392
-0.232589
-0.220727
-0.541912
-0.455702
-0.461787
-0.356324
-0.858892
-0.169286
-0.490796
-0.363144
-0.711759
-0.424959
-0.263145
-0.582430
-0.622589
-0.237509
-0.534275
-0.219371
-0.186338
-0.700501
-0.546806
-0.798724
-0.740573
-0.575362
-0.588606
-0.605234
-0.594676
-0.646328
-0.577788
-0.512467
-0.546464
-0.321126
-0.451344
-0.432406
-0.428332
-0.493952
-0.340266
-0.609378
-0.280342
-0.295222
-0.190007
-0.573473
-0.629746
-0.454915
-0.404472
-0.395013
-0.211999
-0.349441
-0.733357
-0.304044
-0.395187
-0.558205
-0.339020
-0.210541
-0.285341
-0.205553
-0.200806
-0.741580
-0.224701
-0.617365
-0.269369
-0.211852
-0.302701
-0.569753
-0.457474
-0.448111
-0.596193
-0.558830
-0.445002
-0.591025
-0.503931
-0.508893
-0.404229
-0.539051
-0.372807
-0.369521
-0.359982
-0.593441
-0.483898
-0.254630
-0.288385
-0.430057
-0.534079
-0.406907
-0.425944
-0.428722
-0.315264
-0.608163
-0.408251
-0.510503
-0.297892
-0.441331
-0.291654
-0.616322
-0.526399
-0.551264
-0.223972
-0.159066
-0.498765
-0.344206
-0.344825
-0.191480
-0.464895
-0.379590
-0.324460
-0.747179
-0.668607
-0.264561
-0.367427
-0.213360
-0.253265
-0.264050
-0.615168
-0.549613
-0.435332
-0.139643
-0.120234
-0.119290
-0.225631
-0.145294
-0.179559
-0.110574
-0.146262
-0.074038
0.094489
0.066340
0.105560
0.060174
0.052573
0.077987
0.062321
0.142080
-0.004034
-0.004174
-0.020393
0.152869
0.186326
0.195714
-0.056406
-0.076812
-0.053521
-0.081672
-0.065873
-0.051021
-0.102290
-0.074239
-0.145000
-0.122382
-0.067817
-0.061210
-0.053864
-0.050764
-0.044803
-0.060049
-0.076704
0.092092
0.075023
0.086577
0.070745
-0.051623
-0.035135
-0.066564
-0.077073
-0.065826
-0.027830
-0.012813
0.118907
0.107588
0.115007
0.108530
-0.103809
-0.095942
-0.118658
0.047625
0.045387
-0.000384
0.011792