# vtk DataFile Version 2.0
Test
ASCII
DATASET POLYDATA
POINTS 4020 float
0.000000 0.000000 0.000000
13.300000 0.000000 0.000000
15.000000 1.700000 0.000000
15.000000 50.000000 0.000000
0.000000 50.000000 0.000000
0.271429 0.000000 0.000000
0.542857 0.000000 0.000000
0.814286 0.000000 0.000000
1.085714 0.000000 0.000000
1.357143 0.000000 0.000000
1.628571 0.000000 0.000000
1.900000 0.000000 0.000000
2.171429 0.000000 0.000000
2.442857 0.000000 0.000000
2.714286 0.000000 0.000000
2.985714 0.000000 0.000000
3.257143 0.000000 0.000000
3.528571 0.000000 0.000000
3.800000 0.000000 0.000000
4.071429 0.000000 0.000000
4.342857 0.000000 0.000000
4.614286 0.000000 0.000000
4.885714 0.000000 0.000000
5.157143 0.000000 0.000000
5.428571 0.000000 0.000000
5.700000 0.000000 0.000000
5.971429 0.000000 0.000000
6.242857 0.000000 0.000000
6.514286 0.000000 0.000000
6.785714 0.000000 0.000000
7.057143 0.000000 0.000000
7.328571 0.000000 0.000000
7.600000 0.000000 0.000000
7.871429 0.000000 0.000000
8.142857 0.000000 0.000000
8.414286 0.000000 0.000000
8.685714 0.000000 0.000000
8.957143 0.000000 0.000000
9.228571 0.000000 0.000000
9.500000 0.000000 0.000000
9.771429 0.000000 0.000000
10.042857 0.000000 0.000000
10.314286 0.000000 0.000000
10.585714 0.000000 0.000000
10.857143 0.000000 0.000000
11.128571 0.000000 0.000000
11.400000 0.000000 0.000000
11.671429 0.000000 0.000000
11.942857 0.000000 0.000000
12.214286 0.000000 0.000000
12.485714 0.000000 0.000000
12.757143 0.000000 0.000000
13.028571 0.000000 0.000000
13.300873 0.054488 0.000000
13.303493 0.108919 0.000000
13.307856 0.163239 0.000000
13.313957 0.217391 0.000000
13.321791 0.271320 0.000000
13.331349 0.324970 0.000000
13.342623 0.378286 0.000000
13.355599 0.431213 0.000000
13.370265 0.483697 0.000000
13.386605 0.535684 0.000000
13.404604 0.587121 0.000000
13.424242 0.637954 0.000000
13.445499 0.688132 0.000000
13.468353 0.737602 0.000000
13.492781 0.786315 0.000000
13.518758 0.834220 0.000000
13.546257 0.881267 0.000000
13.575250 0.927409 0.000000
13.605707 0.972598 0.000000
13.637597 1.016788 0.000000
13.670886 1.059933 0.000000
13.705542 1.101988 0.000000
13.741527 1.142912 0.000000
13.778806 1.182660 0.000000
13.817340 1.221194 0.000000
13.857088 1.258473 0.000000
13.898012 1.294458 0.000000
13.940067 1.329114 0.000000
13.983212 1.362403 0.000000
14.027402 1.394293 0.000000
14.072591 1.424750 0.000000
14.118733 1.453743 0.000000
14.165780 1.481242 0.000000
14.213685 1.507219 0.000000
14.262398 1.531647 0.000000
14.311868 1.554501 0.000000
14.362046 1.575758 0.000000
14.412879 1.595396 0.000000
14.464316 1.613395 0.000000
14.516303 1.629735 0.000000
14.568787 1.644401 0.000000
14.621714 1.657377 0.000000
14.675030 1.668651 0.000000
14.728680 1.678209 0.000000
14.782609 1.686043 0.000000
14.836761 1.692144 0.000000
14.891081 1.696507 0.000000
14.945512 1.699127 0.000000
15.000000 2.187879 0.000000
15.000000 2.675758 0.000000
15.000000 3.163636 0.000000
15.000000 3.651515 0.000000
15.000000 4.139394 0.000000
15.000000 4.627273 0.000000
15.000000 5.115152 0.000000
15.000000 5.603030 0.000000
15.000000 6.090909 0.000000
15.000000 6.578788 0.000000
15.000000 7.066667 0.000000
15.000000 7.554545 0.000000
15.000000 8.042424 0.000000
15.000000 8.530303 0.000000
15.000000 9.018182 0.000000
15.000000 9.506061 0.000000
15.000000 9.993939 0.000000
15.000000 10.481818 0.000000
15.000000 10.969697 0.000000
15.000000 11.457576 0.000000
15.000000 11.945455 0.000000
15.000000 12.433333 0.000000
15.000000 12.921212 0.000000
15.000000 13.409091 0.000000
15.000000 13.896970 0.000000
15.000000 14.384848 0.000000
15.000000 14.872727 0.000000
15.000000 15.360606 0.000000
15.000000 15.848485 0.000000
15.000000 16.336364 0.000000
15.000000 16.824242 0.000000
15.000000 17.312121 0.000000
15.000000 17.800000 0.000000
15.000000 18.287879 0.000000
15.000000 18.775758 0.000000
15.000000 19.263636 0.000000
15.000000 19.751515 0.000000
15.000000 20.239394 0.000000
15.000000 20.727273 0.000000
15.000000 21.215152 0.000000
15.000000 21.703030 0.000000
15.000000 22.190909 0.000000
15.000000 22.678788 0.000000
15.000000 23.166667 0.000000
15.000000 23.654545 0.000000
15.000000 24.142424 0.000000
15.000000 24.630303 0.000000
15.000000 25.118182 0.000000
15.000000 25.606061 0.000000
15.000000 26.093939 0.000000
15.000000 26.581818 0.000000
15.000000 27.069697 0.000000
15.000000 27.557576 0.000000
15.000000 28.045455 0.000000
15.000000 28.533333 0.000000
15.000000 29.021212 0.000000
15.000000 29.509091 0.000000
15.000000 29.996970 0.000000
15.000000 30.484848 0.000000
15.000000 30.972727 0.000000
15.000000 31.460606 0.000000
15.000000 31.948485 0.000000
15.000000 32.436364 0.000000
15.000000 32.924242 0.000000
15.000000 33.412121 0.000000
15.000000 33.900000 0.000000
15.000000 34.387879 0.000000
15.000000 34.875758 0.000000
15.000000 35.363636 0.000000
15.000000 35.851515 0.000000
15.000000 36.339394 0.000000
15.000000 36.827273 0.000000
15.000000 37.315152 0.000000
15.000000 37.803030 0.000000
15.000000 38.290909 0.000000
15.000000 38.778788 0.000000
15.000000 39.266667 0.000000
15.000000 39.754545 0.000000
15.000000 40.242424 0.000000
15.000000 40.730303 0.000000
15.000000 41.218182 0.000000
15.000000 41.706061 0.000000
15.000000 42.193939 0.000000
15.000000 42.681818 0.000000
15.000000 43.169697 0.000000
15.000000 43.657576 0.000000
15.000000 44.145455 0.000000
15.000000 44.633333 0.000000
15.000000 45.121212 0.000000
15.000000 45.609091 0.000000
15.000000 46.096970 0.000000
15.000000 46.584848 0.000000
15.000000 47.072727 0.000000
15.000000 47.560606 0.000000
15.000000 48.048485 0.000000
15.000000 48.536364 0.000000
15.000000 49.024242 0.000000
15.000000 49.512121 0.000000
14.693878 50.000000 0.000000
14.387755 50.000000 0.000000
14.081633 50.000000 0.000000
13.775510 50.000000 0.000000
13.469388 50.000000 0.000000
13.163265 50.000000 0.000000
12.857143 50.000000 0.000000
12.551020 50.000000 0.000000
12.244898 50.000000 0.000000
11.938776 50.000000 0.000000
11.632653 50.000000 0.000000
11.326531 50.000000 0.000000
11.020408 50.000000 0.000000
10.714286 50.000000 0.000000
10.408163 50.000000 0.000000
10.102041 50.000000 0.000000
9.795918 50.000000 0.000000
9.489796 50.000000 0.000000
9.183673 50.000000 0.000000
8.877551 50.000000 0.000000
8.571429 50.000000 0.000000
8.265306 50.000000 0.000000
7.959184 50.000000 0.000000
7.653061 50.000000 0.000000
7.346939 50.000000 0.000000
7.040816 50.000000 0.000000
6.734694 50.000000 0.000000
6.428571 50.000000 0.000000
6.122449 50.000000 0.000000
5.816327 50.000000 0.000000
5.510204 50.000000 0.000000
5.204082 50.000000 0.000000
4.897959 50.000000 0.000000
4.591837 50.000000 0.000000
4.285714 50.000000 0.000000
3.979592 50.000000 0.000000
3.673469 50.000000 0.000000
3.367347 50.000000 0.000000
3.061224 50.000000 0.000000
2.755102 50.000000 0.000000
2.448980 50.000000 0.000000
2.142857 50.000000 0.000000
1.836735 50.000000 0.000000
1.530612 50.000000 0.000000
1.224490 50.000000 0.000000
0.918367 50.000000 0.000000
0.612245 50.000000 0.000000
0.306122 50.000000 0.000000
0.000000 49.494949 0.000000
0.000000 48.989899 0.000000
0.000000 48.484848 0.000000
0.000000 47.979798 0.000000
0.000000 47.474747 0.000000
0.000000 46.969697 0.000000
0.000000 46.464646 0.000000
0.000000 45.959596 0.000000
0.000000 45.454545 0.000000
0.000000 44.949495 0.000000
0.000000 44.444444 0.000000
0.000000 43.939394 0.000000
0.000000 43.434343 0.000000
0.000000 42.929293 0.000000
0.000000 42.424242 0.000000
0.000000 41.919192 0.000000
0.000000 41.414141 0.000000
0.000000 40.909091 0.000000
0.000000 40.404040 0.000000
0.000000 39.898990 0.000000
0.000000 39.393939 0.000000
0.000000 38.888889 0.000000
0.000000 38.383838 0.000000
0.000000 37.878788 0.000000
0.000000 37.373737 0.000000
0.000000 36.868687 0.000000
0.000000 36.363636 0.000000
0.000000 35.858586 0.000000
0.000000 35.353535 0.000000
0.000000 34.848485 0.000000
0.000000 34.343434 0.000000
0.000000 33.838384 0.000000
0.000000 33.333333 0.000000
0.000000 32.828283 0.000000
0.000000 32.323232 0.000000
0.000000 31.818182 0.000000
0.000000 31.313131 0.000000
0.000000 30.808081 0.000000
0.000000 30.303030 0.000000
0.000000 29.797980 0.000000
0.000000 29.292929 0.000000
0.000000 28.787879 0.000000
0.000000 28.282828 0.000000
0.000000 27.777778 0.000000
0.000000 27.272727 0.000000
0.000000 26.767677 0.000000
0.000000 26.262626 0.000000
0.000000 25.757576 0.000000
0.000000 25.252525 0.000000
0.000000 24.747475 0.000000
0.000000 24.242424 0.000000
0.000000 23.737374 0.000000
0.000000 23.232323 0.000000
0.000000 22.727273 0.000000
0.000000 22.222222 0.000000
0.000000 21.717172 0.000000
0.000000 21.212121 0.000000
0.000000 20.707071 0.000000
0.000000 20.202020 0.000000
0.000000 19.696970 0.000000
0.000000 19.191919 0.000000
0.000000 18.686869 0.000000
0.000000 18.181818 0.000000
0.000000 17.676768 0.000000
0.000000 17.171717 0.000000
0.000000 16.666667 0.000000
0.000000 16.161616 0.000000
0.000000 15.656566 0.000000
0.000000 15.151515 0.000000
0.000000 14.646465 0.000000
0.000000 14.141414 0.000000
0.000000 13.636364 0.000000
0.000000 13.131313 0.000000
0.000000 12.626263 0.000000
0.000000 12.121212 0.000000
0.000000 11.616162 0.000000
0.000000 11.111111 0.000000
0.000000 10.606061 0.000000
0.000000 10.101010 0.000000
0.000000 9.595960 0.000000
0.000000 9.090909 0.000000
0.000000 8.585859 0.000000
0.000000 8.080808 0.000000
0.000000 7.575758 0.000000
0.000000 7.070707 0.000000
0.000000 6.565657 0.000000
0.000000 6.060606 0.000000
0.000000 5.555556 0.000000
0.000000 5.050505 0.000000
0.000000 4.545455 0.000000
0.000000 4.040404 0.000000
0.000000 3.535354 0.000000
0.000000 3.030303 0.000000
0.000000 2.525253 0.000000
0.000000 2.020202 0.000000
0.000000 1.515152 0.000000
0.000000 1.010101 0.000000
0.000000 0.505051 0.000000
14.512121 31.460606 0.000000
14.512121 8.042424 0.000000
14.512121 17.312121 0.000000
14.512121 21.215152 0.000000
14.512121 23.654545 0.000000
14.512121 26.093939 0.000000
14.512121 14.384848 0.000000
[...]
POINT_DATA 4020
SCALARS UX float 1
LOOKUP_TABLE default
-68.391775
168.695361
0.000000
0.000000
6.665010
-69.796640
-71.106022
-72.387546
-73.936449
-75.582134
-77.610092
-80.015535
-82.926381
-86.456943
-90.743844
-95.843095
-101.950372
-109.554855
-117.343250
-125.051081
-136.264595
-122.905545
-107.922644
-107.941086
-107.991185
-108.036960
-108.093100
-108.144856
-108.180926
-108.244519
-108.351899
-108.455869
-108.575463
-108.724137
-108.870310
-109.048436
-109.224119
-109.456823
-109.634694
-109.816566
-110.143025
-110.483214
-110.831276
-111.644725
-117.270927
-122.486713
-112.416151
-136.605303
-168.235635
-188.301306
-177.753368
-157.644052
-79.497096
71.696794
-100.384444
-36.460265
-56.226011
-50.110005
-80.114714
-63.921787
-42.270035
-25.281359
-6.554564
14.176255
44.137941
0.059288
-12.719158
-23.561554
-31.953638
-33.281870
-53.903476
-54.785946
-38.686752
-62.967608
-70.023997
-84.160942
-58.627518
-43.989139
-53.051738
-60.732168
-70.072310
-57.996657
-54.808002
-51.448826
-43.190014
-39.976469
-46.801763
-46.541634
-42.901433
-39.063028
-35.542842
-31.752723
-27.556292
-24.154548
-19.389924
-16.483455
-13.523139
-10.548377
-7.659306
-4.809903
-2.079235
0.000000
0.000000
0.000000
0.000000
0.000000
0.000000
0.000000
0.000000
0.000000
0.000000
0.000000
0.000000
0.000000
0.000000
0.000000
0.000000
0.000000
0.000000
0.000000
0.000000
0.000000
0.000000
0.000000
0.000000
0.000000
0.000000
0.000000
0.000000
0.000000
0.000000
0.000000
0.000000
0.000000
0.000000
0.000000
0.000000
0.000000
0.000000
0.000000
0.000000
0.000000
0.000000
0.000000
0.000000
0.000000
0.000000
0.000000
0.000000
0.000000
0.000000
0.000000
0.000000
0.000000
0.000000
0.000000
0.000000
0.000000
0.000000
0.000000
0.000000
0.000000
0.000000
0.000000
0.000000
0.000000
0.000000
0.000000
0.000000
0.000000
0.000000
0.000000
0.000000
0.000000
0.000000
0.000000
0.000000
0.000000
0.000000
0.000000
0.000000
0.000000
0.000000
0.000000
0.000000
0.000000
0.000000
0.000000
0.000000
0.000000
0.000000
0.000000
0.000000
0.000000
0.000000
0.000000
0.000000
0.000000
0.000000
0.139501
0.279135
0.418852
0.558370
0.697855
0.837437
0.976964
1.116372
1.255850
1.395253
1.534530
1.673776
1.812983
1.952068
2.090952
2.229766
2.368405
2.507022
2.645477
2.783609
2.921578
3.059364
3.196950
3.334327
3.471354
3.608188
3.744691
3.880912
4.016748
4.152280
4.287532
4.422327
4.556848
4.690920
4.824695
4.957989
5.090996
5.223530
5.355774
5.487645
5.619208
5.750534
5.881581
6.012370
6.143015
6.273539
6.404018
6.534500
6.625944
6.587150
6.548933
6.511284
6.474167
6.437240
6.400253
6.363287
6.325867
6.287763
6.248681
6.207823
6.165213
6.120998
6.074770
6.025916
5.972622
5.917972
5.857980
5.795148
5.728964
5.654822
5.577554
5.495180
5.406030
5.312851
5.208555
5.099678
4.983648
4.859317
4.726284
4.584775
4.435387
4.276516
4.107782
3.927712
3.739929
3.537719
3.325460
3.104706
2.871441
2.626734
2.371697
2.102719
1.825932
1.541857
1.244632
0.937435
0.621140
0.297688
-0.033728
-0.374473
-0.718858
-1.062850
-1.403644
-1.751303
-2.090667
-2.438215
-2.751187
-3.057292
-3.359491
-3.629763
-3.885434
-4.099811
-4.262851
-4.408162
-4.491323
-4.559098
-4.500797
-4.401943
-4.241464
-4.011405
-3.710749
-3.258743
-2.761609
-2.173199
-1.492333
-0.786473
-0.024094
0.746659
1.391515
1.989723
2.409129
2.562897
2.398395
1.735942
0.384563
-1.605572
-4.295872
-8.705570
-13.830812
-20.342333
-28.060416
-36.815584
-45.574099
-54.099360
-61.648820
-66.402964
0.007296
-1.441218
-1.053879
-0.609513
-0.400239
-0.234884
-1.505953
-0.106505
0.074718
0.122085
0.165159
0.184827
-2.433439
1.745368
3.879977
0.935655
-0.753102
-3.948215
2.615162
5.910920
5.648386
5.285357
4.769471
-5.160208
-5.169488
-3.206292
-104.697829
-103.960629
2.904262
3.859193
-74.162111
-105.455661
0.197654
2.216203
6.112906
-4.157364
-125.747287
11.329924
-89.577234
-27.384884
5.331194
4.667000
-56.676038
-99.330263
1.525019
0.207621
-20.438548
6.296376
17.184538
-29.098012
-51.419890
-82.019620
-3.133987
-39.761004
-74.928119
0.970748
5.988665
-48.100010
-74.913158
-2.208260
0.217603
0.558028
-1.010275
0.143568
-2.040861
-0.871449
-104.337296
3.451339
-133.986949
4.789598
6.036715
5.815868
5.518181
5.099818
-4.536676
2.042057
2.098404
4.508342
-5.360239
-4.678656
3.501761
0.287603
-2.935904
0.095746
0.036915
-1.796822
-0.519072
-0.328224
-0.178542
-1.342044
-0.063959
-2.363713
-103.795584
-105.566644
4.398976
-118.916134
-32.523861
5.738344
-60.931982
-21.665185
0.178093
6.380239
-37.389991
-52.133063
-12.430854
-63.586114
-71.919634
18.749852
-5.760467
-52.974561
16.525204
-107.641847
-27.981999
-113.924871
6.390803
6.263936
-7.946667
6.227424
0.203284
0.209830
0.304988
6.196957
2.410934
0.193541
0.603224
5.996235
5.763777
5.447014
-1.115861
4.213579
-0.050541
0.516637
3.297829
3.083744
1.823500
1.539690
-3.289789
-4.783497
-1.478727
-5.384106
-4.295194
-2.529994
4.998689
0.128743
0.154917
0.177704
0.169433
-0.026102
-0.479820
-1.192507
-0.814334
-0.708495
-2.444586
-1.733428
0.187752
0.049100
-0.297179
-0.153778
-2.309457
-0.991578
0.104376
3.178236
2.766990
2.629485
3.723533
2.492877
-104.546232
-104.990637
-104.221359
4.129745
-104.052014
2.083028
1.939978
-105.232079
1.801736
-98.156979
5.199007
4.933649
-103.609363
-93.807342
-111.875392
1.248092
-79.045022
-88.396273
-15.071027
5.594762
0.832204
0.428109
-67.782899
-57.803868
-6.653572
-45.378452
-35.537529
6.249659
-36.434387
-39.651981
-52.003281
28.421969
-46.917265
-52.730777
0.297481
0.161905
6.501111
-70.381905
-68.910764
0.369300
0.243831
0.073756
-1.036906
-1.623302
-0.656439
-4.881019
-0.305386
-3.573110
5.307432
4.886977
3.264359
-1.509147
-3.429903
1.826572
-5.171298
-4.261044
-6.158558
-99.085005
2.891712
3.841277
4.470264
32.733542
-95.491574
5.826664
-143.408321
2.207339
-7.401365
-101.141447
31.961267
26.224436
-86.867947
5.311538
0.410542
6.017039
-42.885638
-79.063176
0.971396
-98.920518
-19.601629
-4.746092
1.933085
10.119706
-29.686849
-55.000839
-155.990279
6.088377
-56.321402
-101.949156
6.349894
14.187936
0.200841
-38.280732
-40.255899
0.204112
-13.982362
0.200737
6.153683
7.615577
-1.416612
-16.157403
0.197761
6.076911
1.365007
0.194074
-119.540774
0.580114
-70.269353
0.189617
5.954239
2.034879
-0.531043
5.864559
1.543642
3.056060
5.708731
5.585865
5.367809
5.195134
4.886304
-3.616180
1.218555
4.051674
-1.839412
2.362683
-4.248043
-0.181259
1.242541
-0.396617
2.853601
0.616623
-2.570069
3.695605
-1.810054
4.364875
4.643277
-5.273868
-5.297823
-4.969323
-3.794426
-4.976775
0.085142
0.136489
0.022107
0.062630
-0.009216
0.113497
-0.045710
0.159902
0.181287
-1.939706
-1.277455
-1.605609
-0.207920
-0.367949
-1.431426
-1.132188
-0.930199
-0.765135
-0.569410
0.173851
0.149225
-0.266198
-0.659795
-0.130422
-2.168351
-0.084103
-0.440812
-2.471306
-2.017870
-111.408433
3.038347
3.312882
3.583786
-104.398638
-103.973698
-104.273964
2.352013
3.990040
-103.105237
2.753536
-105.056278
2.617131
4.267978
-99.037819
-102.198469
-96.486436
4.528658
4.797352
5.063356
-119.847424
-105.031066
1.659504
1.108332
1.390505
5.453077
-84.660440
0.689692
5.860031
-76.685803
-68.678134
-13.138071
-73.130338
6.105999
6.395236
-68.626003
-37.474946
-51.594767
3.922053
-32.120551
-55.822822
0.440933
-17.824920
-1.084911
-8.679239
10.707615
-42.649301
-24.616736
-51.128248
32.429604
-15.252299
-67.243309
1.253826
0.330400
-2.372897
4.144991
3.026462
1.556140
-90.129951
2.880854
46.293482
0.385843
-57.617999
4.636508
-127.829155
-25.257099
0.296595
5.653108
-0.050813
5.667239
-39.115128
-54.838563
0.286792
0.149853
-2.984843
1.518696
3.433221
-9.738818
2.284842
-59.760127
26.196420
0.402016
5.949564
5.869796
-32.272888
-1.317489
0.392416
0.275138
-1.291449
2.602042
3.824146
-0.755625
5.157443
4.672139
-4.165000
-2.269920
-6.185268
-5.907563
-5.676974
-0.127661
-1.216380
-4.049325
-0.799690
0.259673
0.099996
-3.392635
-116.915605
-99.178256
4.377950
3.699876
2.474404
-98.433988
1.782649
4.895248
-96.704366
-99.056111
5.947293
6.156188
6.199536
-89.323184
-82.610120
0.846601
5.419325
-65.705497
76.532466
-11.668680
-143.916369
30.838906
-72.017409
9.447196
0.368209
0.594234
0.415360
6.059868
-36.323383
0.397702
5.988655
-3.820789
14.873116
9.078951
1.154528
-3.060273
0.378530
6.230983
1.022015
-27.496917
5.752353
5.790422
-17.762846
0.375719
-1.129071
5.375479
5.497839
4.983875
2.099012
-3.043620
3.463206
-4.856407
-6.044669
-4.837636
5.234893
4.783015
-3.801512
-1.887338
2.835003
-5.437436
-6.197192
-2.870024
-3.618966
0.943702
1.249973
4.425402
-1.737726
-0.356436
-0.468883
-4.675167
0.310055
0.191500
0.227701
-2.671609
0.355445
0.363086
-1.413342
-0.212383
-0.591721
-4.528668
-0.955460
0.015917
-2.097854
0.339409
-1.970112
0.045878
-1.127168
-0.727156
-3.806652
-4.903298
-1.516365
-0.257649
-98.146438
-121.088526
-92.887609
-98.242342
3.154524
-99.199592
5.169551
2.744117
4.100536
1.230520
-113.164937
-76.072958
-97.778058
2.069960
-98.149575
3.018743
2.341085
-98.445895
-19.464540
3.966876
-95.679789
-90.861762
-96.210530
2.839896
1.096892
-2.346254
-80.768929
0.250290
-46.749186
0.715798
-47.310154
-46.234839
-33.018649
-27.814716
-57.176627
20.864859
-53.833294
0.553719
-7.245624
-0.881372
-1.423254
-2.920522
0.367687
-5.262008
5.164211
0.112941
-0.311457
-4.075943
-5.433318
-6.772111
4.769804
-1.495151
2.872349
5.586688
11.401561
-91.606468
-3.430594
4.100392
-83.840599
-83.114223
-74.295356
1.904615
5.794405
0.604145
5.289785
-35.088945
1.311923
-78.269674
-73.415641
0.510149
5.893771
-4.302100
-2.414640
-67.962327
45.030458
-92.947417
-13.210754
-111.100077
5.554043
1.833405
3.227200
5.022868
-0.043647
-5.638596
-0.452441
-1.188945
3.821816
2.190544
21.215620
-61.598002
-83.053376
-25.921801
5.970567
-14.106469
45.040527
35.993321
-62.748323
0.968043
-48.189293
0.798872
-46.783581
-31.262164
-56.264296
-101.761101
0.576312
5.911537
0.372035
-68.226446
-30.435474
0.389150
5.289597
0.154561
5.710030
0.382313
21.011533
-26.494679
5.608037
-1.324467
0.396627
5.667503
0.882054
0.565478
-4.100980
5.438918
-0.422559
1.259024
3.989347
-3.498234
-2.083415
4.288513
0.625767
-6.076117
-5.294576
-0.395025
-4.774846
-5.891167
5.072748
4.551485
3.648067
2.355792
-5.875053
-2.652260
-4.510464
4.567961
-2.287589
2.588799
2.813568
0.964121
1.266088
-7.007830
-6.079058
0.534334
-1.547501
-0.979576
0.299037
0.171082
-4.281601
-0.167713
-0.877847
-1.314349
-2.848915
-0.529501
-1.853271
0.348057
0.320786
-0.016392
-0.087977
-2.241954
-2.529298
-6.974937
-0.410331
0.273753
0.126498
-3.179640
-1.807964
0.209907
-2.095607
0.026418
-5.898824
3.160684
-76.803204
0.410293
-96.104520
-98.417528
-66.763587
2.611842
3.285940
-92.953926
4.222553
1.369025
-96.269041
-98.649124
-88.194707
3.030710
6.073552
-94.303860
5.028878
3.565417
4.506975
-117.506561
1.649502
-92.164390
2.478116
4.761663
-87.409985
-42.411576
-10.036333
-73.854073
-79.350798
5.791142
-56.354770
-77.237504
-56.496559
-44.026956
-14.062287
5.535600
-56.247445
-23.011582
-13.135614
38.178769
-60.774621
0.140949
-1.154819
-1.868930
-5.405942
1.573412
2.994686
12.270440
58.442036
-125.825502
-91.100822
-61.806878
-33.242851
-37.368127
-22.567490
-59.739303
-68.786973
0.917249
3.922201
4.583204
-0.019810
0.466487
-3.519285
0.226413
-4.424247
-58.694490
-10.861813
0.581991
5.707582
5.516024
-0.284231
5.398449
-2.582209
-1.700085
2.352004
-5.062023
-3.089037
-6.579663
0.651727
4.859910
-6.980094
4.205237
4.456055
2.573685
0.992576
0.431036
-22.422789
0.496563
-3.125824
0.288617
0.343247
-4.966660
0.153997
-2.577824
-0.072448
-0.695146
-6.171508
0.568948
0.591029
-68.781120
4.861075
-54.606558
-26.540475
3.397862
-87.941784
-61.088110
-87.403786
46.095050
5.821579
1.472846
-7.489001
-9.022894
-70.293132
5.627242
-44.542882
5.910600
0.587793
27.337890
5.892748
5.435696
16.865428
5.749792
5.550970
-19.352546
0.575995
0.558994
34.523147
-1.434936
0.766405
5.623511
-6.201819
-6.928502
5.231333
-0.318827
2.096819
-4.694290
-2.688497
-6.351677
5.345901
3.595727
4.944702
-7.021687
-6.299502
3.416141
5.095801
-1.109093
0.230764
-0.371259
-3.314586
0.560251
-5.384087
-6.912625
-6.838608
4.671769
-1.887040
-5.766217
-3.897883
-7.191706
0.545208
-0.530440
-3.956335
-1.678611
-1.081429
-2.259988
-5.611272
0.071509
-0.383449
-0.185741
0.390981
0.523068
-2.758503
-0.784461
-1.302173
-0.021198
-0.248499
-1.953495
-6.570449
-170.695726
-105.586876
3.662087
2.731013
0.593961
-90.289820
5.141097
2.344688
-91.482724
-57.936509
-84.125564
-75.885174
3.958537
2.038532
-81.395566
-71.305261
-85.727498
1.754751
1.152967
-74.479902
-62.250989
2.997638
2.441782
4.204431
-55.392259
-52.987252
-90.679571
6.038435
-90.016638
3.272366
-59.500248
-1.273698
-88.725463
4.325947
-79.947332
46.514126
-79.860571
-61.710964
5.851689
-18.442517
11.383900
-51.416484
-5.860517
-105.580186
-32.281915
0.747183
0.681774
-6.823991
0.493240
-3.175419
-1.411580
-7.657682
-8.404413
5.191435
-0.406268
0.040981
4.884132
4.239354
-1.452185
-3.513592
-5.597673
2.853813
5.388920
-3.240091
4.359490
-78.912151
0.759495
5.601974
57.207889
-65.285374
5.267676
0.787278
1.895057
-85.179650
3.802157
-78.010183
5.730288
-7.844360
-7.333981
-2.388814
-3.849168
-41.782018
-66.185170
-84.177380
95.939975
-64.939274
-74.899634
-17.721905
-1.011732
-0.355091
41.350370
-4.715360
-7.246536
-0.687163
4.731835
0.758746
-2.255594
-4.353538
-9.350315
-8.391879
0.155916
-0.594026
0.713540
-1.571895
-8.988095
5.776599
-103.468304
-62.666208
-125.298973
0.783716
0.585074
22.028449
-25.056995
5.559736
5.345051
5.518405
-119.597825
0.570595
5.017639
5.445280
49.698059
1.082080
-60.364677
5.019026
5.467628
0.756081
0.326125
-63.460544
1.847929
2.345063
-0.952191
-2.518902
-4.828288
-6.605777
0.319474
3.188601
3.763226
-0.735232
4.335088
5.288565
4.069016
-7.563508
2.789632
1.289519
-6.568518
-6.024765
-5.985787
4.646847
4.555543
4.457418
0.738215
-7.857540
-6.349184
-3.083963
-5.187866
0.365882
0.685438
-6.977093
-11.205395
-2.041993
-1.291947
0.411627
-4.205286
-0.127218
0.751597
-0.608687
0.449558
-2.764412
0.316267
-3.741011
0.482070
-3.324949
0.257892
-4.695054
0.191580
-3.389844
-8.805963
-1.029987
-0.238366
-0.089705
-1.716122
-29.048300
-86.580484
-45.472931
-52.367553
-162.087106
-84.109884
-13.536590
3.525117
2.579873
4.989043
4.073372
5.753588
-44.862394
-6.184962
2.155518
-80.391627
-64.520465
-64.512471
-61.047216
62.812691
4.713500
-12.071884
1.612522
3.128908
4.449844
-60.715595
-23.873113
2.300425
-47.360981
3.418649
57.269448
-53.564276
5.809875
-10.216187
-57.244356
-79.725447
-83.666181
-68.724877
-68.167984
45.221408
5.640368
-84.623504
-77.172743
-4.844243
0.934175
-10.452048
-2.304143
-3.891982
-1.420756
4.519441
-8.654485
1.595229
2.959302
-6.300582
-6.085324
-3.893524
5.160047
4.066304
54.685751
-60.748833
192.493629
-118.596330
2.123794
-14.659040
5.403336
0.956746
-56.186537
66.712003
-71.179323
-33.202318
-40.076613
1.077007
3.848016
0.387977
0.623787
-4.622695
-5.780090
-72.123870
4.838564
-4.724788
1.425323
-1.068458
-6.874080
5.078472
-2.518911
2.106184
0.767764
4.118840
-7.749025
0.029264
-7.379871
4.342048
5.239178
1.030885
-61.442983
0.577154
0.460699
0.663854
-4.105942
0.304940
-6.411501
-53.526869
-80.520912
2.405867
5.114070
3.670885
-7.287347
-63.837865
-64.885035
22.459754
-66.436446
-64.360213
1.271440
87.406973
0.736489
-62.510408
-1.627080
73.322124
-53.248351
-0.921561
-4.214489
5.137924
5.723642
0.778477
-31.347257
-1.899023
-7.491302
5.423891
-9.250418
-1.054230
-7.588575
-0.326164
4.810299
4.952518
0.778137
3.540320
3.368804
5.290106
-9.139060
0.727403
0.742209
-8.026794
2.763877
-1.849590
-3.934676
-3.986847
-6.507586
2.103953
4.351785
-6.994751
-6.673155
-2.663498
-4.765255
-7.768206
0.413639
2.556597
32.521620
-5.183710
-0.697328
5.512624
-0.320772
-1.424279
0.099568
-3.636845
-7.194191
-2.968603
-2.213997
-0.023477
-0.499499
0.698217
0.523338
0.209898
5.647690
-65.530494
-0.914536
-2.569425
-1.923797
-0.162987
-111.980684
1.740504
0.899051
-83.347470
70.196696
2.702027
-58.752265
-53.620592
-69.920418
9.513000
-81.361442
-7.152236
3.275489
4.206579
-75.132594
5.386622
2.026419
-86.883410
3.938912
-62.532087
-17.334878
-74.055738
4.541617
-51.701337
3.152634
3.001618
-64.334620
-64.523988
-82.333567
-2.948445
3.561730
-82.823872
38.838819
88.275008
5.670119
-19.501701
-57.377820
-67.115344
-112.408768
-3.082953
4.928836
0.854137
0.620706
-8.177506
-0.286928
0.202864
-1.368668
2.734873
-6.552746
3.150765
109.499264
-72.786673
-76.760671
-0.724826
3.754014
0.930821
5.243361
40.952737
-9.079944
-4.734458
-2.952001
-80.016527
33.077323
-38.148770
-9.759116
-47.038784
-1.925736
0.957278
0.960093
-11.073420
-3.976357
-5.678195
5.317668
-5.224933
-2.185849
-4.338396
-0.258083
5.532465
4.808250
-0.102770
-2.513412
-1.583356
2.837917
4.058157
4.376030
-64.714316
-9.612677
-36.383576
1.853562
3.395416
-72.264816
-94.026862
43.139072
5.099899
-22.938532
1.242323
-65.767851
11.668476
-134.976456
1.060271
-2.868465
-48.024329
-67.594329
-137.096054
5.034026
-49.387679
0.965844
0.944105
5.374312
3.315458
5.270944
5.186930
1.861302
-3.218016
-5.663633
0.088141
4.672595
3.986827
-8.534314
-11.093467
3.141802
0.933000
-6.878331
4.433696
4.598381
0.747773
-9.523110
1.319340
0.923601
0.909336
-10.743379
4.137513
3.900889
-7.246454
-7.812491
-8.397948
-8.558073
-8.675339
-3.025300
-3.457328
2.538329
4.243208
-6.880298
2.338618
0.729787
3.698835
-8.159631
3.746872
-0.620603
-1.998996
0.060109
0.551198
-4.179577
-5.489724
0.258813
-9.895407
-0.802800
-2.121347
-9.109128
0.601424
0.425315
0.874120
-0.492073
-4.892017
0.644598
-4.359176
0.347665
-2.076961
-6.121278
-3.642896
-1.118324
-1.268413
-1.755062
-180.124768
-3.405493
-79.183912
88.690216
5.478129
-56.470156
4.684893
-55.365922
2.542020
99.378273
-116.134668
1.580872
-21.428981
-71.153522
2.251688
-49.021805
4.960787
-65.695268
-66.219065
-73.141850
-41.441732
0.711365
76.745994
-57.887466
-65.497018
3.287706
0.163330
5.609431
-6.818430
26.523407
1.985624
3.490184
2.432246
4.882110
-12.569026
1.051491
-11.182811
-1.667057
-2.719947
1.128351
4.221623
-9.398944
-6.302738
1.619169
0.474985
-7.601651
-3.991920
-4.711252
2.516567
-2.298679
5.125829
-91.261593
-9.228220
5.303514
1.135718
-38.164753
1.814300
4.810528
0.782637
1.237328
-9.508844
-0.531901
-9.083704
0.387042
2.393952
-26.884380
-128.834372
1.102192
45.917363
76.677985
-7.882922
-3.805894
4.030374
-7.033646
-4.585107
0.724858
-2.266936
0.490028
0.832341
0.269050
-5.647930
-0.850158
-3.996279
-113.739713
2.682295
-67.397297
5.083544
-60.270163
-71.071998
0.954441
0.948162
4.961864
5.396323
51.420121
-43.701748
3.327145
-42.351970
95.744633
4.225692
-36.923582
-27.752523
21.133780
5.188830
-2.619258
-6.308986
0.952042
4.983008
5.548103
25.291479
-10.529614
1.417715
-3.558697
5.226230
2.107686
-6.085178
-27.601918
-7.590974
4.741143
2.923375
-1.774419
-4.783406
3.768662
3.475846
4.869364
-18.718343
-8.478249
4.387265
5.461275
-5.046146
-4.452594
-10.689215
1.353808
4.024135
-8.129074
2.330058
-8.659471
1.122308
1.108676
-8.346865
-0.985994
-2.597358
-7.392043
-6.973506
-0.178707
1.075200
-12.340200
-11.918653
0.892542
-5.039878
-8.550866
-0.021018
-3.169067
0.657904
-1.315600
-4.463149
-0.193368
-2.718438
-0.606361
0.580024
-7.762259
0.131614
-0.985023
-1.855735
-0.388731
-42.097790
-75.963019
-70.129556
-44.981965
-97.011045
2.980943
142.758585
-87.596477
4.513518
-46.254186
2.111148
-66.080596
3.883018
1.717459
-77.986300
3.606036
-75.942953
0.891313
-77.038823
-50.293543
-74.162584
-11.581873
-62.818481
-0.575237
0.751010
-0.326827
1.316332
-13.347806
4.745382
-11.878937
-1.888999
0.254778
1.390971
-6.490553
-0.774446
3.117592
23.285696
-69.488442
-13.539792
4.996588
4.029939
4.721067
-2.080686
2.702481
-9.353160
56.444122
-162.439417
5.220583
-6.210428
-8.492974
-63.133841
-5.561221
-0.845523
1.405099
-78.074565
-33.234504
5.291961
-8.822958
4.598724
4.342318
-9.544991
-5.167685
4.461997
-9.432444
3.809717
2.108128
-7.417030
-36.674121
1.073586
-0.109574
-4.911340
-10.152865
-1.148381
-3.461864
2.821430
3.735929
-23.124104
1.670639
-4.409596
1.122723
1.235095
-76.683482
1.128642
-50.523686
-178.522028
35.788619
-132.877842
2.275141
1.142614
-2.584721
-4.092535
4.827280
1.135745