# vtk DataFile Version 2.0
Test
ASCII
DATASET POLYDATA
POINTS 4020 float
0.000000 0.000000 0.000000
13.300000 0.000000 0.000000
15.000000 1.700000 0.000000
15.000000 50.000000 0.000000
0.000000 50.000000 0.000000
0.271429 0.000000 0.000000
0.542857 0.000000 0.000000
0.814286 0.000000 0.000000
1.085714 0.000000 0.000000
1.357143 0.000000 0.000000
1.628571 0.000000 0.000000
1.900000 0.000000 0.000000
2.171429 0.000000 0.000000
2.442857 0.000000 0.000000
2.714286 0.000000 0.000000
2.985714 0.000000 0.000000
3.257143 0.000000 0.000000
3.528571 0.000000 0.000000
3.800000 0.000000 0.000000
4.071429 0.000000 0.000000
4.342857 0.000000 0.000000
4.614286 0.000000 0.000000
4.885714 0.000000 0.000000
5.157143 0.000000 0.000000
5.428571 0.000000 0.000000
5.700000 0.000000 0.000000
5.971429 0.000000 0.000000
6.242857 0.000000 0.000000
6.514286 0.000000 0.000000
6.785714 0.000000 0.000000
7.057143 0.000000 0.000000
7.328571 0.000000 0.000000
7.600000 0.000000 0.000000
7.871429 0.000000 0.000000
8.142857 0.000000 0.000000
8.414286 0.000000 0.000000
8.685714 0.000000 0.000000
8.957143 0.000000 0.000000
9.228571 0.000000 0.000000
9.500000 0.000000 0.000000
9.771429 0.000000 0.000000
10.042857 0.000000 0.000000
10.314286 0.000000 0.000000
10.585714 0.000000 0.000000
10.857143 0.000000 0.000000
11.128571 0.000000 0.000000
11.400000 0.000000 0.000000
11.671429 0.000000 0.000000
11.942857 0.000000 0.000000
12.214286 0.000000 0.000000
12.485714 0.000000 0.000000
12.757143 0.000000 0.000000
13.028571 0.000000 0.000000
13.300873 0.054488 0.000000
13.303493 0.108919 0.000000
13.307856 0.163239 0.000000
13.313957 0.217391 0.000000
13.321791 0.271320 0.000000
13.331349 0.324970 0.000000
13.342623 0.378286 0.000000
13.355599 0.431213 0.000000
13.370265 0.483697 0.000000
13.386605 0.535684 0.000000
13.404604 0.587121 0.000000
13.424242 0.637954 0.000000
13.445499 0.688132 0.000000
13.468353 0.737602 0.000000
13.492781 0.786315 0.000000
13.518758 0.834220 0.000000
13.546257 0.881267 0.000000
13.575250 0.927409 0.000000
13.605707 0.972598 0.000000
13.637597 1.016788 0.000000
13.670886 1.059933 0.000000
13.705542 1.101988 0.000000
13.741527 1.142912 0.000000
13.778806 1.182660 0.000000
13.817340 1.221194 0.000000
13.857088 1.258473 0.000000
13.898012 1.294458 0.000000
13.940067 1.329114 0.000000
13.983212 1.362403 0.000000
14.027402 1.394293 0.000000
14.072591 1.424750 0.000000
14.118733 1.453743 0.000000
14.165780 1.481242 0.000000
14.213685 1.507219 0.000000
14.262398 1.531647 0.000000
14.311868 1.554501 0.000000
14.362046 1.575758 0.000000
14.412879 1.595396 0.000000
14.464316 1.613395 0.000000
14.516303 1.629735 0.000000
14.568787 1.644401 0.000000
14.621714 1.657377 0.000000
14.675030 1.668651 0.000000
14.728680 1.678209 0.000000
14.782609 1.686043 0.000000
14.836761 1.692144 0.000000
14.891081 1.696507 0.000000
14.945512 1.699127 0.000000
15.000000 2.187879 0.000000
15.000000 2.675758 0.000000
15.000000 3.163636 0.000000
15.000000 3.651515 0.000000
15.000000 4.139394 0.000000
15.000000 4.627273 0.000000
15.000000 5.115152 0.000000
15.000000 5.603030 0.000000
15.000000 6.090909 0.000000
15.000000 6.578788 0.000000
15.000000 7.066667 0.000000
15.000000 7.554545 0.000000
15.000000 8.042424 0.000000
15.000000 8.530303 0.000000
15.000000 9.018182 0.000000
15.000000 9.506061 0.000000
15.000000 9.993939 0.000000
15.000000 10.481818 0.000000
15.000000 10.969697 0.000000
15.000000 11.457576 0.000000
15.000000 11.945455 0.000000
15.000000 12.433333 0.000000
15.000000 12.921212 0.000000
15.000000 13.409091 0.000000
15.000000 13.896970 0.000000
15.000000 14.384848 0.000000
15.000000 14.872727 0.000000
15.000000 15.360606 0.000000
15.000000 15.848485 0.000000
15.000000 16.336364 0.000000
15.000000 16.824242 0.000000
15.000000 17.312121 0.000000
15.000000 17.800000 0.000000
15.000000 18.287879 0.000000
15.000000 18.775758 0.000000
15.000000 19.263636 0.000000
15.000000 19.751515 0.000000
15.000000 20.239394 0.000000
15.000000 20.727273 0.000000
15.000000 21.215152 0.000000
15.000000 21.703030 0.000000
15.000000 22.190909 0.000000
15.000000 22.678788 0.000000
15.000000 23.166667 0.000000
15.000000 23.654545 0.000000
15.000000 24.142424 0.000000
15.000000 24.630303 0.000000
15.000000 25.118182 0.000000
15.000000 25.606061 0.000000
15.000000 26.093939 0.000000
15.000000 26.581818 0.000000
15.000000 27.069697 0.000000
15.000000 27.557576 0.000000
15.000000 28.045455 0.000000
15.000000 28.533333 0.000000
15.000000 29.021212 0.000000
15.000000 29.509091 0.000000
15.000000 29.996970 0.000000
15.000000 30.484848 0.000000
15.000000 30.972727 0.000000
15.000000 31.460606 0.000000
15.000000 31.948485 0.000000
15.000000 32.436364 0.000000
15.000000 32.924242 0.000000
15.000000 33.412121 0.000000
15.000000 33.900000 0.000000
15.000000 34.387879 0.000000
15.000000 34.875758 0.000000
15.000000 35.363636 0.000000
15.000000 35.851515 0.000000
15.000000 36.339394 0.000000
15.000000 36.827273 0.000000
15.000000 37.315152 0.000000
15.000000 37.803030 0.000000
15.000000 38.290909 0.000000
15.000000 38.778788 0.000000
15.000000 39.266667 0.000000
15.000000 39.754545 0.000000
15.000000 40.242424 0.000000
15.000000 40.730303 0.000000
15.000000 41.218182 0.000000
15.000000 41.706061 0.000000
15.000000 42.193939 0.000000
15.000000 42.681818 0.000000
15.000000 43.169697 0.000000
15.000000 43.657576 0.000000
15.000000 44.145455 0.000000
15.000000 44.633333 0.000000
15.000000 45.121212 0.000000
15.000000 45.609091 0.000000
15.000000 46.096970 0.000000
15.000000 46.584848 0.000000
15.000000 47.072727 0.000000
15.000000 47.560606 0.000000
15.000000 48.048485 0.000000
15.000000 48.536364 0.000000
15.000000 49.024242 0.000000
15.000000 49.512121 0.000000
14.693878 50.000000 0.000000
14.387755 50.000000 0.000000
14.081633 50.000000 0.000000
13.775510 50.000000 0.000000
13.469388 50.000000 0.000000
13.163265 50.000000 0.000000
12.857143 50.000000 0.000000
12.551020 50.000000 0.000000
12.244898 50.000000 0.000000
11.938776 50.000000 0.000000
11.632653 50.000000 0.000000
11.326531 50.000000 0.000000
11.020408 50.000000 0.000000
10.714286 50.000000 0.000000
10.408163 50.000000 0.000000
10.102041 50.000000 0.000000
9.795918 50.000000 0.000000
9.489796 50.000000 0.000000
9.183673 50.000000 0.000000
8.877551 50.000000 0.000000
8.571429 50.000000 0.000000
8.265306 50.000000 0.000000
7.959184 50.000000 0.000000
7.653061 50.000000 0.000000
7.346939 50.000000 0.000000
7.040816 50.000000 0.000000
6.734694 50.000000 0.000000
6.428571 50.000000 0.000000
6.122449 50.000000 0.000000
5.816327 50.000000 0.000000
5.510204 50.000000 0.000000
5.204082 50.000000 0.000000
4.897959 50.000000 0.000000
4.591837 50.000000 0.000000
4.285714 50.000000 0.000000
3.979592 50.000000 0.000000
3.673469 50.000000 0.000000
3.367347 50.000000 0.000000
3.061224 50.000000 0.000000
2.755102 50.000000 0.000000
2.448980 50.000000 0.000000
2.142857 50.000000 0.000000
1.836735 50.000000 0.000000
1.530612 50.000000 0.000000
1.224490 50.000000 0.000000
0.918367 50.000000 0.000000
0.612245 50.000000 0.000000
0.306122 50.000000 0.000000
0.000000 49.494949 0.000000
0.000000 48.989899 0.000000
0.000000 48.484848 0.000000
0.000000 47.979798 0.000000
0.000000 47.474747 0.000000
0.000000 46.969697 0.000000
0.000000 46.464646 0.000000
0.000000 45.959596 0.000000
0.000000 45.454545 0.000000
0.000000 44.949495 0.000000
0.000000 44.444444 0.000000
0.000000 43.939394 0.000000
0.000000 43.434343 0.000000
0.000000 42.929293 0.000000
0.000000 42.424242 0.000000
0.000000 41.919192 0.000000
0.000000 41.414141 0.000000
0.000000 40.909091 0.000000
0.000000 40.404040 0.000000
0.000000 39.898990 0.000000
0.000000 39.393939 0.000000
0.000000 38.888889 0.000000
0.000000 38.383838 0.000000
0.000000 37.878788 0.000000
0.000000 37.373737 0.000000
0.000000 36.868687 0.000000
0.000000 36.363636 0.000000
0.000000 35.858586 0.000000
0.000000 35.353535 0.000000
0.000000 34.848485 0.000000
0.000000 34.343434 0.000000
0.000000 33.838384 0.000000
0.000000 33.333333 0.000000
0.000000 32.828283 0.000000
0.000000 32.323232 0.000000
0.000000 31.818182 0.000000
0.000000 31.313131 0.000000
0.000000 30.808081 0.000000
0.000000 30.303030 0.000000
0.000000 29.797980 0.000000
0.000000 29.292929 0.000000
0.000000 28.787879 0.000000
0.000000 28.282828 0.000000
0.000000 27.777778 0.000000
0.000000 27.272727 0.000000
0.000000 26.767677 0.000000
0.000000 26.262626 0.000000
0.000000 25.757576 0.000000
0.000000 25.252525 0.000000
0.000000 24.747475 0.000000
0.000000 24.242424 0.000000
0.000000 23.737374 0.000000
0.000000 23.232323 0.000000
0.000000 22.727273 0.000000
0.000000 22.222222 0.000000
0.000000 21.717172 0.000000
0.000000 21.212121 0.000000
0.000000 20.707071 0.000000
0.000000 20.202020 0.000000
0.000000 19.696970 0.000000
0.000000 19.191919 0.000000
0.000000 18.686869 0.000000
0.000000 18.181818 0.000000
0.000000 17.676768 0.000000
0.000000 17.171717 0.000000
0.000000 16.666667 0.000000
0.000000 16.161616 0.000000
0.000000 15.656566 0.000000
0.000000 15.151515 0.000000
0.000000 14.646465 0.000000
0.000000 14.141414 0.000000
0.000000 13.636364 0.000000
0.000000 13.131313 0.000000
0.000000 12.626263 0.000000
0.000000 12.121212 0.000000
0.000000 11.616162 0.000000
0.000000 11.111111 0.000000
0.000000 10.606061 0.000000
0.000000 10.101010 0.000000
0.000000 9.595960 0.000000
0.000000 9.090909 0.000000
0.000000 8.585859 0.000000
0.000000 8.080808 0.000000
0.000000 7.575758 0.000000
0.000000 7.070707 0.000000
0.000000 6.565657 0.000000
0.000000 6.060606 0.000000
0.000000 5.555556 0.000000
0.000000 5.050505 0.000000
0.000000 4.545455 0.000000
0.000000 4.040404 0.000000
0.000000 3.535354 0.000000
0.000000 3.030303 0.000000
0.000000 2.525253 0.000000
0.000000 2.020202 0.000000
0.000000 1.515152 0.000000
0.000000 1.010101 0.000000
0.000000 0.505051 0.000000
14.512121 31.460606 0.000000
14.512121 8.042424 0.000000
14.512121 17.312121 0.000000
14.512121 21.215152 0.000000
14.512121 23.654545 0.000000
14.512121 26.093939 0.000000
14.512121 14.384848 0.000000
[...]
POINT_DATA 4020
SCALARS UX float 1
LOOKUP_TABLE default
6.844135
2.758987
0.000000
0.000000
6.395573
6.731545
6.618724
6.505654
6.392736
6.279442
6.166369
6.053130
5.940003
5.827137
5.714331
5.601728
5.489373
5.377330
5.265575
5.154188
5.043183
4.932651
4.822546
4.713033
4.604118
4.495729
4.388155
4.281188
4.175209
4.070120
3.966048
3.862821
3.761078
3.660692
3.561463
3.464384
3.368699
3.275634
3.185043
3.096601
3.012185
2.930626
2.852734
2.780867
2.714924
2.655008
2.603400
2.561273
2.531184
2.510445
2.497845
2.477210
2.400629
2.607994
2.410991
2.056780
2.110893
2.589550
2.552880
2.952757
2.969595
2.722702
2.480185
2.313868
2.213706
2.151302
2.097603
2.048191
1.997334
1.951512
1.905641
1.860618
1.813340
1.765747
1.717372
1.666880
1.615136
1.562508
1.507522
1.452310
1.395683
1.336808
1.278646
1.218816
1.157413
1.094430
1.031079
0.965582
0.899837
0.833041
0.764273
0.695779
0.625034
0.554984
0.483164
0.413585
0.341390
0.268610
0.197849
0.126928
0.058034
0.000000
0.000000
0.000000
0.000000
0.000000
0.000000
0.000000
0.000000
0.000000
0.000000
0.000000
0.000000
0.000000
0.000000
0.000000
0.000000
0.000000
0.000000
0.000000
0.000000
0.000000
0.000000
0.000000
0.000000
0.000000
0.000000
0.000000
0.000000
0.000000
0.000000
0.000000
0.000000
0.000000
0.000000
0.000000
0.000000
0.000000
0.000000
0.000000
0.000000
0.000000
0.000000
0.000000
0.000000
0.000000
0.000000
0.000000
0.000000
0.000000
0.000000
0.000000
0.000000
0.000000
0.000000
0.000000
0.000000
0.000000
0.000000
0.000000
0.000000
0.000000
0.000000
0.000000
0.000000
0.000000
0.000000
0.000000
0.000000
0.000000
0.000000
0.000000
0.000000
0.000000
0.000000
0.000000
0.000000
0.000000
0.000000
0.000000
0.000000
0.000000
0.000000
0.000000
0.000000
0.000000
0.000000
0.000000
0.000000
0.000000
0.000000
0.000000
0.000000
0.000000
0.000000
0.000000
0.000000
0.000000
0.000000
0.130497
0.260994
0.391491
0.521988
0.652486
0.782986
0.913485
1.043986
1.174489
1.304992
1.435497
1.566003
1.696511
1.827021
1.957532
2.088044
2.218559
2.349076
2.479594
2.610114
2.740636
2.871159
3.001685
3.132212
3.262741
3.393271
3.523802
3.654335
3.784869
3.915404
4.045940
4.176476
4.307013
4.437551
4.568089
4.698627
4.829165
4.959702
5.090240
5.220776
5.351312
5.481848
5.612382
5.742915
5.873448
6.003980
6.134511
6.265042
6.395443
6.395315
6.395188
6.395060
6.394929
6.394794
6.394653
6.394507
6.394353
6.394190
6.394018
6.393832
6.393635
6.393426
6.393205
6.392969
6.392711
6.392446
6.392159
6.391856
6.391538
6.391192
6.390834
6.390455
6.390054
6.389636
6.389191
6.388733
6.388252
6.387751
6.387229
6.386688
6.386128
6.385550
6.384955
6.384348
6.383717
6.383079
6.382449
6.381819
6.381168
6.380536
6.379882
6.379267
6.378710
6.378188
6.377688
6.377224
6.376819
6.376517
6.376302
6.376137
6.376095
6.376224
6.376577
6.377018
6.377713
6.378485
6.379804
6.381304
6.383037
6.385228
6.387720
6.390723
6.394377
6.398360
6.403047
6.408045
6.414325
6.421085
6.428577
6.436810
6.445762
6.456423
6.467483
6.479365
6.492990
6.507276
6.522633
6.538995
6.556499
6.574856
6.594057
6.614026
6.634626
6.655709
6.676852
6.698051
6.719209
6.739111
6.758637
6.776568
6.793287
6.808110
6.820305
6.830268
6.838009
6.842316
0.207011
0.206857
0.205471
0.205633
0.205923
0.206271
0.205736
0.206625
0.207281
0.207494
0.207712
0.207821
0.206433
6.377118
6.169359
6.161611
6.159713
6.165502
6.165360
6.178813
6.176786
6.175048
6.172783
6.180186
6.209957
6.260841
3.658669
4.387094
2.740609
3.654290
1.684735
3.007184
0.206955
2.088028
6.179004
6.505025
4.931903
0.210100
2.582064
2.016465
5.090167
4.437489
1.369663
5.488827
1.435487
0.207940
6.577850
6.179708
0.241741
0.674073
1.053505
5.939451
2.360280
2.475157
2.939949
0.913506
5.740683
6.620571
6.279057
6.160090
0.211523
0.525026
6.304448
0.207600
0.206217
0.205465
3.964568
3.262703
2.702761
0.208570
6.178668
6.178433
6.176150
6.174204
6.169926
6.418289
6.163992
6.171723
6.189862
6.227228
6.168063
6.160537
6.161432
0.207373
0.207126
0.206033
0.205739
0.206061
0.206535
0.205613
0.206761
0.206754
4.603199
3.181285
4.176420
5.153520
1.922306
5.494316
1.571170
0.527912
0.169627
6.134433
2.500097
2.376628
0.318333
6.627989
6.505388
0.225217
0.370954
2.484688
0.207180
2.506374
6.581961
2.775324
6.204569
6.181182
6.526121
6.180983
0.207920
0.207949
6.464731
6.188435
0.208090
0.207870
0.207646
6.178481
6.177352
6.175945
6.159472
6.170700
6.160161
6.338603
6.167391
6.166858
6.163314
6.162814
6.162563
6.172802
6.159500
6.195710
6.237355
6.274130
6.173893
0.207526
0.207658
0.207781
0.207735
0.206890
0.205794
0.205525
0.205498
0.205544
0.206860
0.205992
0.207837
0.207322
0.206127
0.206487
0.206386
0.205468
0.207411
3.001653
2.610089
2.479571
3.523759
2.350299
3.768012
3.461943
4.068898
3.915353
4.174126
1.962621
1.827007
3.273462
1.696499
2.847079
4.959631
4.698560
4.712300
5.601449
5.264977
1.174482
6.052970
5.723534
2.059944
5.351237
0.782981
0.402583
1.780760
1.872213
2.109239
1.830877
2.936073
6.003901
0.803925
0.865239
1.117446
2.246800
0.988619
1.179570
0.279728
0.152430
6.256688
6.629734
6.744315
0.415371
0.415224
0.414488
0.411730
0.411243
0.412366
0.414158
0.413218
0.412369
5.961011
5.959019
5.952662
5.943171
5.944650
5.948361
5.952563
6.042552
5.971948
3.650679
2.745390
3.657757
0.412303
0.402034
4.596945
5.966821
2.820367
2.091618
6.320789
5.147074
2.422362
1.982545
5.605279
5.095191
0.410877
5.974381
0.943109
5.932276
0.919882
3.957100
6.376658
0.413547
1.832032
0.200627
2.485689
1.239781
2.538785
5.974894
6.637408
2.638295
6.199137
0.208967
0.192899
0.860337
6.613338
0.200238
6.555961
0.203183
6.183303
0.206484
6.488060
0.407302
0.204590
6.180877
6.446606
0.205663
2.685991
0.549206
6.442700
0.206439
6.178545
6.398810
0.207479
6.178055
5.947633
5.951959
6.177204
6.176603
6.175558
6.174759
6.173400
6.164046
6.357503
6.170104
6.159895
6.164807
6.167715
6.320912
6.162235
6.159991
6.166175
6.161143
6.160821
6.168847
6.288853
6.171286
6.172387
6.184940
6.202623
6.218211
6.248819
6.176505
0.207444
0.207683
0.207186
0.207348
0.207069
0.207572
0.206940
0.207802
0.207919
0.206199
0.205657
0.205934
0.206457
0.206099
0.205769
0.205593
0.205582
0.205626
0.205792
0.207878
0.207747
0.206314
0.205700
0.206671
0.206438
0.206814
0.205971
0.206779
0.207148
2.924531
2.870584
3.130502
3.391571
3.862800
4.281663
3.559666
2.216758
3.784344
4.494510
2.613342
3.367879
2.482976
4.050829
4.062068
3.089066
4.823720
4.305018
4.565431
4.826502
5.042505
5.378984
1.563678
1.044625
1.309331
5.219651
5.835422
0.648953
5.618342
6.163793
6.557408
1.967048
6.391574
5.866049
6.178528
1.723076
1.868256
3.134235
0.220755
0.734436
2.593226
0.417597
2.600508
2.079565
2.166531
2.159178
0.922939
0.593365
1.088449
0.419698
2.386557
6.697163
6.184341
0.415662
0.411320
5.956010
5.737674
5.733161
3.944266
2.751712
0.592517
0.408202
1.644333
4.431753
2.322218
2.062873
5.945313
5.963135
0.414023
5.445397
0.887289
6.462109
0.415435
0.414801
0.411816
1.438730
3.264334
0.261998
2.510596
1.795025
0.405879
0.394306
5.979035
5.973096
2.341020
6.278796
0.405722
6.140070
6.103247
5.950666
5.954841
5.943839
5.960404
5.958190
5.947003
5.943393
5.984377
6.000079
5.958875
0.414026
0.411512
0.412746
0.412088
0.415420
0.414712
0.412211
2.991800
3.267728
4.178629
3.521566
2.347092
4.388542
1.689655
4.685865
4.935747
3.746555
5.725410
6.011537
6.015527
2.940330
5.723399
0.801943
5.207787
6.460227
2.460168
6.355748
2.610053
0.397188
6.300241
0.399704
0.355310
0.566832
0.411549
5.986309
6.415854
0.402647
5.982252
6.304326
0.408055
0.410059
0.413948
0.415164
0.411990
6.012083
6.230079
6.388361
5.974053
5.969185
2.378493
0.415522
5.943527
5.961471
5.962164
5.959587
5.949214
5.944102
5.953473
5.950399
5.967048
6.030333
5.960779
5.958678
5.945756
5.943279
5.951379
5.955569
5.977906
6.070624
6.056152
5.946421
5.947083
5.957146
0.411312
0.413194
0.412783
0.414541
0.415554
0.415123
0.415385
0.411504
0.415799
0.416075
0.411350
0.413492
0.412501
0.413284
0.411839
0.414266
0.411225
0.415710
0.411208
0.414617
0.411847
0.412460
0.412792
0.413827
0.411521
0.413593
4.183165
2.907903
4.723039
5.265486
2.996824
3.459550
4.955619
2.620084
3.908895
1.165463
2.749198
6.056222
3.176051
1.962863
3.838162
2.868520
2.220068
3.555642
0.497651
3.781660
4.493152
5.495966
5.045187
2.024010
1.039886
2.286714
5.825222
0.236990
1.921317
0.678118
1.014818
2.558709
0.762430
0.662511
1.298952
0.367589
1.159225
0.622388
0.621519
0.619330
0.618348
0.617253
0.623203
0.619129
5.747026
0.622099
0.620613
5.853151
5.733747
5.749828
5.744784
5.727660
2.759825
5.762588
0.612939
3.256687
6.102677
3.930144
4.594803
5.148075
2.793809
1.816542
5.790818
0.599257
5.098791
6.232065
1.251018
5.589290
5.935124
0.623923
5.809256
5.729268
0.617268
6.328053
0.632012
3.644630
6.162122
2.592346
5.963726
5.734041
5.738494
5.745880
5.944713
6.009291
0.620205
0.618521
3.659727
2.089857
0.568807
1.946930
3.840099
0.650764
5.816948
2.426976
0.580813
0.536850
1.703064
0.922801
1.024711
0.762138
6.429165
0.756313
1.844662
2.370521
0.581856
5.977651
0.355444
2.548568
2.251101
0.406923
0.613388
6.257493
5.977415
0.410149
0.419501
6.203666
5.965346
0.412101
0.405708
5.770047
6.161155
0.615670
0.414388
5.962220
6.121723
6.206875
5.955519
5.727967
6.086810
5.956589
5.945823
5.991881
6.019290
5.944241
5.838601
5.812593
5.960004
5.957741
5.954137
5.949945
5.962754
5.943709
5.948615
5.743729
5.727230
5.736180
5.736926
5.731639
5.732382
5.760373
5.738519
0.624056
0.617975
0.618922
0.415733
0.415100
0.413249
0.413869
0.412188
0.411651
0.411801
0.412874
0.411422
0.415993
0.415847
0.414384
0.414132
0.411470
0.411610
0.621202
0.413170
0.415545
0.414905
0.412135
0.617674
0.415271
0.617436
0.622082
0.619919
3.019556
3.085230
0.398949
2.544563
3.370052
2.268000
2.493431
3.124178
4.055112
4.031083
1.297060
2.878485
4.290278
4.834423
2.897675
5.859857
5.384803
4.817424
3.393274
4.306678
2.649624
1.564028
3.433876
2.365093
4.554606
4.364707
2.475980
2.132129
6.175900
4.909274
5.575038
1.994977
5.682600
1.234353
2.586650
0.386750
5.319555
1.625967
0.577232
2.084157
0.546767
6.503291
5.969625
0.826051
0.824759
5.636170
5.519008
5.523645
0.812325
0.755912
2.283279
2.744450
1.607439
6.054381
0.872354
2.127054
1.914215
5.737802
0.881129
5.740986
4.400405
5.729617
0.623695
0.617432
0.622566
0.618221
1.315189
2.220581
0.601353
5.775186
5.775616
6.051128
5.754657
0.617218
5.905151
5.735560
5.732065
5.727641
5.745654
5.731077
5.745221
5.774022
5.742315
5.743364
5.522034
5.517279
0.623513
0.622160
0.623940
0.617363
0.622827
0.623421
0.619018
0.622503
0.617483
0.621631
0.619877
0.620651
0.548845
0.580630
6.186539
4.675336
6.285211
2.036956
3.249232
4.173352
1.752016
4.714008
0.681364
5.790920
1.404718
0.228327
6.144078
2.535455
5.433850
6.250434
5.718901
0.599574
0.612680
5.777355
5.245252
0.571760
5.778688
5.762947
6.183507
0.603166
0.600599
0.585498
6.079203
0.613665
5.761989
0.619333
0.622797
5.749580
5.945506
5.734805
5.730482
5.727365
5.741804
5.752726
5.739717
5.745817
5.766972
5.801813
5.739184
5.746499
5.728192
6.022232
5.729040
5.869616
0.619171
5.825133
5.754823
5.782237
5.744207
5.727401
5.735902
5.728482
0.621442
0.624370
0.620223
0.617730
0.618156
0.619072
0.617677
0.619748
0.622294
0.620757
0.621020
0.623426
0.624317
0.617454
0.619704
0.618687
0.621897
0.621057
0.617896
0.620966
2.970001
3.938680
3.508662
2.623169
0.594418
3.160757
4.952920
2.237803
3.535260
2.156744
4.472830
5.027185
3.794184
1.945362
5.270775
6.062018
2.719958
1.673885
1.099655
5.812373
6.335148
2.883404
2.345366
4.036147
1.874031
1.113502
3.748141
5.852808
3.348298
3.130602
2.477550
2.135220
4.263944
4.151166
5.504049
0.787928
4.812862
1.575929
5.792709
0.514588
2.474759
2.533427
6.131140
2.261158
2.392457
0.825327
0.832284
0.826402
0.831666
0.823937
5.755656
5.537838
0.826368
5.545434
0.827997
0.829964
5.532727
5.528666
5.512700
5.511752
5.515706
2.757511
5.563075
5.903923
4.204608
4.668524
0.793128
5.604449
0.858652
5.150912
5.100477
0.780717
1.819348
3.239359
3.661517
2.016861
5.645377
5.556904
5.584493
0.824109
0.823595
6.076338
5.881806
3.635390
2.531193
1.514789
4.359386
6.002480
5.842875
0.816837
0.779452
5.652697
5.528859
5.513696
5.531527
0.765983
5.511798
5.512492
0.830708
0.828675
0.830272
0.827452
0.832407
0.825219
2.196421
5.634025
3.841980
1.828050
2.379750
0.801289
0.569215
0.768951
6.030092
5.594837
5.569249
5.353761
2.218009
0.605647
0.811485
5.754773
0.740303
1.039327
1.416145
5.536790
5.569496
0.726972
5.996954
1.663391
5.519900
5.521398
5.924804
5.886832
0.620578
5.791808
5.730368
5.524395
5.740486
5.728657
5.742828
5.749782
5.741707
0.827736
5.522815
5.518119
5.607702
5.621325
5.517339
5.530805
5.530154
5.529531
0.829032
5.549733
5.519399
5.511659
5.514361
5.515917
5.516648
5.525224
5.948222
0.824619
0.825867
0.623759
0.618253
0.621573
0.805991
0.620135
0.623942
0.823802
0.623200
0.617910
0.624103
0.617670
0.623057
0.618704
0.622671
0.823805
0.830085
0.826806
0.828499
0.829478
0.825460
0.751497
3.430294
2.842965
4.907740
3.060317
4.029175
0.492958
3.373276
2.478256
4.804061
3.921833
5.569008
0.976406
2.354963
2.070144
5.394452
1.495876
6.032478
6.187665
2.075637
4.531757
2.096436
1.538322
3.007101
4.272083
1.791989
2.661969
2.209393
1.964833
3.291893
0.796600
6.092714
5.643258
0.371658
1.206750
4.585629
4.125882
5.452378
5.585191
0.730933
5.616267
2.591319
2.155132
5.974380
1.030974
1.037415
1.031639
1.030315
1.033235
5.317502
5.333192
5.305285
5.309877
5.436025
5.299923
5.296482
5.370084
1.012217
0.957514
4.718951
2.593705
2.186074
2.051616
5.799863
5.407395
0.968058
5.434737
0.899822
4.164161
0.840624
5.915642
1.041929
5.526963
0.830932
0.832042
0.823894
0.825070
1.972880
4.675152
5.817980
1.367241
5.786633
0.824622
5.538598
5.709704
5.306770
0.754936
5.528265
5.565217
5.515327
5.404110
5.316115
5.546740
5.303486
1.309066
0.831819
0.831709
0.832451
0.823877
0.830580
0.826368
1.984082
3.927467
2.324257
4.951432
3.537848
0.482433
1.706244
1.574164
0.990563
1.894621
5.290083
1.220636
2.423382
0.777419
1.402916
5.879458
0.943252
2.136772
5.816105
0.818989
5.542636
5.609140
0.804451
5.886396
5.731906
5.532995
5.561003
0.829997
5.513466
5.574549
5.514455
5.531936
5.533270
0.777975
5.525741
5.525042
5.553126
0.829979
0.831706
0.808135
0.828299
5.309083
5.512263
5.512079
5.669989
5.301340
5.520748
5.529164
5.595584
5.522188
5.511754
5.513424
5.543614
5.301814
5.308194
0.808863
0.824348
0.827518
5.580901
0.828750
0.825972
0.830174
0.823989
0.827527
0.824176
0.824770
0.829727
0.828199
0.832075
0.831672
0.830587
5.594388
1.523468
0.826601
0.824442
1.032184
0.829272
2.035292
1.671477
0.870988
3.524194
2.693028
2.612104
5.711984
5.027100
2.943762
2.104009
4.484267
5.955359
3.150790
4.057066
4.234377
5.225122
1.946156
3.144284
3.797624
4.792936
0.606830
2.220284
4.383582
1.078050
3.047398
2.903295
1.468305
1.425463
3.323896
0.242166
3.429180
3.749207
0.946401
2.604859
5.505742
2.492815
5.897454
1.750268
2.331304
5.577799
5.333062
1.040532
1.040179
1.034757
1.036097
1.038490
5.298399
5.095606
5.084453
3.063841
1.141683
2.524016
3.213660
1.034977
3.634607
0.982699
5.102130
0.893157
1.030908
1.030306
1.031371
3.633963
1.001075
5.744066
0.598289
5.152378
5.680230
0.942259
0.961793
1.034559
5.517644
5.453765
5.385283
5.297665
5.297157
5.296763
5.300452
5.447053
5.325022
1.036919
1.031681
1.033136
2.759156
3.926312
4.243656
1.372056
5.759411
2.439003
1.791813
3.288126
4.375585
3.779479
0.975955
5.349724
5.853083
1.201121
1.985109
1.008837
2.121973
1.035045
5.718080
5.746430
1.655217
1.885987
5.338971
5.300605
0.986689
0.985134
5.409335
5.311262
5.372327
5.359020
5.306210
5.689413
5.298859
5.301170
5.319854
5.527559
5.326826
1.037136
5.310670
1.013996
5.419199
5.316755
5.318227
0.729373
1.035470
5.304423
1.036035
1.038264
1.038167
5.314870
5.313922
5.306124
5.391007
5.367400
5.357514
5.340499
5.296463
5.296457
5.094902
5.315452
5.303584
5.307568
5.302640
5.526354
5.316575
2.265173
5.299503
1.016347
1.037538
0.832138
1.030562
0.825132
0.830707
1.036582
0.827359
1.032497
1.035312
0.832359
0.831468
1.039961
1.035660
0.824609
0.832550
0.824232
0.831239
5.639382
0.825745
1.031002
1.033868
1.034171
1.032864
2.800088
1.030451
3.412797
1.029640
5.452875
4.874699
4.529649
5.564371
2.458431
1.041022
3.042607
1.518645
0.716361
4.046170
2.177827
5.922079
4.804374
4.605874
1.462684
1.805977
0.950244
0.689079
2.494122
1.182029
1.633246
3.180821
0.358034
5.467670
5.778871
2.059819
1.919460
3.376479
1.213905
5.141341
1.240473
1.248297
1.244962
1.241071
1.238827
1.225684
5.103130
5.116969
1.031515
5.091988
5.088165
5.238296
1.237268
5.081727
4.881889
5.484442
5.193982
2.087231
5.625300
5.277977
1.149229
5.169465
1.764313
4.668498
1.040599
1.205086
5.141349
5.085921
5.174355
1.038823
2.325597
0.825464
1.892324
1.162554
1.172785
1.153995
5.312845
5.081505
5.101498
1.032417
1.237326
1.040351
1.239485
1.039279
1.040978
1.038884
1.030821
1.035109
5.641181
1.847008
2.609655
1.464806
4.947475
4.163955
3.910930
0.948167
1.013452
5.169887
5.259159
1.148253
5.423079
3.237739
4.722649
1.083463
4.098644
5.594294
1.129256
1.169067
5.223058
5.611565
1.021501
0.982399
5.336913
5.434996
0.735857
1.032077
1.368696
5.542067
5.362635
5.093238
5.083649
5.714524
5.309025
5.320816
5.096483
5.297769
5.297023
5.313092
5.312023
5.327786
5.668097
5.202850
5.105416
5.406570
5.473436
5.494681
1.244086
5.090910
5.314407
5.378862
5.094035
5.348522
1.237138
1.241947
5.321558
5.298863
5.296759
5.087937
5.086048
5.086624
5.090092
1.244350
1.245092
1.039592
1.030753
1.035748
1.037835
1.031275
1.040156
1.241466
1.030810
1.037230
1.031709
1.035918
1.040189
1.034051
1.038405
1.034861
1.240458
1.036186
2.636818
3.507025
4.475148
5.014986
2.909571
2.902946
2.332894
2.416534
4.381199
5.600401
2.049896
1.560421
3.764089
1.660570
1.876234
3.493873
1.719355
0.870831
3.126608
1.059661
3.297952
0.709031
1.281454
0.480696
1.248865
1.244141
1.428597
1.448675
4.962720
1.454795
1.448430
1.246942
4.877953
4.868981
4.871874
3.051768
1.340390
3.192600
2.448638
5.034651
3.922438
5.124676
5.083007
4.882766
1.243115
1.074051
1.752516
5.105661
5.361640
5.096841
1.532927
1.237408
1.242776
1.365677
3.630120
5.034226
5.237469
1.224637
5.114458
4.230687
5.132514
5.082106
5.107711
5.151013
5.100372
4.880030
4.870942
5.466365
1.247416
1.245087
1.237734
1.243944
1.242675
1.237961
2.758478
3.634794
5.548940
1.626485
0.889234
1.117419
1.211845
3.781894
1.208420
4.326874
1.965901
1.198343
1.345132
0.580469
1.146180
5.524162
1.222473
5.132944
1.172097
1.169840
5.330677
1.235301
5.279756
1.236789
5.180348
5.159602
5.123874
5.092710
5.082559
5.083694
5.085062
1.441898
5.099835
5.110916
5.214344
5.312678
5.219886
5.162617
5.439793
5.103883
5.258371
5.101083
4.881016
5.081571
5.188068
5.102312
5.089186
5.093248
5.090484
5.105259
1.178378
5.082305
5.081838
4.876948
1.452193
5.087473
5.097161
1.248854
1.040649
1.245819
1.238852
1.243600
1.246671
1.033476
1.240614
1.244706
1.241858
1.031103
1.032479
1.238111
1.040827
1.239879
1.039665
5.269462
1.041093
1.755016
1.039978
1.039060
1.031638
3.389145
4.527182
1.510683
1.238025
2.167343
5.591324
2.754022
1.209713
4.036740
1.204800
4.592995
3.023681
1.892164
0.942193
5.286681
2.461771
2.186181
1.750723
5.617228
4.801809
1.104714
1.633659
3.360530
1.170831
2.363629
0.812199
1.218277
4.271136
1.382198
5.599204
1.420202
1.239062
5.153412
1.456518
1.446344
4.924919
4.889612
4.886236
4.895000
1.658670
1.632015
1.444640
4.669102
4.664199
4.868807
4.866907
5.043238
5.333773
1.353443
1.962281
1.249080
2.331427
4.881453
1.247886
1.308024
2.335380
1.757077
1.364829
1.059522
4.966321
5.075888
4.665411
4.720844
1.427351
4.879350
1.443763
4.871078
5.004390
5.156617
4.946602
1.429663
4.667246
4.874906
1.455305
1.240313
1.444718
1.248949
1.249380
1.447106
1.247347
1.248876
1.238123
1.450053
1.371887
1.628440
1.367292
5.483442
1.832349
2.608621
4.945242
1.416778
1.370699
1.333090
4.873903
4.156015
3.897380
5.047941
5.104026
5.410356
1.624674
4.938546
5.456935
5.305201
4.867531
5.118198
5.007108
4.878803
4.076399
4.868096
4.916155
5.129575
5.109289
5.166417
5.098644
5.097949
4.893022
4.887361
4.972145
4.876069
1.453449
4.877983
4.872977
5.084338
5.303704
4.869730
5.082030
4.873403
4.872582
1.447202
5.100790
4.888411
4.867030