# vtk DataFile Version 2.0
Test
ASCII
DATASET POLYDATA
POINTS 1445 float
0.000000 0.000000 0.000000
1.000000 0.000000 0.000000
1.000000 1.000000 0.000000
0.000000 1.000000 0.000000
0.000000 0.400000 0.000000
1.000000 0.600000 0.000000
0.029412 0.000000 0.000000
0.058824 0.000000 0.000000
0.088235 0.000000 0.000000
0.117647 0.000000 0.000000
0.147059 0.000000 0.000000
0.176471 0.000000 0.000000
0.205882 0.000000 0.000000
0.235294 0.000000 0.000000
0.264706 0.000000 0.000000
0.294118 0.000000 0.000000
0.323529 0.000000 0.000000
0.352941 0.000000 0.000000
0.382353 0.000000 0.000000
0.411765 0.000000 0.000000
0.441176 0.000000 0.000000
0.470588 0.000000 0.000000
0.500000 0.000000 0.000000
0.529412 0.000000 0.000000
0.558824 0.000000 0.000000
0.588235 0.000000 0.000000
0.617647 0.000000 0.000000
0.647059 0.000000 0.000000
0.676471 0.000000 0.000000
0.705882 0.000000 0.000000
0.735294 0.000000 0.000000
0.764706 0.000000 0.000000
0.794118 0.000000 0.000000
0.823529 0.000000 0.000000
0.852941 0.000000 0.000000
0.882353 0.000000 0.000000
0.911765 0.000000 0.000000
0.941176 0.000000 0.000000
0.970588 0.000000 0.000000
1.000000 0.030000 0.000000
1.000000 0.060000 0.000000
1.000000 0.090000 0.000000
1.000000 0.120000 0.000000
1.000000 0.150000 0.000000
1.000000 0.180000 0.000000
1.000000 0.210000 0.000000
1.000000 0.240000 0.000000
1.000000 0.270000 0.000000
1.000000 0.300000 0.000000
1.000000 0.330000 0.000000
1.000000 0.360000 0.000000
1.000000 0.390000 0.000000
1.000000 0.420000 0.000000
1.000000 0.450000 0.000000
1.000000 0.480000 0.000000
1.000000 0.510000 0.000000
1.000000 0.540000 0.000000
1.000000 0.570000 0.000000
1.000000 0.628571 0.000000
1.000000 0.657143 0.000000
1.000000 0.685714 0.000000
1.000000 0.714286 0.000000
1.000000 0.742857 0.000000
1.000000 0.771429 0.000000
1.000000 0.800000 0.000000
1.000000 0.828571 0.000000
1.000000 0.857143 0.000000
1.000000 0.885714 0.000000
1.000000 0.914286 0.000000
1.000000 0.942857 0.000000
1.000000 0.971429 0.000000
0.970588 1.000000 0.000000
0.941176 1.000000 0.000000
0.911765 1.000000 0.000000
0.882353 1.000000 0.000000
0.852941 1.000000 0.000000
0.823529 1.000000 0.000000
0.794118 1.000000 0.000000
0.764706 1.000000 0.000000
0.735294 1.000000 0.000000
0.705882 1.000000 0.000000
0.676471 1.000000 0.000000
0.647059 1.000000 0.000000
0.617647 1.000000 0.000000
0.588235 1.000000 0.000000
0.558824 1.000000 0.000000
0.529412 1.000000 0.000000
0.500000 1.000000 0.000000
0.470588 1.000000 0.000000
0.441176 1.000000 0.000000
0.411765 1.000000 0.000000
0.382353 1.000000 0.000000
0.352941 1.000000 0.000000
0.323529 1.000000 0.000000
0.294118 1.000000 0.000000
0.264706 1.000000 0.000000
0.235294 1.000000 0.000000
0.205882 1.000000 0.000000
0.176471 1.000000 0.000000
0.147059 1.000000 0.000000
0.117647 1.000000 0.000000
0.088235 1.000000 0.000000
0.058824 1.000000 0.000000
0.029412 1.000000 0.000000
0.000000 0.970000 0.000000
0.000000 0.940000 0.000000
0.000000 0.910000 0.000000
0.000000 0.880000 0.000000
0.000000 0.850000 0.000000
0.000000 0.820000 0.000000
0.000000 0.790000 0.000000
0.000000 0.760000 0.000000
0.000000 0.730000 0.000000
0.000000 0.700000 0.000000
0.000000 0.670000 0.000000
0.000000 0.640000 0.000000
0.000000 0.610000 0.000000
0.000000 0.580000 0.000000
0.000000 0.550000 0.000000
0.000000 0.520000 0.000000
0.000000 0.490000 0.000000
0.000000 0.460000 0.000000
0.000000 0.430000 0.000000
0.000000 0.371429 0.000000
0.000000 0.342857 0.000000
0.000000 0.314286 0.000000
0.000000 0.285714 0.000000
0.000000 0.257143 0.000000
0.000000 0.228571 0.000000
0.000000 0.200000 0.000000
0.000000 0.171429 0.000000
0.000000 0.142857 0.000000
0.000000 0.114286 0.000000
0.000000 0.085714 0.000000
0.000000 0.057143 0.000000
0.000000 0.028571 0.000000
0.029412 0.405882 0.000000
0.058824 0.411765 0.000000
0.088235 0.417647 0.000000
0.117647 0.423529 0.000000
0.147059 0.429412 0.000000
0.176471 0.435294 0.000000
0.205882 0.441176 0.000000
0.235294 0.447059 0.000000
0.264706 0.452941 0.000000
0.294118 0.458824 0.000000
0.323529 0.464706 0.000000
0.352941 0.470588 0.000000
0.382353 0.476471 0.000000
0.411765 0.482353 0.000000
0.441176 0.488235 0.000000
0.470588 0.494118 0.000000
0.500000 0.500000 0.000000
0.529412 0.505882 0.000000
0.558824 0.511765 0.000000
0.588235 0.517647 0.000000
0.617647 0.523529 0.000000
0.647059 0.529412 0.000000
0.676471 0.535294 0.000000
0.705882 0.541176 0.000000
0.735294 0.547059 0.000000
0.764706 0.552941 0.000000
0.794118 0.558824 0.000000
0.823529 0.564706 0.000000
0.852941 0.570588 0.000000
0.882353 0.576471 0.000000
0.911765 0.582353 0.000000
0.941176 0.588235 0.000000
0.970588 0.594118 0.000000
0.948492 0.617586 0.000000
0.918239 0.609871 0.000000
0.126115 0.454845 0.000000
0.100318 0.465379 0.000000
0.103006 0.442114 0.000000
0.117916 0.480680 0.000000
0.029145 0.895585 0.000000
0.046774 0.918032 0.000000
0.024990 0.926329 0.000000
0.056315 0.899171 0.000000
0.977770 0.695981 0.000000
0.963577 0.714729 0.000000
0.973827 0.736127 0.000000
0.605253 0.549394 0.000000
0.579370 0.549801 0.000000
0.570019 0.533816 0.000000
0.896809 0.971959 0.000000
0.919426 0.957680 0.000000
0.927686 0.976215 0.000000
0.899487 0.944624 0.000000
0.974081 0.924646 0.000000
0.977161 0.898750 0.000000
0.076578 0.973587 0.000000
0.102577 0.974440 0.000000
0.861693 0.698664 0.000000
0.848870 0.723174 0.000000
0.839521 0.701504 0.000000
0.820447 0.720618 0.000000
0.872237 0.675719 0.000000
0.882611 0.694724 0.000000
0.895344 0.672729 0.000000
0.606326 0.947716 0.000000
0.624868 0.973015 0.000000
0.599776 0.977307 0.000000
0.167986 0.944019 0.000000
0.199183 0.948746 0.000000
0.187884 0.972901 0.000000
0.787752 0.856005 0.000000
0.754801 0.854462 0.000000
0.778588 0.832828 0.000000
0.191471 0.922393 0.000000
0.801312 0.812216 0.000000
0.829867 0.817276 0.000000
0.805526 0.837896 0.000000
0.812775 0.791772 0.000000
0.822869 0.769821 0.000000
0.833826 0.791773 0.000000
0.849982 0.772760 0.000000
0.791421 0.791198 0.000000
0.772962 0.808877 0.000000
0.180049 0.621172 0.000000
0.160680 0.621098 0.000000
0.172158 0.598185 0.000000
0.588124 0.962489 0.000000
0.142171 0.602810 0.000000
0.827587 0.748015 0.000000
0.859778 0.745080 0.000000
0.882413 0.743965 0.000000
0.872759 0.762938 0.000000
0.894601 0.765041 0.000000
0.910115 0.745588 0.000000
0.901004 0.726420 0.000000
0.877058 0.719626 0.000000
0.632694 0.945006 0.000000
0.818411 0.883232 0.000000
0.787667 0.883633 0.000000
0.812018 0.862064 0.000000
0.808649 0.907835 0.000000
0.066636 0.534974 0.000000
0.083909 0.552665 0.000000
0.058224 0.565435 0.000000
0.037551 0.542621 0.000000
0.025720 0.565794 0.000000
0.304619 0.971425 0.000000
0.276072 0.975195 0.000000
0.284125 0.946285 0.000000
0.795087 0.737757 0.000000
0.797357 0.768346 0.000000
0.869843 0.656802 0.000000
0.840870 0.648068 0.000000
0.865462 0.630915 0.000000
0.043233 0.441011 0.000000
0.028792 0.469222 0.000000
0.020751 0.443790 0.000000
0.846918 0.676414 0.000000
0.058991 0.463368 0.000000
0.051906 0.966804 0.000000
0.071758 0.947609 0.000000
0.048298 0.939447 0.000000
0.026398 0.956010 0.000000
0.967109 0.949068 0.000000
0.946807 0.928411 0.000000
0.940173 0.953295 0.000000
0.956764 0.974357 0.000000
0.076722 0.471546 0.000000
0.082324 0.449317 0.000000
0.066669 0.435847 0.000000
0.114035 0.946088 0.000000
0.091278 0.952186 0.000000
0.128453 0.974235 0.000000
0.027019 0.501643 0.000000
0.047138 0.487417 0.000000
0.943388 0.639892 0.000000
0.923239 0.630552 0.000000
0.974491 0.618278 0.000000
0.972785 0.673666 0.000000
0.943930 0.664809 0.000000
0.968693 0.642530 0.000000
0.780685 0.976970 0.000000
0.756289 0.951349 0.000000
0.776857 0.951460 0.000000
0.935276 0.890540 0.000000
0.927168 0.867561 0.000000
0.954227 0.882176 0.000000
0.745760 0.974977 0.000000
0.952002 0.907568 0.000000
0.068063 0.489215 0.000000
0.051512 0.513895 0.000000
0.027757 0.982136 0.000000
0.023217 0.525632 0.000000
0.982410 0.972952 0.000000
0.951072 0.692907 0.000000
0.957020 0.857438 0.000000
0.937630 0.840379 0.000000
0.966912 0.834149 0.000000
0.923427 0.933924 0.000000
0.982257 0.848323 0.000000
0.092881 0.488189 0.000000
0.976737 0.871201 0.000000
0.067960 0.921895 0.000000
0.886538 0.603532 0.000000
0.918896 0.656866 0.000000
0.898227 0.636966 0.000000
0.092880 0.930380 0.000000
0.929071 0.911440 0.000000
0.081137 0.510877 0.000000
0.592772 0.576158 0.000000
0.150419 0.835159 0.000000
0.138607 0.859733 0.000000
0.125762 0.835294 0.000000
0.155304 0.458505 0.000000
0.139466 0.476317 0.000000
0.134858 0.496115 0.000000
0.109061 0.504849 0.000000
0.112238 0.859343 0.000000
0.866826 0.974780 0.000000
0.026919 0.865848 0.000000
0.348411 0.871602 0.000000
0.339654 0.840899 0.000000
0.369544 0.848927 0.000000
0.925986 0.818235 0.000000
0.909684 0.842117 0.000000
0.929360 0.717495 0.000000
0.924028 0.685311 0.000000
0.879688 0.955544 0.000000
0.875200 0.929284 0.000000
0.903901 0.918287 0.000000
0.950764 0.819790 0.000000
0.047492 0.878635 0.000000
0.069665 0.880314 0.000000
0.081712 0.904992 0.000000
0.573454 0.980624 0.000000
0.556694 0.550113 0.000000
0.094318 0.530060 0.000000
0.563246 0.571677 0.000000
0.563825 0.961795 0.000000
0.155902 0.972929 0.000000
0.577162 0.940912 0.000000
0.545227 0.533787 0.000000
0.864670 0.884377 0.000000
0.860690 0.911575 0.000000
0.840756 0.895862 0.000000
0.137227 0.926016 0.000000
0.139814 0.950758 0.000000
0.109156 0.913646 0.000000
0.884976 0.899786 0.000000
0.910807 0.890052 0.000000
0.830819 0.844574 0.000000
0.157710 0.484545 0.000000
0.180718 0.468069 0.000000
0.154331 0.510861 0.000000
0.124262 0.522394 0.000000
0.341085 0.732964 0.000000
0.323736 0.758404 0.000000
0.312899 0.730066 0.000000
0.857321 0.949854 0.000000
0.839840 0.975483 0.000000
0.053549 0.857833 0.000000
0.031143 0.832960 0.000000
0.840338 0.925315 0.000000
0.300796 0.756054 0.000000
0.080783 0.856286 0.000000
0.096939 0.884378 0.000000
0.544800 0.977874 0.000000
0.949430 0.731579 0.000000
0.955247 0.752582 0.000000
0.934712 0.748859 0.000000
0.030153 0.591093 0.000000
[...]
POINT_DATA 1445
SCALARS UX float 1
LOOKUP_TABLE default
-0.001714
-0.000000
-0.000000
-0.001714
-0.001713
-0.000000
-0.001663
-0.001613
-0.001563
-0.001513
-0.001462
-0.001412
-0.001361
-0.001311
-0.001261
-0.001210
-0.001159
-0.001109
-0.001059
-0.001008
-0.000958
-0.000907
-0.000857
-0.000806
-0.000756
-0.000706
-0.000655
-0.000605
-0.000554
-0.000505
-0.000454
-0.000403
-0.000352
-0.000302
-0.000252
-0.000202
-0.000151
-0.000101
-0.000050
-0.000000
0.000000
0.000002
-0.000001
0.000000
-0.000001
-0.000001
-0.000003
0.000000
0.000002
0.000000
-0.000001
-0.000000
-0.000000
-0.000001
0.000001
0.000000
-0.000000
0.000000
0.000000
0.000000
0.000000
0.000000
-0.000000
-0.000000
-0.000000
0.000000
0.000000
-0.000000
-0.000000
-0.000000
-0.000000
-0.000050
-0.000101
-0.000151
-0.000201
-0.000252
-0.000302
-0.000353
-0.000403
-0.000453
-0.000504
-0.000555
-0.000605
-0.000655
-0.000706
-0.000756
-0.000807
-0.000857
-0.000908
-0.000958
-0.001008
-0.001059
-0.001109
-0.001160
-0.001209
-0.001260
-0.001311
-0.001362
-0.001412
-0.001462
-0.001512
-0.001563
-0.001613
-0.001664
-0.001714
-0.001714
-0.001716
-0.001713
-0.001714
-0.001713
-0.001713
-0.001711
-0.001714
-0.001716
-0.001714
-0.001713
-0.001714
-0.001714
-0.001713
-0.001715
-0.001714
-0.001714
-0.001714
-0.001715
-0.001713
-0.001716
-0.001712
-0.001715
-0.001713
-0.001715
-0.001713
-0.001715
-0.001714
-0.001715
-0.001714
-0.001714
-0.001662
-0.001613
-0.001563
-0.001511
-0.001462
-0.001413
-0.001362
-0.001310
-0.001261
-0.001210
-0.001160
-0.001110
-0.001059
-0.001008
-0.000957
-0.000907
-0.000857
-0.000806
-0.000757
-0.000706
-0.000655
-0.000604
-0.000554
-0.000504
-0.000453
-0.000404
-0.000352
-0.000301
-0.000252
-0.000203
-0.000151
-0.000101
-0.000051
-0.000088
-0.000141
-0.001498
-0.001542
-0.001538
-0.001513
-0.001664
-0.001633
-0.001672
-0.001618
-0.000039
-0.000061
-0.000045
-0.000678
-0.000722
-0.000738
-0.000177
-0.000137
-0.000124
-0.000172
-0.000044
-0.000039
-0.001583
-0.001538
-0.000235
-0.000259
-0.000275
-0.000308
-0.000219
-0.000203
-0.000177
-0.000674
-0.000643
-0.000687
-0.001426
-0.001372
-0.001392
-0.000365
-0.000421
-0.000379
-0.001385
-0.000340
-0.000292
-0.000333
-0.000319
-0.000304
-0.000285
-0.000257
-0.000357
-0.000389
-0.001405
-0.001437
-0.001419
-0.000705
-0.001471
-0.000296
-0.000241
-0.000202
-0.000218
-0.000180
-0.000153
-0.000170
-0.000211
-0.000630
-0.000313
-0.000363
-0.000321
-0.000328
-0.001600
-0.001570
-0.001613
-0.001651
-0.001669
-0.001191
-0.001240
-0.001227
-0.000351
-0.000348
-0.000223
-0.000272
-0.000230
-0.001639
-0.001666
-0.001678
-0.000263
-0.001614
-0.001626
-0.001591
-0.001632
-0.001669
-0.000056
-0.000091
-0.000102
-0.000074
-0.001581
-0.001574
-0.001600
-0.001519
-0.001557
-0.001494
-0.001668
-0.001634
-0.000097
-0.000132
-0.000044
-0.000047
-0.000095
-0.000053
-0.000376
-0.000418
-0.000383
-0.000111
-0.000124
-0.000076
-0.000436
-0.000084
-0.001597
-0.001625
-0.001666
-0.001674
-0.000030
-0.000085
-0.000076
-0.000107
-0.000057
-0.000131
-0.000030
-0.001556
-0.000040
-0.001596
-0.000194
-0.000139
-0.000176
-0.001557
-0.000121
-0.001575
-0.000696
-0.001456
-0.001476
-0.001497
-0.001446
-0.001476
-0.001484
-0.001527
-0.001523
-0.000229
-0.001668
-0.001116
-0.001132
-0.001080
-0.000129
-0.000154
-0.000122
-0.000130
-0.000206
-0.000213
-0.000165
-0.000083
-0.001634
-0.001594
-0.001575
-0.000732
-0.000758
-0.001552
-0.000748
-0.000748
-0.001447
-0.000725
-0.000780
-0.000231
-0.000239
-0.000272
-0.001478
-0.001474
-0.001526
-0.000198
-0.000153
-0.000289
-0.001444
-0.001403
-0.001450
-0.001501
-0.001129
-0.001160
-0.001177
-0.000245
-0.000275
-0.001621
-0.001661
-0.000273
-0.001198
-0.001575
-0.001546
-0.000779
-0.000086
-0.000079
-0.000112
-0.001661
-0.001557
-0.001525
-0.000140
-0.000900
-0.000895
-0.000950
-0.000936
-0.001440
-0.001489
-0.000362
-0.000397
-0.001399
-0.001347
-0.001405
-0.001468
-0.000045
-0.000095
-0.000045
-0.001603
-0.001675
-0.001547
-0.000182
-0.001256
-0.001290
-0.001266
-0.001608
-0.001654
-0.001307
-0.001498
-0.001524
-0.001211
-0.001250
-0.001204
-0.001111
-0.001144
-0.001155
-0.001104
-0.001332
-0.001198
-0.001167
-0.001394
-0.001177
-0.001196
-0.001221
-0.001249
-0.001352
-0.001139
-0.001112
-0.001517
-0.001506
-0.001556
-0.001379
-0.001434
-0.001305
-0.001221
-0.001197
-0.001152
-0.001243
-0.001269
-0.001594
-0.001295
-0.001668
-0.000199
-0.000230
-0.000245
-0.001223
-0.001176
-0.001147
-0.001278
-0.001235
-0.001298
-0.001247
-0.001196
-0.001301
-0.000134
-0.001261
-0.000173
-0.001265
-0.001300
-0.001263
-0.001298
-0.001249
-0.001324
-0.001256
-0.001296
-0.001329
-0.001169
-0.001164
-0.001219
-0.001122
-0.001126
-0.001665
-0.001629
-0.001613
-0.001588
-0.001397
-0.001349
-0.001353
-0.001204
-0.001266
-0.001245
-0.001385
-0.001366
-0.001289
-0.001337
-0.001501
-0.001542
-0.001554
-0.001561
-0.001448
-0.001447
-0.001401
-0.001446
-0.001477
-0.001479
-0.001279
-0.001327
-0.001302
-0.001287
-0.001397
-0.001421
-0.001441
-0.001641
-0.001179
-0.001128
-0.001144
-0.001343
-0.001290
-0.001316
-0.001626
-0.001508
-0.001547
-0.001515
-0.001566
-0.001300
-0.001094
-0.000404
-0.000400
-0.000451
-0.001583
-0.001598
-0.000441
-0.000043
-0.001376
-0.001405
-0.001348
-0.000091
-0.001427
-0.001077
-0.001097
-0.001550
-0.001629
-0.000329
-0.000377
-0.000337
-0.000367
-0.001389
-0.001154
-0.001376
-0.000460
-0.000407
-0.000447
-0.001038
-0.001020
-0.001671
-0.001061
-0.000594
-0.000586
-0.000645
-0.000635
-0.001349
-0.000272
-0.001558
-0.001326
-0.001441
-0.000211
-0.000342
-0.001353
-0.001177
-0.001183
-0.001141
-0.000241
-0.000690
-0.000737
-0.000728
-0.000680
-0.000426
-0.000399
-0.000454
-0.000421
-0.000777
-0.001661
-0.000784
-0.001101
-0.001050
-0.001470
-0.000486
-0.000477
-0.001425
-0.001123
-0.000430
-0.000548
-0.000536
-0.001005
-0.001035
-0.000983
-0.001353
-0.000246
-0.000761
-0.000793
-0.000757
-0.000776
-0.000808
-0.000672
-0.000718
-0.000683
-0.000708
-0.000725
-0.000627
-0.000635
-0.000657
-0.001220
-0.001258
-0.000496
-0.000531
-0.000530
-0.000498
-0.000467
-0.000392
-0.000577
-0.000584
-0.000606
-0.000555
-0.000187
-0.000168
-0.000282
-0.000314
-0.001051
-0.001108
-0.001066
-0.001091
-0.001090
-0.001070
-0.000394
-0.000436
-0.000387
-0.000444
-0.000486
-0.000478
-0.001025
-0.001038
-0.000472
-0.000484
-0.000459
-0.000427
-0.000476
-0.000499
-0.000527
-0.000392
-0.000294
-0.000982
-0.000966
-0.001006
-0.000976
-0.000925
-0.000947
-0.000437
-0.000488
-0.001157
-0.000514
-0.000502
-0.000996
-0.001238
-0.001199
-0.001075
-0.000998
-0.001032
-0.000314
-0.000999
-0.001012
-0.001037
-0.000538
-0.000526
-0.000972
-0.000984
-0.000577
-0.000548
-0.000578
-0.000866
-0.000913
-0.000870
-0.000903
-0.000540
-0.000525
-0.000832
-0.000821
-0.000870
-0.000486
-0.000507
-0.000947
-0.000960
-0.000985
-0.000944
-0.000955
-0.001023
-0.000322
-0.000600
-0.000628
-0.000921
-0.000933
-0.001667
-0.001611
-0.001513
-0.001516
-0.000896
-0.000909
-0.000934
-0.000346
-0.001464
-0.000844
-0.000858
-0.001649
-0.000883
-0.000971
-0.000627
-0.000590
-0.000361
-0.000870
-0.001485
-0.000882
-0.000793
-0.000807
-0.000565
-0.000553
-0.001202
-0.000818
-0.000831
-0.000297
-0.000921
-0.000927
-0.000768
-0.000780
-0.000755
-0.000717
-0.000729
-0.001159
-0.000650
-0.000679
-0.000592
-0.000579
-0.001364
-0.001532
-0.000678
-0.000640
-0.000566
-0.000517
-0.000537
-0.000704
-0.000666
-0.000659
-0.000709
-0.001598
-0.001203
-0.000760
-0.000729
-0.000841
-0.000811
-0.000861
-0.000832
-0.000609
-0.000639
-0.000641
-0.000693
-0.000654
-0.000616
-0.001471
-0.000558
-0.000603
-0.000355
-0.001331
-0.000831
-0.000825
-0.000587
-0.000743
-0.000781
-0.000701
-0.000857
-0.000854
-0.000894
-0.000843
-0.001679
-0.000778
-0.001087
-0.001064
-0.000612
-0.000467
-0.000690
-0.000417
-0.000751
-0.000742
-0.000802
-0.000793
-0.000850
-0.000970
-0.001008
-0.000994
-0.000653
-0.000858
-0.000818
-0.000848
-0.000895
-0.000902
-0.000882
-0.000890
-0.000510
-0.001376
-0.001341
-0.000525
-0.001073
-0.001049
-0.000974
-0.000948
-0.000939
-0.000552
-0.001001
-0.001402
-0.000920
-0.000320
-0.000580
-0.001039
-0.001030
-0.000818
-0.000800
-0.001058
-0.000884
-0.000606
-0.001086
-0.000931
-0.001118
-0.001437
-0.001626
-0.001573
-0.000216
-0.000172
-0.000176
-0.000201
-0.000050
-0.000081
-0.000042
-0.000096
-0.001675
-0.001653
-0.001668
-0.001037
-0.000993
-0.000976
-0.001537
-0.001577
-0.001590
-0.001542
-0.001670
-0.001675
-0.000131
-0.000176
-0.001479
-0.001455
-0.001439
-0.001406
-0.001495
-0.001511
-0.001537
-0.001040
-0.001071
-0.001027
-0.000288
-0.000342
-0.000322
-0.001349
-0.001294
-0.001335
-0.000329
-0.001374
-0.001422
-0.001381
-0.001395
-0.001410
-0.001429
-0.001457
-0.001357
-0.001325
-0.000309
-0.000277
-0.000295
-0.001009
-0.000243
-0.001419
-0.001473
-0.001513
-0.001496
-0.001534
-0.001561
-0.001544
-0.001503
-0.001084
-0.001401
-0.001351
-0.001393
-0.001386
-0.000114
-0.000144
-0.000101
-0.000064
-0.000045
-0.000523
-0.000474
-0.000487
-0.001363
-0.001366
-0.001491
-0.001442
-0.001485
-0.000075
-0.000048
-0.000036
-0.001451
-0.000100
-0.000088
-0.000123
-0.000082
-0.000045
-0.001658
-0.001623
-0.001612
-0.001640
-0.000133
-0.000140
-0.000114
-0.000196
-0.000157
-0.000220
-0.000046
-0.000080
-0.001617
-0.001582
-0.001671
-0.001667
-0.001619
-0.001661
-0.001338
-0.001296
-0.001331
-0.001603
-0.001590
-0.001638
-0.001278
-0.001630
-0.000117
-0.000089
-0.000048
-0.000040
-0.001684
-0.001629
-0.001638
-0.001607
-0.001658
-0.001583
-0.001683
-0.000158
-0.001675
-0.000118
-0.001520
-0.001575
-0.001538
-0.000157
-0.001593
-0.000139
-0.001018
-0.000258
-0.000239
-0.000217
-0.000268
-0.000238
-0.000230
-0.000187
-0.000191
-0.001486
-0.000046
-0.000598
-0.000582
-0.000634
-0.001585
-0.001560
-0.001592
-0.001584
-0.001508
-0.001501
-0.001549
-0.001631
-0.000080
-0.000120
-0.000139
-0.000982
-0.000956
-0.000162
-0.000966
-0.000966
-0.000268
-0.000990
-0.000934
-0.001483
-0.001475
-0.001442
-0.000236
-0.000240
-0.000188
-0.001516
-0.001561
-0.001425
-0.000271
-0.000311
-0.000264
-0.000213
-0.000585
-0.000554
-0.000537
-0.001469
-0.001439
-0.000093
-0.000053
-0.001441
-0.000516
-0.000139
-0.000168
-0.000935
-0.001628
-0.001635
-0.001602
-0.000053
-0.000157
-0.000189
-0.001574
-0.000814
-0.000818
-0.000764
-0.000778
-0.000274
-0.000225
-0.001352
-0.001317
-0.000315
-0.000367
-0.000309
-0.000246
-0.001669
-0.001619
-0.001669
-0.000111
-0.000039
-0.000167
-0.001532
-0.000459
-0.000424
-0.000449
-0.000106
-0.000060
-0.000407
-0.000216
-0.000190
-0.000503
-0.000464
-0.000510
-0.000603
-0.000570
-0.000559
-0.000610
-0.000382
-0.000516
-0.000547
-0.000320
-0.000537
-0.000518
-0.000493
-0.000465
-0.000362
-0.000575
-0.000602
-0.000197
-0.000208
-0.000158
-0.000335
-0.000280
-0.000409
-0.000494
-0.000517
-0.000562
-0.000471
-0.000445
-0.000120
-0.000419
-0.000046
-0.001515
-0.001484
-0.001469
-0.000491
-0.000538
-0.000567
-0.000436
-0.000479
-0.000416
-0.000467
-0.000518
-0.000413
-0.001580
-0.000453
-0.001541
-0.000449
-0.000414
-0.000452
-0.000416
-0.000465
-0.000390
-0.000458
-0.000419
-0.000385
-0.000545
-0.000550
-0.000495
-0.000592
-0.000588
-0.000049
-0.000085
-0.000101
-0.000126
-0.000317
-0.000365
-0.000361
-0.000510
-0.000448
-0.000469
-0.000329
-0.000348
-0.000425
-0.000377
-0.000213
-0.000172
-0.000160
-0.000153
-0.000267
-0.000267
-0.000313
-0.000268
-0.000237
-0.000235
-0.000435
-0.000388
-0.000412
-0.000427
-0.000317
-0.000293
-0.000273
-0.000073
-0.000535
-0.000586
-0.000570
-0.000371
-0.000424
-0.000398
-0.000088
-0.000206
-0.000167
-0.000200
-0.000148
-0.000414
-0.000620
-0.001310
-0.001315
-0.001263
-0.000131
-0.000116
-0.001273
-0.001672
-0.000338
-0.000309
-0.000366
-0.001623
-0.000287
-0.000637
-0.000618
-0.000164
-0.000085
-0.001385
-0.001337
-0.001377
-0.001347
-0.000325
-0.000560
-0.000338
-0.001254
-0.001307
-0.001267
-0.000676
-0.000694
-0.000043
-0.000653
-0.001120
-0.001128
-0.001069
-0.001079
-0.000365
-0.001442
-0.000156
-0.000388
-0.000273
-0.001503
-0.001372
-0.000361
-0.000537
-0.000532
-0.000573
-0.001473
-0.001024
-0.000977
-0.000986
-0.001034
-0.001289
-0.001315
-0.001260
-0.001293
-0.000937
-0.000053
-0.000930
-0.000613
-0.000664
-0.000244
-0.001228
-0.001237
-0.000289
-0.000591
-0.001284
-0.001166
-0.001178
-0.000709
-0.000679
-0.000731
-0.000361
-0.001468
-0.000953
-0.000921
-0.000957
-0.000939
-0.000906
-0.001042
-0.000996
-0.001032
-0.001006
-0.000989
-0.001088
-0.001079
-0.001057
-0.000494
-0.000456
-0.001218
-0.001183
-0.001184
-0.001216
-0.001247
-0.001322
-0.001137
-0.001130
-0.001108
-0.001159
-0.001527
-0.001546
-0.001432
-0.001400
-0.000663
-0.000606
-0.000648
-0.000623
-0.000624
-0.000644
-0.001321
-0.001278
-0.001327
-0.001270
-0.001228
-0.001236
-0.000689
-0.000676
-0.001242
-0.001230
-0.001255
-0.001287
-0.001238
-0.001215
-0.001187
-0.001322
-0.001420
-0.000732
-0.000749
-0.000708
-0.000738
-0.000789
-0.000767
-0.001277
-0.001226
-0.000557
-0.001200
-0.001212
-0.000718
-0.000476
-0.000515
-0.000639
-0.000716
-0.000682
-0.001400
-0.000715
-0.000702
-0.000677
-0.001176
-0.001188
-0.000742
-0.000730
-0.001137
-0.001166
-0.001136
-0.000848
-0.000801
-0.000844
-0.000811
-0.001174
-0.001189
-0.000882
-0.000893
-0.000844
-0.001229
-0.001207
-0.000767
-0.000754
-0.000729
-0.000770
-0.000760
-0.000692
-0.001392
-0.001115
-0.001086
-0.000794
-0.000781
-0.000047
-0.000103
-0.000201
-0.000198
-0.000819
-0.000805
-0.000780
-0.001368
-0.000250
-0.000870
-0.000856
-0.000065
-0.000831
-0.000743
-0.001087
-0.001124
-0.001353
-0.000844
-0.000229
-0.000833
-0.000921
-0.000908
-0.001149
-0.001161
-0.000512
-0.000896
-0.000883
-0.001417
-0.000793
-0.000787
-0.000946
-0.000934
-0.000959
-0.000997
-0.000985
-0.000555
-0.001064
-0.001035
-0.001122
-0.001135
-0.000350
-0.000182
-0.001036
-0.001074
-0.001148
-0.001197
-0.001177
-0.001010
-0.001048
-0.001055
-0.001005
-0.000116
-0.000511
-0.000954
-0.000985
-0.000873
-0.000903
-0.000853
-0.000882
-0.001105
-0.001075
-0.001073
-0.001021
-0.001060
-0.001099
-0.000243
-0.001156
-0.001111
-0.001359
-0.000383
-0.000883
-0.000889
-0.001127
-0.000971
-0.000933
-0.001013
-0.000857
-0.000860
-0.000820
-0.000871
-0.000035
-0.000936
-0.000627
-0.000650
-0.001102
-0.001247
-0.001024
-0.001297
-0.000963
-0.000972
-0.000912
-0.000921
-0.000864
-0.000744
-0.000706
-0.000720
-0.001061
-0.000856
-0.000896
-0.000866
-0.000819
-0.000812
-0.000832
-0.000824
-0.001204
-0.000338
-0.000373
-0.001189
-0.000641
-0.000665
-0.000740
-0.000766
-0.000775
-0.001162
-0.000713
-0.000312
-0.000794
-0.001394
-0.001134
-0.000675
-0.000684
-0.000896
-0.000914
-0.000656
-0.000830
-0.001108
-0.000628
-0.000783
-0.000596
-0.000277
SCALARS UY float 1
LOOKUP_TABLE default
-0.000000
-0.000000
-0.004000
-0.004000
-0.001600
-0.002400
-0.000000
-0.000000
-0.000000
0.000000
0.000000
-0.000000
-0.000000
-0.000000
-0.000000
0.000000
0.000000
0.000000
-0.000000
0.000000
0.000000
0.000000
0.000000
-0.000000
-0.000000
-0.000000
-0.000000
-0.000000
-0.000000
0.000000
0.000000
0.000000
-0.000000
-0.000000
0.000000
-0.000000
-0.000000
-0.000000
-0.000000
-0.000120
-0.000240
-0.000360
-0.000479
-0.000600
-0.000717
-0.000839
-0.000960
-0.001084
-0.001201
-0.001318
-0.001442
-0.001558
-0.001679
-0.001802
-0.001921
-0.002040
-0.002159
-0.002280
-0.002516
-0.002627
-0.002742
-0.002858
-0.002972
-0.003085
-0.003200
-0.003313
-0.003430
-0.003542
-0.003657
-0.003772
-0.003886
-0.004000
-0.004000
-0.004000
-0.004000
-0.004000
-0.004000
-0.004000
-0.004000
-0.004000
-0.004000
-0.004000
-0.004000
-0.004000
-0.004000
-0.004000
-0.004000
-0.004000
-0.004000
-0.004000
-0.004000
-0.004000
-0.004000
-0.004000
-0.004000
-0.004000
-0.004000
-0.004000
-0.004000
-0.004000
-0.004000
-0.004000
-0.004000
-0.004000
-0.003880
-0.003760
-0.003640
-0.003521
-0.003400
-0.003283
-0.003161
-0.003040
-0.002916
-0.002799
-0.002682
-0.002558
-0.002442
-0.002321
-0.002198
-0.002079
-0.001960
-0.001841
-0.001720
-0.001484
-0.001373
-0.001258
-0.001142
-0.001028
-0.000915
-0.000800
-0.000687
-0.000570
-0.000458
-0.000343
-0.000228
-0.000114
-0.001622
-0.001647
-0.001668
-0.001694
-0.001718
-0.001743
-0.001769
-0.001793
-0.001811
-0.001835
-0.001854
-0.001886
-0.001908
-0.001931
-0.001954
-0.001976
-0.001999
-0.002025
-0.002046
-0.002069
-0.002092
-0.002114
-0.002146
-0.002165
-0.002189
-0.002207
-0.002231
-0.002257
-0.002282
-0.002306
-0.002332
-0.002353
-0.002378
-0.002468
-0.002438
-0.001818
-0.001863
-0.001770
-0.001923
-0.003580
-0.003671
-0.003707
-0.003595
-0.002788
-0.002857
-0.002942
-0.002199
-0.002198
-0.002142
-0.003890
-0.003829
-0.003906
-0.003778
-0.003700
-0.003595
-0.003895
-0.003898
-0.002795
-0.002895
-0.002806
-0.002883
-0.002711
-0.002779
-0.002685
-0.003791
-0.003890
-0.003909
-0.003776
-0.003796
-0.003892
-0.003424
-0.003418
-0.003333
-0.003691
-0.003251
-0.003271
-0.003348
-0.003166
-0.003084
-0.003166
-0.003088
-0.003167
-0.003236
-0.002484
-0.002486
-0.002396
-0.003851
-0.002406
-0.002990
-0.002979
-0.002977
-0.003056
-0.003060
-0.002980
-0.002906
-0.002878
-0.003777
-0.003530
-0.003537
-0.003453
-0.003630
-0.002140
-0.002212
-0.002263
-0.002170
-0.002262
-0.003886
-0.003901
-0.003783
-0.002951
-0.003069
-0.002623
-0.002594
-0.002524
-0.001764
-0.001876
-0.001776
-0.002704
-0.001850
-0.003868
-0.003789
-0.003759
-0.003825
-0.003796
-0.003716
-0.003812
-0.003899
-0.001889
-0.001793
-0.001746
-0.003786
-0.003807
-0.003898
-0.002003
-0.001951
-0.002560
-0.002524
-0.002472
-0.002692
-0.002659
-0.002573
-0.003908
-0.003811
-0.003800
-0.003568
-0.003466
-0.003527
-0.003899
-0.003629
-0.001957
-0.002056
-0.003929
-0.002105
-0.003892
-0.002771
-0.003429
-0.003367
-0.003335
-0.003737
-0.003392
-0.001950
-0.003487
-0.003687
-0.002416
-0.002631
-0.002546
-0.003722
-0.003643
-0.002042
-0.002304
-0.003343
-0.003437
-0.003338
-0.001830
-0.001908
-0.001984
-0.002021
-0.003442
-0.003900
-0.003465
-0.003487
-0.003362
-0.003395
-0.003270
-0.003368
-0.002869
-0.002744
-0.003819
-0.003717
-0.003673
-0.003279
-0.003517
-0.003522
-0.003624
-0.003922
-0.002198
-0.002118
-0.002287
-0.003853
-0.003893
-0.003760
-0.002134
-0.003539
-0.003643
-0.003587
-0.003705
-0.003801
-0.003649
-0.003601
-0.003559
-0.003378
-0.001939
-0.001871
-0.002049
-0.002088
-0.002930
-0.003031
-0.002922
-0.003799
-0.003902
-0.003427
-0.003332
-0.003702
-0.003025
-0.003423
-0.003534
-0.003911
-0.002930
-0.003005
-0.002997
-0.002364
-0.002317
-0.002199
-0.003084
-0.002092
-0.002201
-0.002176
-0.002061
-0.003645
-0.003562
-0.003711
-0.003727
-0.001987
-0.001903
-0.002129
-0.002173
-0.003244
-0.003190
-0.003146
-0.003333
-0.003232
-0.003326
-0.003475
-0.002209
-0.002197
-0.002125
-0.002401
-0.002500
-0.002102
-0.002293
-0.002407
-0.002226
-0.002315
-0.002348
-0.002484
-0.002569
-0.002476
-0.002618
-0.003880
-0.002460
-0.002378
-0.003558
-0.003134
-0.003248
-0.003127
-0.003236
-0.002040
-0.003124
-0.003035
-0.002817
-0.002932
-0.002897
-0.002233
-0.002275
-0.001983
-0.002913
-0.002830
-0.002816
-0.003005
-0.002892
-0.002529
-0.003000
-0.002625
-0.003378
-0.003455
-0.003346
-0.003349
-0.003357
-0.003248
-0.002429
-0.002420
-0.002310
-0.002531
-0.002586
-0.002549
-0.003182
-0.002027
-0.003143
-0.003099
-0.003287
-0.003346
-0.003404
-0.003448
-0.002670
-0.002668
-0.002772
-0.002885
-0.002143
-0.002270
-0.002095
-0.002207
-0.002084
-0.002749
-0.002682
-0.002769
-0.002667
-0.002900
-0.003001
-0.002790
-0.003671
-0.003703
-0.003574
-0.002673
-0.002549
-0.003513
-0.003510
-0.003033
-0.003101
-0.003003
-0.002788
-0.002980
-0.003100
-0.003045
-0.003192
-0.003138
-0.003239
-0.003820
-0.003737
-0.003613
-0.003921
-0.002779
-0.002696
-0.002784
-0.002859
-0.003787
-0.003868
-0.003712
-0.003213
-0.003185
-0.003104
-0.003229
-0.002488
-0.002509
-0.002584
-0.002436
-0.001874
-0.003276
-0.003027
-0.003133
-0.003101
-0.003237
-0.003111
-0.003206
-0.003047
-0.003433
-0.003327
-0.003336
-0.003099
-0.003443
-0.002949
-0.002839
-0.003195
-0.002594
-0.002558
-0.002526
-0.002453
-0.002625
-0.002313
-0.002676
-0.002413
-0.003494
-0.003514
-0.003593
-0.002861
-0.002968
-0.001687
-0.003064
-0.002232
-0.002346
-0.002325
-0.002193
-0.002313
-0.003466
-0.002594
-0.002212
-0.003540
-0.003142
-0.003820
-0.002138
-0.002030
-0.001928
-0.001957