# vtk DataFile Version 2.0
Test
ASCII
DATASET POLYDATA
POINTS 25657 float
0.000000 0.000000 0.000000
1.000000 0.000000 0.000000
1.000000 1.000000 0.000000
0.000000 1.000000 0.000000
0.000000 0.400000 0.000000
1.000000 0.600000 0.000000
0.006993 0.000000 0.000000
0.013986 0.000000 0.000000
0.020979 0.000000 0.000000
0.027972 0.000000 0.000000
0.034965 0.000000 0.000000
0.041958 0.000000 0.000000
0.048951 0.000000 0.000000
0.055944 0.000000 0.000000
0.062937 0.000000 0.000000
0.069930 0.000000 0.000000
0.076923 0.000000 0.000000
0.083916 0.000000 0.000000
0.090909 0.000000 0.000000
0.097902 0.000000 0.000000
0.104895 0.000000 0.000000
0.111888 0.000000 0.000000
0.118881 0.000000 0.000000
0.125874 0.000000 0.000000
0.132867 0.000000 0.000000
0.139860 0.000000 0.000000
0.146853 0.000000 0.000000
0.153846 0.000000 0.000000
0.160839 0.000000 0.000000
0.167832 0.000000 0.000000
0.174825 0.000000 0.000000
0.181818 0.000000 0.000000
0.188811 0.000000 0.000000
0.195804 0.000000 0.000000
0.202797 0.000000 0.000000
0.209790 0.000000 0.000000
0.216783 0.000000 0.000000
0.223776 0.000000 0.000000
0.230769 0.000000 0.000000
0.237762 0.000000 0.000000
0.244755 0.000000 0.000000
0.251748 0.000000 0.000000
0.258741 0.000000 0.000000
0.265734 0.000000 0.000000
0.272727 0.000000 0.000000
0.279720 0.000000 0.000000
0.286713 0.000000 0.000000
0.293706 0.000000 0.000000
0.300699 0.000000 0.000000
0.307692 0.000000 0.000000
0.314685 0.000000 0.000000
0.321678 0.000000 0.000000
0.328671 0.000000 0.000000
0.335664 0.000000 0.000000
0.342657 0.000000 0.000000
0.349650 0.000000 0.000000
0.356643 0.000000 0.000000
0.363636 0.000000 0.000000
0.370629 0.000000 0.000000
0.377622 0.000000 0.000000
0.384615 0.000000 0.000000
0.391608 0.000000 0.000000
0.398601 0.000000 0.000000
0.405594 0.000000 0.000000
0.412587 0.000000 0.000000
0.419580 0.000000 0.000000
0.426573 0.000000 0.000000
0.433566 0.000000 0.000000
0.440559 0.000000 0.000000
0.447552 0.000000 0.000000
0.454545 0.000000 0.000000
0.461538 0.000000 0.000000
0.468531 0.000000 0.000000
0.475524 0.000000 0.000000
0.482517 0.000000 0.000000
0.489510 0.000000 0.000000
0.496503 0.000000 0.000000
0.503497 0.000000 0.000000
0.510490 0.000000 0.000000
0.517483 0.000000 0.000000
0.524476 0.000000 0.000000
0.531469 0.000000 0.000000
0.538462 0.000000 0.000000
0.545455 0.000000 0.000000
0.552448 0.000000 0.000000
0.559441 0.000000 0.000000
0.566434 0.000000 0.000000
0.573427 0.000000 0.000000
0.580420 0.000000 0.000000
0.587413 0.000000 0.000000
0.594406 0.000000 0.000000
0.601399 0.000000 0.000000
0.608392 0.000000 0.000000
0.615385 0.000000 0.000000
0.622378 0.000000 0.000000
0.629371 0.000000 0.000000
0.636364 0.000000 0.000000
0.643357 0.000000 0.000000
0.650350 0.000000 0.000000
0.657343 0.000000 0.000000
0.664336 0.000000 0.000000
0.671329 0.000000 0.000000
0.678322 0.000000 0.000000
0.685315 0.000000 0.000000
0.692308 0.000000 0.000000
0.699301 0.000000 0.000000
0.706294 0.000000 0.000000
0.713287 0.000000 0.000000
0.720280 0.000000 0.000000
0.727273 0.000000 0.000000
0.734266 0.000000 0.000000
0.741259 0.000000 0.000000
0.748252 0.000000 0.000000
0.755245 0.000000 0.000000
0.762238 0.000000 0.000000
0.769231 0.000000 0.000000
0.776224 0.000000 0.000000
0.783217 0.000000 0.000000
0.790210 0.000000 0.000000
0.797203 0.000000 0.000000
0.804196 0.000000 0.000000
0.811189 0.000000 0.000000
0.818182 0.000000 0.000000
0.825175 0.000000 0.000000
0.832168 0.000000 0.000000
0.839161 0.000000 0.000000
0.846154 0.000000 0.000000
0.853147 0.000000 0.000000
0.860140 0.000000 0.000000
0.867133 0.000000 0.000000
0.874126 0.000000 0.000000
0.881119 0.000000 0.000000
0.888112 0.000000 0.000000
0.895105 0.000000 0.000000
0.902098 0.000000 0.000000
0.909091 0.000000 0.000000
0.916084 0.000000 0.000000
0.923077 0.000000 0.000000
0.930070 0.000000 0.000000
0.937063 0.000000 0.000000
0.944056 0.000000 0.000000
0.951049 0.000000 0.000000
0.958042 0.000000 0.000000
0.965035 0.000000 0.000000
0.972028 0.000000 0.000000
0.979021 0.000000 0.000000
0.986014 0.000000 0.000000
0.993007 0.000000 0.000000
1.000000 0.006977 0.000000
1.000000 0.013953 0.000000
1.000000 0.020930 0.000000
1.000000 0.027907 0.000000
1.000000 0.034884 0.000000
1.000000 0.041860 0.000000
1.000000 0.048837 0.000000
1.000000 0.055814 0.000000
1.000000 0.062791 0.000000
1.000000 0.069767 0.000000
1.000000 0.076744 0.000000
1.000000 0.083721 0.000000
1.000000 0.090698 0.000000
1.000000 0.097674 0.000000
1.000000 0.104651 0.000000
1.000000 0.111628 0.000000
1.000000 0.118605 0.000000
1.000000 0.125581 0.000000
1.000000 0.132558 0.000000
1.000000 0.139535 0.000000
1.000000 0.146512 0.000000
1.000000 0.153488 0.000000
1.000000 0.160465 0.000000
1.000000 0.167442 0.000000
1.000000 0.174419 0.000000
1.000000 0.181395 0.000000
1.000000 0.188372 0.000000
1.000000 0.195349 0.000000
1.000000 0.202326 0.000000
1.000000 0.209302 0.000000
1.000000 0.216279 0.000000
1.000000 0.223256 0.000000
1.000000 0.230233 0.000000
1.000000 0.237209 0.000000
1.000000 0.244186 0.000000
1.000000 0.251163 0.000000
1.000000 0.258140 0.000000
1.000000 0.265116 0.000000
1.000000 0.272093 0.000000
1.000000 0.279070 0.000000
1.000000 0.286047 0.000000
1.000000 0.293023 0.000000
1.000000 0.300000 0.000000
1.000000 0.306977 0.000000
1.000000 0.313953 0.000000
1.000000 0.320930 0.000000
1.000000 0.327907 0.000000
1.000000 0.334884 0.000000
1.000000 0.341860 0.000000
1.000000 0.348837 0.000000
1.000000 0.355814 0.000000
1.000000 0.362791 0.000000
1.000000 0.369767 0.000000
1.000000 0.376744 0.000000
1.000000 0.383721 0.000000
1.000000 0.390698 0.000000
1.000000 0.397674 0.000000
1.000000 0.404651 0.000000
1.000000 0.411628 0.000000
1.000000 0.418605 0.000000
1.000000 0.425581 0.000000
1.000000 0.432558 0.000000
1.000000 0.439535 0.000000
1.000000 0.446512 0.000000
1.000000 0.453488 0.000000
1.000000 0.460465 0.000000
1.000000 0.467442 0.000000
1.000000 0.474419 0.000000
1.000000 0.481395 0.000000
1.000000 0.488372 0.000000
1.000000 0.495349 0.000000
1.000000 0.502326 0.000000
1.000000 0.509302 0.000000
1.000000 0.516279 0.000000
1.000000 0.523256 0.000000
1.000000 0.530233 0.000000
1.000000 0.537209 0.000000
1.000000 0.544186 0.000000
1.000000 0.551163 0.000000
1.000000 0.558140 0.000000
1.000000 0.565116 0.000000
1.000000 0.572093 0.000000
1.000000 0.579070 0.000000
1.000000 0.586047 0.000000
1.000000 0.593023 0.000000
1.000000 0.606897 0.000000
1.000000 0.613793 0.000000
1.000000 0.620690 0.000000
1.000000 0.627586 0.000000
1.000000 0.634483 0.000000
1.000000 0.641379 0.000000
1.000000 0.648276 0.000000
1.000000 0.655172 0.000000
1.000000 0.662069 0.000000
1.000000 0.668966 0.000000
1.000000 0.675862 0.000000
1.000000 0.682759 0.000000
1.000000 0.689655 0.000000
1.000000 0.696552 0.000000
1.000000 0.703448 0.000000
1.000000 0.710345 0.000000
1.000000 0.717241 0.000000
1.000000 0.724138 0.000000
1.000000 0.731034 0.000000
1.000000 0.737931 0.000000
1.000000 0.744828 0.000000
1.000000 0.751724 0.000000
1.000000 0.758621 0.000000
1.000000 0.765517 0.000000
1.000000 0.772414 0.000000
1.000000 0.779310 0.000000
1.000000 0.786207 0.000000
1.000000 0.793103 0.000000
1.000000 0.800000 0.000000
1.000000 0.806897 0.000000
1.000000 0.813793 0.000000
1.000000 0.820690 0.000000
1.000000 0.827586 0.000000
1.000000 0.834483 0.000000
1.000000 0.841379 0.000000
1.000000 0.848276 0.000000
1.000000 0.855172 0.000000
1.000000 0.862069 0.000000
1.000000 0.868966 0.000000
1.000000 0.875862 0.000000
1.000000 0.882759 0.000000
1.000000 0.889655 0.000000
1.000000 0.896552 0.000000
1.000000 0.903448 0.000000
1.000000 0.910345 0.000000
1.000000 0.917241 0.000000
1.000000 0.924138 0.000000
1.000000 0.931034 0.000000
1.000000 0.937931 0.000000
1.000000 0.944828 0.000000
1.000000 0.951724 0.000000
1.000000 0.958621 0.000000
1.000000 0.965517 0.000000
1.000000 0.972414 0.000000
1.000000 0.979310 0.000000
1.000000 0.986207 0.000000
1.000000 0.993103 0.000000
0.993007 1.000000 0.000000
0.986014 1.000000 0.000000
0.979021 1.000000 0.000000
0.972028 1.000000 0.000000
0.965035 1.000000 0.000000
0.958042 1.000000 0.000000
0.951049 1.000000 0.000000
0.944056 1.000000 0.000000
0.937063 1.000000 0.000000
0.930070 1.000000 0.000000
0.923077 1.000000 0.000000
0.916084 1.000000 0.000000
0.909091 1.000000 0.000000
0.902098 1.000000 0.000000
0.895105 1.000000 0.000000
0.888112 1.000000 0.000000
0.881119 1.000000 0.000000
0.874126 1.000000 0.000000
0.867133 1.000000 0.000000
0.860140 1.000000 0.000000
0.853147 1.000000 0.000000
0.846154 1.000000 0.000000
0.839161 1.000000 0.000000
0.832168 1.000000 0.000000
0.825175 1.000000 0.000000
0.818182 1.000000 0.000000
0.811189 1.000000 0.000000
0.804196 1.000000 0.000000
0.797203 1.000000 0.000000
0.790210 1.000000 0.000000
0.783217 1.000000 0.000000
0.776224 1.000000 0.000000
0.769231 1.000000 0.000000
0.762238 1.000000 0.000000
0.755245 1.000000 0.000000
0.748252 1.000000 0.000000
0.741259 1.000000 0.000000
0.734266 1.000000 0.000000
0.727273 1.000000 0.000000
0.720280 1.000000 0.000000
0.713287 1.000000 0.000000
0.706294 1.000000 0.000000
0.699301 1.000000 0.000000
0.692308 1.000000 0.000000
0.685315 1.000000 0.000000
0.678322 1.000000 0.000000
0.671329 1.000000 0.000000
0.664336 1.000000 0.000000
0.657343 1.000000 0.000000
0.650350 1.000000 0.000000
0.643357 1.000000 0.000000
0.636364 1.000000 0.000000
0.629371 1.000000 0.000000
0.622378 1.000000 0.000000
0.615385 1.000000 0.000000
0.608392 1.000000 0.000000
0.601399 1.000000 0.000000
0.594406 1.000000 0.000000
0.587413 1.000000 0.000000
0.580420 1.000000 0.000000
0.573427 1.000000 0.000000
0.566434 1.000000 0.000000
0.559441 1.000000 0.000000
0.552448 1.000000 0.000000
0.545455 1.000000 0.000000
0.538462 1.000000 0.000000
0.531469 1.000000 0.000000
0.524476 1.000000 0.000000
0.517483 1.000000 0.000000
0.510490 1.000000 0.000000
0.503497 1.000000 0.000000
0.496503 1.000000 0.000000
0.489510 1.000000 0.000000
0.482517 1.000000 0.000000
0.475524 1.000000 0.000000
0.468531 1.000000 0.000000
0.461538 1.000000 0.000000
[...]
POINT_DATA 25657
SCALARS UX float 1
LOOKUP_TABLE default
0.000992
0.040943
-0.000001
-0.057514
-0.066177
-0.000011
0.001282
0.001557
0.001823
0.002091
0.002352
0.002608
0.002856
0.003098
0.003335
0.003568
0.003799
0.004030
0.004254
0.004480
0.004706
0.004929
0.005156
0.005385
0.005615
0.005847
0.006082
0.006317
0.006557
0.006797
0.007048
0.007293
0.007545
0.007800
0.008060
0.008340
0.008658
0.008975
0.009299
0.009629
0.009965
0.010304
0.010648
0.010996
0.011348
0.011706
0.012065
0.012429
0.012793
0.013160
0.013529
0.013899
0.014271
0.014644
0.015017
0.015391
0.015765
0.016140
0.016514
0.016889
0.017263
0.017637
0.018010
0.018382
0.018753
0.019116
0.019496
0.019864
0.020233
0.020593
0.020960
0.021328
0.021687
0.022051
0.022411
0.022772
0.023133
0.023495
0.023857
0.024223
0.024578
0.024904
0.025220
0.025533
0.025840
0.026134
0.026435
0.026726
0.027016
0.027306
0.027588
0.027869
0.028151
0.028416
0.028691
0.028963
0.029226
0.029491
0.029756
0.030017
0.030272
0.030525
0.030777
0.031029
0.031278
0.031523
0.031770
0.032008
0.032255
0.032496
0.032725
0.032957
0.033196
0.033427
0.033656
0.033880
0.034106
0.034334
0.034560
0.034784
0.035000
0.035220
0.035437
0.035657
0.035876
0.036091
0.036305
0.036517
0.036734
0.036946
0.037156
0.037366
0.037584
0.037794
0.038001
0.038212
0.038419
0.038635
0.038847
0.039055
0.039267
0.039482
0.039699
0.039914
0.040129
0.040338
0.040535
0.040740
0.040895
0.040852
0.040778
0.040720
0.040651
0.040595
0.040536
0.040489
0.040446
0.040400
0.040362
0.040320
0.040290
0.040258
0.040236
0.040207
0.040191
0.040179
0.040174
0.040166
0.040160
0.040165
0.040172
0.040181
0.040194
0.040217
0.040237
0.040269
0.040311
0.040343
0.040389
0.040449
0.040518
0.040577
0.040577
0.040575
0.040573
0.040558
0.040538
0.040532
0.040506
0.040490
0.040463
0.040435
0.040407
0.040373
0.040331
0.040292
0.040243
0.040181
0.040131
0.040062
0.039994
0.039916
0.039841
0.039764
0.039684
0.039603
0.039532
0.039462
0.039400
0.039346
0.039293
0.039248
0.039192
0.039113
0.039014
0.038867
0.038655
0.038374
0.037982
0.037489
0.037326
0.036997
0.036341
0.035766
0.035135
0.034424
0.033783
0.033060
0.032727
0.034306
0.034562
0.032265
0.000843
0.000003
-0.000003
0.000001
-0.000002
-0.000002
-0.000002
0.000000
-0.000000
0.000000
0.000000
-0.000000
-0.000000
-0.000000
0.000000
0.000000
-0.000000
-0.000000
-0.000000
0.000000
-0.000000
0.000000
-0.000000
0.000000
0.000000
0.000000
0.000000
-0.000000
-0.000000
-0.000000
-0.000000
0.000000
0.000000
-0.000000
-0.000000
-0.000000
-0.000000
-0.000000
0.000000
-0.000000
0.000000
0.000000
-0.000000
-0.000000
-0.000000
-0.000000
-0.000000
-0.000000
0.000000
0.000000
0.000000
0.000000
-0.000000
0.000000
-0.000000
-0.000000
-0.000000
-0.000000
-0.000734
-0.001635
-0.002419
-0.003195
-0.003942
-0.004658
-0.005381
-0.006079
-0.006770
-0.007455
-0.008129
-0.008802
-0.009453
-0.010104
-0.010749
-0.011391
-0.012011
-0.012639
-0.013250
-0.013858
-0.014460
-0.015048
-0.015635
-0.016205
-0.016791
-0.017352
-0.017915
-0.018474
-0.019029
-0.019570
-0.020123
-0.020656
-0.021188
-0.021718
-0.022243
-0.022761
-0.023273
-0.023784
-0.024289
-0.024792
-0.025286
-0.025779
-0.026265
-0.026746
-0.027222
-0.027693
-0.028159
-0.028619
-0.029073
-0.029523
-0.029967
-0.030405
-0.030838
-0.031267
-0.031691
-0.032109
-0.032521
-0.032928
-0.033330
-0.033721
-0.034126
-0.034513
-0.034899
-0.035270
-0.035646
-0.036021
-0.036381
-0.036742
-0.037097
-0.037448
-0.037796
-0.038140
-0.038480
-0.038815
-0.039147
-0.039474
-0.039797
-0.040120
-0.040439
-0.040746
-0.041059
-0.041364
-0.041669
-0.041972
-0.042267
-0.042562
-0.042857
-0.043135
-0.043424
-0.043710
-0.043987
-0.044265
-0.044545
-0.044819
-0.045090
-0.045358
-0.045626
-0.045893
-0.046157
-0.046419
-0.046684
-0.046939
-0.047203
-0.047462
-0.047710
-0.047963
-0.048221
-0.048474
-0.048726
-0.048973
-0.049223
-0.049476
-0.049728
-0.049977
-0.050222
-0.050471
-0.050718
-0.050970
-0.051222
-0.051471
-0.051718
-0.051968
-0.052223
-0.052474
-0.052724
-0.052976
-0.053235
-0.053491
-0.053743
-0.054000
-0.054256
-0.054520
-0.054784
-0.055044
-0.055310
-0.055579
-0.055847
-0.056121
-0.056397
-0.056676
-0.056960
-0.057241
-0.057414
-0.057319
-0.057228
-0.057154
-0.057070
-0.057001
-0.056929
-0.056871
-0.056820
-0.056764
-0.056717
-0.056667
-0.056631
-0.056592
-0.056564
-0.056528
-0.056509
-0.056491
-0.056484
-0.056470
-0.056459
-0.056462
-0.056467
-0.056471
-0.056481
-0.056503
-0.056518
-0.056547
-0.056588
-0.056613
-0.056652
-0.056704
-0.056752
-0.056806
-0.056870
-0.056936
-0.057016
-0.057087
-0.057160
-0.057262
-0.057345
-0.057451
-0.057551
-0.057660
-0.057781
-0.057903
-0.058029
-0.058168
-0.058309
-0.058444
-0.058610
-0.058761
-0.058929
-0.059094
-0.059274
-0.059461
-0.059649
-0.059840
-0.060045
-0.060252
-0.060464
-0.060685
-0.060904
-0.061140
-0.061374
-0.061607
-0.061853
-0.062101
-0.062345
-0.062611
-0.062861
-0.063120
-0.063367
-0.063592
-0.063807
-0.064006
-0.064186
-0.064406
-0.064658
-0.065227
-0.066211
-0.067406
-0.068286
-0.068184
-0.067788
-0.065029
-0.061336
-0.056989
-0.053847
-0.050213
-0.046857
-0.043905
-0.041233
-0.038616
-0.036208
-0.033965
-0.031880
-0.029952
-0.028184
-0.026503
-0.024877
-0.023323
-0.021848
-0.020478
-0.019185
-0.017980
-0.016849
-0.015778
-0.014767
-0.013789
-0.012896
-0.012022
-0.011196
-0.010414
-0.009660
-0.008951
-0.008273
-0.007638
-0.007008
-0.006446
-0.005877
-0.005348
-0.004846
-0.004372
-0.003917
-0.003486
-0.003075
-0.002688
-0.002319
-0.001971
-0.001643
-0.001339
-0.001036
-0.000766
-0.000506
-0.000262
-0.000046
0.000160
0.000358
0.000533
0.000702
0.000850
-0.065401
-0.064447
-0.060607
-0.059057
-0.058194
-0.057242
-0.056113
-0.054907
-0.053645
-0.052429
-0.051238
-0.050077
-0.048925
-0.047855
-0.046740
-0.045621
-0.044588
-0.043456
-0.042441
-0.041401
-0.040362
-0.039311
-0.038332
-0.037340
-0.036355
-0.035433
-0.034600
-0.033678
-0.032839
-0.031964
-0.031153
-0.030387
-0.029649
-0.028827
-0.028092
-0.027396
-0.026705
-0.026011
-0.025340
-0.024693
-0.024026
-0.023372
-0.022751
-0.022091
-0.021483
-0.020876
-0.020336
-0.019823
-0.019232
-0.018675
-0.018133
-0.017638
-0.017094
-0.016591
-0.016063
-0.015602
-0.015127
-0.014611
-0.014133
-0.013653
-0.013242
-0.012809
-0.012381
-0.011913
-0.011467
-0.011068
-0.010635
-0.010217
-0.009829
-0.009401
-0.009009
-0.008592
-0.008176
-0.007766
-0.007361
-0.006989
-0.006589
-0.006239
-0.005866
-0.005483
-0.005139
-0.004759
-0.004367
-0.004020
-0.003674
-0.003359
-0.002980
-0.002608
-0.002202
-0.001846
-0.001507
-0.001106
-0.000742
-0.000340
0.000012
0.000406
0.000828
0.001291
0.001675
0.002118
0.002693
0.003258
0.003868
0.004439
0.005020
0.005561
0.005971
0.006372
0.006849
0.007182
0.007356
0.007848
0.008039
0.008348
0.008331
0.008540
0.009971
0.009750
0.010413
0.010362
0.010460
0.010292
0.011860
0.009772
0.011207
0.010134
0.012036
0.011198
0.012019
0.010254
0.008983
0.007041
0.007971
0.006279
0.006573
0.007074
-0.001181
-0.003941
0.001587
-0.000246
0.004504
0.007921
0.004552
0.004838
0.001823
-0.046767
-0.046739
-0.046988
-0.057367
-0.057682
-0.057396
-0.057698
-0.057904
-0.057964
-0.057711
-0.057307
-0.057409
0.000127
0.000249
0.000319
0.000016
-0.057303
-0.035236
-0.033725
-0.033096
-0.006551
-0.006689
-0.005289
-0.065850
-0.063495
-0.064304
-0.062942
-0.000546
-0.000491
-0.036727
-0.036754
-0.036466
0.000459
0.000428
-0.052045
-0.051867
-0.052118
-0.051898
-0.051722
-0.051444
-0.007277
-0.007225
-0.006915
-0.007518
-0.052375
-0.052663
-0.052432
-0.052568
-0.057246
-0.057227
-0.057709
-0.057840
-0.006113
-0.006252
-0.005682
-0.005469
-0.016815
-0.017243
-0.016728
-0.017308
-0.055690
-0.055787
-0.055558
-0.055890
-0.005074
-0.004421
-0.005101
-0.055710
-0.055765
-0.055532
-0.032879
-0.034243
-0.032976
-0.000564
-0.000577
-0.000362
-0.000701
-0.033838
-0.004601
-0.003145
-0.002656
-0.002929
-0.000237
-0.000124
-0.000342
-0.060411
-0.061003
-0.060630
-0.000227
0.000119
0.000201
0.000043
0.000232
-0.055813
-0.056062
-0.056027
-0.019703
-0.019399
-0.019150
-0.043979
-0.043765
-0.043916
-0.043615
-0.033420
-0.033218
-0.044392
-0.044489
-0.044252
-0.019795
-0.051158
-0.051046
-0.051263
-0.053863
-0.053750
-0.054256
-0.054423
-0.052041
-0.052286
-0.052128
-0.000168
-0.000399
-0.000301
-0.000543
-0.000529
-0.000411
-0.000427
-0.027130
-0.025533
-0.026854
-0.000303
-0.000385
-0.000240
-0.000494
-0.000245
-0.000646
0.011119
0.011278
0.010940
0.009251
-0.055719
-0.055788
-0.055995
-0.025426
-0.008530
-0.008308
-0.008921
-0.033800
-0.007771
-0.059513
-0.058999
-0.059143
0.009576
-0.043693
-0.043498
-0.043446
-0.043258
-0.031153
-0.029378
-0.031067
-0.028750
-0.046637
-0.047318
-0.046719
-0.035885
-0.035944
-0.036171
-0.046914
-0.033033
-0.033273
-0.031098
-0.044044
-0.044344
-0.044142
-0.044337
-0.056002
-0.055796
-0.053530
-0.053454
-0.053269
-0.011351
-0.011370
-0.010817
-0.053257
-0.055535
-0.002409
-0.002641
-0.002240
-0.002407
-0.035643
-0.035285
-0.043181
-0.043398
-0.043372
-0.000116
-0.000111
-0.000083
-0.048519
-0.048369
-0.047755
-0.043621
-0.047882
-0.047968
-0.048464
-0.051866
-0.051946
-0.045575
-0.045856
-0.045740
-0.065217
-0.063297
-0.055395
-0.055242
-0.055147
-0.000435
-0.000906
-0.000946
-0.001329
-0.000445
-0.042013
-0.042053
-0.041714
-0.054527
-0.054565
-0.054372
0.000974
0.000443
0.000502
-0.002100
-0.002536
-0.002553
-0.003054
-0.001656
-0.001695
-0.001164
-0.003064
-0.002748
-0.002609
-0.042456
-0.054990
-0.055098
-0.054902
-0.045717
-0.057013
-0.045245
-0.045492
-0.045509
-0.045276
-0.002887
-0.003040
-0.000970
-0.001066
-0.019597
-0.019418
-0.019151
-0.064040
-0.055323
-0.055287
-0.055063
-0.055876
-0.056006
-0.055740
-0.060698
-0.061008
-0.061923
-0.062213
-0.055539
-0.018893
-0.044490
-0.044668
-0.044749
-0.044537
-0.044762
-0.044731
-0.044545
0.002049
0.002340
0.007272
-0.007368
-0.007148
-0.007488
-0.051742
-0.051979
-0.051935
-0.014104
-0.014193
-0.014591
-0.044915
-0.002569
-0.001736
-0.043439
-0.043234
-0.043487
-0.043173
-0.056456
-0.000493
-0.052024
-0.051725
-0.052599
-0.015246
-0.014761
-0.015177
-0.055491
-0.054085
-0.054191
-0.054317
-0.036368
-0.006610
-0.006023
-0.006339
-0.053941
-0.014538
-0.052763
-0.052902
-0.052700
-0.062476
-0.052990
-0.044602
-0.044372
-0.044418
-0.013607
-0.013874
-0.013278
-0.044161
-0.013201
-0.038289
-0.039804
-0.039956
-0.041461
-0.055250
-0.055039
0.004703
0.004833
-0.059986
-0.059924
-0.059526
-0.059355
-0.055552
-0.001667
-0.000235
-0.001514
-0.000506
-0.009291
-0.009361
-0.008808
-0.044852
-0.044979
-0.045109
-0.045255
-0.026576
-0.028093
-0.027474
-0.028947
-0.001550
-0.001247
-0.013762
-0.013432
-0.001807
-0.001621
-0.002081
-0.001312
-0.012482
-0.012840
-0.012938
-0.013395
-0.056886
-0.059732
-0.056650
-0.056640
-0.056859
-0.060232
-0.048976
-0.048853
-0.049091
-0.000467
-0.036105
-0.034593
-0.035989
-0.001343
-0.000998
-0.054797
-0.054838
-0.054604
-0.033665
-0.061025
-0.061783
-0.055244
-0.055275
-0.055035
-0.059783
-0.059960
-0.042780
-0.042794
-0.043009
-0.042530
-0.003944
-0.003472
-0.003585
-0.054787
0.000311
-0.041659
-0.042005
-0.041878
-0.064181
-0.059275
-0.058831
-0.059159
-0.006699
-0.006180
-0.006345
-0.054277
-0.053947
-0.053836
-0.019166
-0.018647
-0.019088
-0.042409
-0.003249
-0.056668
-0.056321
-0.056371
-0.056237
-0.056875
-0.056645
-0.018933
-0.042391
-0.042166
-0.042542
-0.042104
-0.002364
-0.001866
-0.002122
-0.016003
-0.016569
-0.016335
-0.016243
-0.056454
-0.056432
-0.056270
-0.000579
-0.041792
-0.041825
-0.041497
-0.058799
-0.062238
-0.000906
-0.001167
-0.000858
-0.041708
-0.059247
0.003018
-0.059022
-0.020637
-0.020181
-0.020284
-0.052320
-0.052459
-0.052681
-0.020348
-0.061006
-0.061710
-0.001178
-0.002520
-0.052098
0.003107
0.003726
0.003477
0.003698
-0.002671
-0.021336
-0.020733
-0.021172
-0.056854
-0.020803
-0.056467
-0.056437
0.004885
0.006457
0.005220
0.005762
-0.000482
-0.001308
-0.000848
-0.001616
-0.020560
-0.020525
-0.021023
-0.039076
-0.039342
-0.039635
-0.038676
-0.063793
-0.020844
-0.030662
-0.032058
-0.031619
-0.063306
-0.000987
-0.000757
-0.001482
-0.000781
-0.003738
-0.043703
-0.043480
-0.043623
-0.043358
-0.056011
-0.012935
-0.031911
-0.015409
-0.015662
-0.051079
-0.050912
-0.051118
0.000364
-0.002896
-0.002760
-0.002182
-0.000260
0.002729
0.001585
0.004281
-0.056087
-0.056199
-0.056250
-0.050966
-0.001573
-0.001552
-0.001802
-0.058258
-0.022604
-0.022587
-0.023041
-0.061985
-0.059935
-0.060542
-0.061426
-0.022863
-0.001999
-0.056731
-0.056618
-0.056332
-0.056260
-0.000987
-0.000563
0.004678
0.004363
-0.035483
-0.035405
-0.035775
-0.001564
-0.001886
-0.017426
-0.017958
-0.018545
-0.018565
0.005533
0.004948
-0.063063
-0.062574
-0.063617
-0.062387
-0.061907
-0.003481
-0.004246
-0.011166
-0.011611
-0.010847
-0.055918
-0.055763
-0.035176
-0.003241
-0.002550
-0.055836
-0.056042
-0.000115
-0.000149
-0.018434
-0.017881
-0.019081
0.002248
0.004177
-0.059260
-0.057681
-0.004223
-0.004454
-0.059727
-0.006542
-0.056433
-0.056574
-0.003846
-0.056163
-0.056072
-0.001193
-0.000739
-0.008217
-0.009308
-0.008172
-0.001826
-0.002201
0.005585
-0.017554
-0.017932
-0.016623
-0.049196
-0.050130
-0.050008
-0.061195
-0.062854
-0.063358
-0.034607
-0.034856
-0.034510
-0.062106
-0.061658
0.005485
0.004534
0.003786
-0.004021
-0.034567
-0.009181
-0.009578
-0.009551
-0.055659
-0.022221
-0.009965
-0.003743
-0.002967
-0.004763
-0.055594
-0.055781
-0.055506
-0.058626
-0.046360
-0.046587
-0.046595
-0.059461
-0.059986
-0.057696
-0.057703
-0.058067
-0.057075
-0.000642
-0.000256
-0.000064
-0.000345
-0.019488
-0.019942
-0.018657
-0.058085
-0.055027
-0.001207
-0.056237
-0.018426
-0.017934
-0.018085
-0.017559
-0.055968
-0.055915
-0.056415
-0.046284
-0.060858
-0.062669
-0.059940
-0.059895
-0.059609
-0.001459
-0.048150
-0.048068
-0.048296
-0.055418
-0.055531
-0.055329
-0.047957
-0.061311
-0.061558
-0.040987
-0.041648
-0.041764
-0.002146
-0.002452
-0.000877
0.005992
-0.041034
-0.054734
-0.054973
0.006539
-0.049974
-0.050091
-0.049799
0.005123
0.003278
-0.058029
-0.032544
-0.032645
-0.032299
0.002833
0.001667
0.000991
-0.000057
-0.004593
-0.055933
-0.055988
-0.055712
-0.004702
-0.055389
-0.055874
-0.032968
-0.004202
-0.062980
-0.063264
-0.005382
-0.002563
-0.002576
-0.001694
-0.003147
-0.054328
-0.054573
-0.055364
-0.004607
-0.004099
-0.055232
0.003986
0.004657
0.005758
0.003422
-0.001127
-0.055049
-0.055105
-0.054915
-0.056189
-0.056266
-0.006015
-0.006360
-0.006560
-0.004419
-0.056488
0.006211
-0.034013
-0.033659
-0.033925
-0.057262
-0.057016
-0.057408
-0.056956
-0.033448
-0.053894
-0.054003
-0.054147
0.004282
0.003496
0.002411
0.000768
-0.043138
-0.043345
0.000992
-0.007309
-0.002566
-0.012414
-0.012502
-0.012002
-0.058973
-0.058741
-0.056139
-0.054581
-0.054595
-0.054853
0.000339
-0.054355
-0.012890
-0.043011
-0.043330
-0.043244
-0.035504
-0.035563
-0.035158
-0.043542
-0.050632
-0.050674
-0.050813
-0.057256
-0.056915
-0.057308
-0.050447
-0.050986
-0.050874
-0.051118
-0.040743
-0.043336
-0.042450
0.006952
-0.048404
-0.048086
-0.048099
-0.008356
-0.008640
-0.008166
0.004825
-0.050294
-0.050296
-0.050513
-0.050526
-0.061548
-0.062085
-0.061593
-0.035315
-0.051222
-0.051034
-0.050954
-0.052516
-0.052224
-0.052278
-0.056529
-0.057427
-0.056922
-0.048432
-0.052382
-0.052747
-0.052962
-0.052971
-0.052756
-0.047041
-0.046711
-0.046619
-0.047022
-0.002934
-0.002442
-0.002838
-0.059204
-0.059720
-0.055159
-0.004936
-0.005181
-0.048628
-0.048705
-0.048919
-0.051246
-0.051018
-0.051290
-0.053198
-0.053119
-0.052999
-0.051100
-0.054728
-0.054947
-0.054729
-0.056105
-0.056037
-0.055778
-0.057006
-0.056627
-0.000724
-0.004877
0.001841
-0.001406
-0.001165
-0.001858
-0.054962
-0.055165
-0.054402
-0.055851
-0.055617
-0.055825
-0.055497
-0.056454
-0.053480
-0.053497
-0.052988
-0.001582
-0.001994
-0.002299
-0.013288
-0.013592
-0.013909
-0.014245
-0.000077
-0.000075
-0.000116
-0.000069
-0.004663
-0.004132
-0.052969
-0.053155
-0.053203
0.001309
0.000943
0.001938
-0.058682
-0.058442
-0.052845
-0.002365
-0.002164
-0.046529
-0.047500
-0.046069
-0.002767
-0.003098
-0.003102
-0.002726
0.002786
-0.002343
-0.002762
-0.010184
-0.009987
-0.010418
-0.055613
-0.055531
-0.055299
-0.056018
-0.055829
-0.055578
-0.055415
-0.049750
-0.049535
-0.049765
-0.047199
-0.046063
-0.052580
-0.052309
-0.051294
-0.050591
-0.010300
-0.010420
-0.009911
-0.010127
-0.034865
-0.034643
0.000336
-0.001788
-0.001675
-0.000010
0.001318
0.000910
-0.057801
-0.058180
-0.058877
-0.059451
-0.055796
-0.056062
-0.052163
-0.053207
-0.006540
0.000480
-0.001568
-0.001091
-0.058439
-0.058702
-0.035399
-0.035100
-0.035475
-0.051914
-0.051633
-0.051724
-0.034906
-0.005180
-0.005464
-0.056094
-0.055684
-0.056283
-0.051579
-0.051580
-0.051772
-0.051720
-0.035363
-0.035734
-0.054787
-0.035473
-0.052444
-0.051503
-0.050748
-0.035747
-0.035768
-0.035655
-0.056393
-0.056796
-0.056263
-0.040644
-0.040937
-0.040715
-0.040936
-0.058386
-0.003667
-0.003877
-0.004170
-0.004305
-0.049461
-0.036065
-0.036433
-0.036321
-0.055515
-0.055408
-0.043065
-0.042678
-0.042771
-0.043150
-0.000051
-0.010929
-0.010816
-0.009950
-0.002049
-0.002410
-0.047214
-0.046982
-0.046861
-0.046702
0.000397
0.000133
0.000101
-0.003879
-0.003373
-0.054793
-0.055006
-0.001676
-0.003215
0.001409
-0.058521
-0.058959
-0.055161
-0.055399
-0.055254
0.001286
0.001575
0.002188
-0.011743
-0.055859
-0.055626
-0.008110
-0.008892
-0.008518
-0.035060
-0.034808
-0.035171
-0.008285
-0.007585
-0.007902
-0.058014
-0.001629
-0.001083
-0.055919
-0.000707
-0.000915
-0.008908
-0.009062
0.003072
0.004558
-0.053729
-0.053791
-0.053996
-0.051859
-0.051603
-0.051660
-0.053893
-0.053867
-0.053646
-0.053585
-0.053484
0.000622
0.000838
0.000692
-0.052168
-0.055016
-0.054900
-0.007570
-0.007005
-0.007600
-0.034632
-0.051361
-0.051657
-0.051475
-0.050786
-0.051006
0.004224
-0.003918
-0.054416
-0.054607
-0.054396
-0.007082
-0.019143
-0.019509
0.000183
-0.059726
-0.060104
-0.051122
-0.050963
-0.050896
-0.050749
-0.002771
-0.003096
-0.003260
-0.003577
-0.055717
-0.056022
-0.053399
-0.053554
-0.054557
-0.054487
-0.059193
-0.059311
-0.059733
-0.059776
0.000436
0.000830
-0.004387
-0.004644
0.000230
0.000337
-0.009468
-0.009524
-0.005709
-0.052627
-0.052873
-0.001422
-0.001392
-0.000961
-0.000932
-0.008752
-0.008524
-0.008035
-0.041372
-0.041095
-0.041094
-0.045972
-0.046142
-0.045446
-0.007569
-0.007126
-0.007323
-0.054073
-0.054273
-0.006867
-0.045842
-0.043242
-0.041134
-0.042861
-0.019073
-0.019489
-0.019422
-0.019842
-0.057470
-0.057639
0.001902
-0.000843
-0.000368
-0.000395
-0.053982
-0.053784
-0.054064
-0.054277
-0.054193
-0.015111
-0.015786
-0.015521
-0.045291
-0.045518
-0.045419
-0.045472
-0.053927
-0.054015
-0.054152
-0.054257
-0.053713
-0.053687
-0.053893
-0.015528
-0.053955
-0.054028
-0.053799
-0.054659
-0.002177
-0.002536
-0.053764
-0.034610
-0.034915
-0.034840
-0.004092
-0.034582
-0.001260
-0.000722
-0.001296
0.000309
-0.000759
-0.053701
-0.053878
-0.053657
-0.013570
-0.013599
-0.014049
-0.002907
0.001274
0.000607
-0.055176
0.000132
-0.013177
-0.054890
-0.055075
-0.055260
-0.051390
-0.051432
-0.051259
-0.001741
-0.001131
-0.051234
0.000611
0.000001
0.001323
-0.041107
-0.042436
-0.041809
-0.051959
-0.051985
-0.042245
-0.060350
-0.060093
-0.055424
-0.051802
-0.051927
-0.052131
-0.009334
-0.008774
-0.052111
-0.053276
-0.053379
-0.043639
-0.043924
-0.043764
-0.058184
-0.057692
-0.054761
-0.054849
-0.054540
-0.053964
-0.053851
-0.054107
-0.051359
-0.051591
-0.051607
-0.033675
-0.033717
-0.032856
0.003612
0.001585
0.003217
0.001329
-0.009507
-0.009467
-0.009140
-0.000473
-0.000440
-0.001003
-0.000799
-0.017736
-0.017488
-0.017208
-0.055002
-0.055184
-0.055039
-0.053499
-0.016366
-0.015814
-0.016116
-0.016045
0.000537
-0.054387
-0.054298
-0.060625
-0.060960
-0.055631
-0.055951
-0.006394
-0.007018
-0.007018
-0.060362
-0.060270
-0.059913
-0.059791
-0.059378
-0.007696
-0.007806
-0.008337
-0.050540
-0.050323
-0.050438
-0.050196
-0.044386
-0.044538
-0.044311
-0.044682
-0.053185
-0.053322
-0.003452
-0.003775
-0.003103
-0.002927
-0.003525
-0.002474
-0.024097
-0.024094
-0.043894
-0.060586
-0.009890
0.001752
0.007011
-0.008525
-0.008691
-0.009014
0.000392
0.000788
-0.004622
-0.004901
0.001785
-0.005429
-0.005079
-0.005617
-0.053931
-0.054133
-0.054021
-0.005000
-0.005091