# vtk DataFile Version 2.0
Test
ASCII
DATASET POLYDATA
POINTS 1770 float
0.000000 0.000000 0.000000
1.000000 0.000000 0.000000
1.000000 1.000000 0.000000
0.000000 1.000000 0.000000
0.000000 0.500000 0.000000
1.000000 0.700000 0.000000
0.076923 0.000000 0.000000
0.153846 0.000000 0.000000
0.230769 0.000000 0.000000
0.307692 0.000000 0.000000
0.384615 0.000000 0.000000
0.461538 0.000000 0.000000
0.538462 0.000000 0.000000
0.615385 0.000000 0.000000
0.692308 0.000000 0.000000
0.769231 0.000000 0.000000
0.846154 0.000000 0.000000
0.923077 0.000000 0.000000
1.000000 0.075421 0.000000
1.000000 0.143732 0.000000
1.000000 0.205602 0.000000
1.000000 0.261640 0.000000
1.000000 0.312395 0.000000
1.000000 0.358364 0.000000
1.000000 0.400000 0.000000
1.000000 0.437711 0.000000
1.000000 0.471866 0.000000
1.000000 0.502801 0.000000
1.000000 0.530820 0.000000
1.000000 0.556197 0.000000
1.000000 0.579182 0.000000
1.000000 0.600000 0.000000
1.000000 0.618855 0.000000
1.000000 0.635933 0.000000
1.000000 0.651401 0.000000
1.000000 0.665410 0.000000
1.000000 0.678099 0.000000
1.000000 0.689591 0.000000
1.000000 0.711139 0.000000
1.000000 0.725174 0.000000
1.000000 0.742857 0.000000
1.000000 0.765136 0.000000
1.000000 0.793206 0.000000
1.000000 0.828571 0.000000
1.000000 0.873129 0.000000
1.000000 0.929269 0.000000
0.923077 1.000000 0.000000
0.846154 1.000000 0.000000
0.769231 1.000000 0.000000
0.692308 1.000000 0.000000
0.615385 1.000000 0.000000
0.538462 1.000000 0.000000
0.461538 1.000000 0.000000
0.384615 1.000000 0.000000
0.307692 1.000000 0.000000
0.230769 1.000000 0.000000
0.153846 1.000000 0.000000
0.076923 1.000000 0.000000
0.000000 0.926029 0.000000
0.000000 0.861633 0.000000
0.000000 0.805574 0.000000
0.000000 0.756771 0.000000
0.000000 0.714286 0.000000
0.000000 0.677300 0.000000
0.000000 0.645102 0.000000
0.000000 0.617073 0.000000
0.000000 0.592671 0.000000
0.000000 0.571429 0.000000
0.000000 0.552936 0.000000
0.000000 0.536837 0.000000
0.000000 0.522822 0.000000
0.000000 0.510621 0.000000
0.000000 0.489379 0.000000
0.000000 0.477178 0.000000
0.000000 0.463163 0.000000
0.000000 0.447064 0.000000
0.000000 0.428571 0.000000
0.000000 0.407329 0.000000
0.000000 0.382927 0.000000
0.000000 0.354898 0.000000
0.000000 0.322700 0.000000
0.000000 0.285714 0.000000
0.000000 0.243229 0.000000
0.000000 0.194426 0.000000
0.000000 0.138367 0.000000
0.000000 0.073971 0.000000
0.009804 0.501961 0.000000
0.019608 0.503922 0.000000
0.029412 0.505882 0.000000
0.039216 0.507843 0.000000
0.049020 0.509804 0.000000
0.058824 0.511765 0.000000
0.068627 0.513725 0.000000
0.078431 0.515686 0.000000
0.088235 0.517647 0.000000
0.098039 0.519608 0.000000
0.107843 0.521569 0.000000
0.117647 0.523529 0.000000
0.127451 0.525490 0.000000
0.137255 0.527451 0.000000
0.147059 0.529412 0.000000
0.156863 0.531373 0.000000
0.166667 0.533333 0.000000
0.176471 0.535294 0.000000
0.186275 0.537255 0.000000
0.196078 0.539216 0.000000
0.205882 0.541176 0.000000
0.215686 0.543137 0.000000
0.225490 0.545098 0.000000
0.235294 0.547059 0.000000
0.245098 0.549020 0.000000
0.254902 0.550980 0.000000
0.264706 0.552941 0.000000
0.274510 0.554902 0.000000
0.284314 0.556863 0.000000
0.294118 0.558824 0.000000
0.303922 0.560784 0.000000
0.313725 0.562745 0.000000
0.323529 0.564706 0.000000
0.333333 0.566667 0.000000
0.343137 0.568627 0.000000
0.352941 0.570588 0.000000
0.362745 0.572549 0.000000
0.372549 0.574510 0.000000
0.382353 0.576471 0.000000
0.392157 0.578431 0.000000
0.401961 0.580392 0.000000
0.411765 0.582353 0.000000
0.421569 0.584314 0.000000
0.431373 0.586275 0.000000
0.441176 0.588235 0.000000
0.450980 0.590196 0.000000
0.460784 0.592157 0.000000
0.470588 0.594118 0.000000
0.480392 0.596078 0.000000
0.490196 0.598039 0.000000
0.500000 0.600000 0.000000
0.509804 0.601961 0.000000
0.519608 0.603922 0.000000
0.529412 0.605882 0.000000
0.539216 0.607843 0.000000
0.549020 0.609804 0.000000
0.558824 0.611765 0.000000
0.568627 0.613725 0.000000
0.578431 0.615686 0.000000
0.588235 0.617647 0.000000
0.598039 0.619608 0.000000
0.607843 0.621569 0.000000
0.617647 0.623529 0.000000
0.627451 0.625490 0.000000
0.637255 0.627451 0.000000
0.647059 0.629412 0.000000
0.656863 0.631373 0.000000
0.666667 0.633333 0.000000
0.676471 0.635294 0.000000
0.686275 0.637255 0.000000
0.696078 0.639216 0.000000
0.705882 0.641176 0.000000
0.715686 0.643137 0.000000
0.725490 0.645098 0.000000
0.735294 0.647059 0.000000
0.745098 0.649020 0.000000
0.754902 0.650980 0.000000
0.764706 0.652941 0.000000
0.774510 0.654902 0.000000
0.784314 0.656863 0.000000
0.794118 0.658824 0.000000
0.803922 0.660784 0.000000
0.813725 0.662745 0.000000
0.823529 0.664706 0.000000
0.833333 0.666667 0.000000
0.843137 0.668627 0.000000
0.852941 0.670588 0.000000
0.862745 0.672549 0.000000
0.872549 0.674510 0.000000
0.882353 0.676471 0.000000
0.892157 0.678431 0.000000
0.901961 0.680392 0.000000
0.911765 0.682353 0.000000
0.921569 0.684314 0.000000
0.931373 0.686275 0.000000
0.941176 0.688235 0.000000
0.950980 0.690196 0.000000
0.960784 0.692157 0.000000
0.970588 0.694118 0.000000
0.980392 0.696078 0.000000
0.990196 0.698039 0.000000
0.113534 0.606152 0.000000
0.107142 0.586373 0.000000
0.121751 0.595256 0.000000
0.125314 0.578403 0.000000
0.608008 0.765681 0.000000
0.585349 0.764086 0.000000
0.591336 0.741952 0.000000
0.592072 0.793974 0.000000
0.550258 0.931017 0.000000
0.517159 0.896365 0.000000
0.557866 0.881366 0.000000
0.885592 0.689744 0.000000
0.900640 0.689195 0.000000
0.893881 0.699663 0.000000
0.791014 0.782870 0.000000
0.806073 0.755575 0.000000
0.814238 0.783906 0.000000
0.755950 0.661588 0.000000
0.766977 0.664624 0.000000
0.759150 0.673362 0.000000
0.237587 0.602856 0.000000
0.244276 0.587613 0.000000
0.255222 0.600052 0.000000
0.435458 0.690521 0.000000
0.445365 0.672382 0.000000
0.452783 0.695442 0.000000
0.434168 0.596027 0.000000
0.443497 0.595614 0.000000
0.440408 0.604928 0.000000
0.125631 0.548518 0.000000
0.136149 0.544058 0.000000
0.133888 0.554367 0.000000
0.684531 0.649457 0.000000
0.693022 0.657375 0.000000
0.680758 0.660164 0.000000
0.688513 0.672143 0.000000
0.209804 0.572062 0.000000
0.211391 0.587677 0.000000
0.198823 0.579466 0.000000
0.912173 0.691199 0.000000
0.919923 0.697571 0.000000
0.840788 0.691515 0.000000
0.836260 0.679067 0.000000
0.846581 0.680639 0.000000
0.610270 0.644163 0.000000
0.606363 0.631487 0.000000
0.618571 0.634947 0.000000
0.703833 0.664888 0.000000
0.705328 0.651574 0.000000
0.718551 0.657874 0.000000
0.476110 0.619965 0.000000
0.470756 0.606568 0.000000
0.483603 0.608681 0.000000
0.787587 0.718715 0.000000
0.799121 0.708516 0.000000
0.805593 0.724753 0.000000
0.545957 0.632159 0.000000
0.551865 0.620855 0.000000
0.557339 0.632078 0.000000
0.494856 0.610760 0.000000
0.503640 0.608636 0.000000
0.360926 0.590762 0.000000
0.373577 0.584863 0.000000
0.371469 0.597941 0.000000
0.331595 0.581327 0.000000
0.327955 0.573642 0.000000
0.337441 0.574864 0.000000
0.452770 0.600633 0.000000
0.450058 0.613037 0.000000
0.678157 0.643781 0.000000
0.204164 0.604889 0.000000
0.194170 0.595839 0.000000
0.640959 0.641938 0.000000
0.656321 0.640868 0.000000
0.651180 0.656559 0.000000
0.987799 0.705954 0.000000
0.990005 0.721233 0.000000
0.977245 0.712758 0.000000
0.974986 0.729512 0.000000
0.333802 0.812487 0.000000
0.361509 0.790617 0.000000
0.367317 0.828894 0.000000
0.604086 0.908536 0.000000
0.602873 0.861865 0.000000
0.486055 0.632060 0.000000
0.466853 0.635244 0.000000
0.541673 0.619743 0.000000
0.532472 0.631076 0.000000
0.541658 0.649026 0.000000
0.522313 0.819315 0.000000
0.510522 0.853722 0.000000
0.487163 0.814552 0.000000
0.308272 0.686111 0.000000
0.313305 0.664245 0.000000
0.331890 0.672844 0.000000
0.462242 0.618446 0.000000
0.459244 0.608252 0.000000
0.859980 0.693314 0.000000
0.849777 0.691819 0.000000
0.856777 0.681858 0.000000
0.942362 0.711719 0.000000
0.941048 0.728383 0.000000
0.931633 0.715819 0.000000
0.696422 0.925997 0.000000
0.743778 0.899483 0.000000
0.736714 0.951105 0.000000
0.710099 0.873175 0.000000
0.706855 0.827503 0.000000
0.748341 0.846430 0.000000
0.404569 0.612087 0.000000
0.400941 0.600304 0.000000
0.413129 0.601428 0.000000
0.739879 0.801859 0.000000
0.689244 0.763692 0.000000
0.711842 0.784429 0.000000
0.682971 0.800595 0.000000
0.849502 0.703362 0.000000
0.872437 0.693808 0.000000
0.880424 0.705421 0.000000
0.247911 0.613985 0.000000
0.230071 0.625013 0.000000
0.426705 0.605906 0.000000
0.417314 0.614950 0.000000
0.564489 0.781794 0.000000
0.542753 0.763395 0.000000
0.563888 0.747070 0.000000
0.540876 0.795125 0.000000
0.254442 0.628223 0.000000
0.675859 0.845039 0.000000
0.389585 0.604484 0.000000
0.382141 0.593934 0.000000
0.394023 0.590296 0.000000
0.210190 0.549067 0.000000
0.218913 0.550855 0.000000
0.211545 0.558654 0.000000
0.509032 0.731434 0.000000
0.480547 0.728234 0.000000
0.498097 0.707679 0.000000
0.408331 0.625772 0.000000
0.737928 0.766371 0.000000
0.713411 0.751924 0.000000
0.236129 0.559953 0.000000
0.247527 0.565947 0.000000
0.238129 0.573668 0.000000
0.277601 0.586118 0.000000
0.273407 0.573379 0.000000
0.286542 0.574133 0.000000
0.695186 0.646009 0.000000
0.128809 0.536590 0.000000
0.385032 0.584469 0.000000
0.959668 0.883416 0.000000
0.604963 0.829728 0.000000
0.627628 0.795445 0.000000
0.636557 0.838109 0.000000
0.226927 0.903063 0.000000
0.196567 0.877414 0.000000
0.253614 0.858563 0.000000
0.488755 0.686131 0.000000
0.474772 0.701653 0.000000
0.208074 0.832028 0.000000
0.596571 0.714257 0.000000
0.619682 0.736143 0.000000
0.620249 0.709238 0.000000
0.426920 0.878300 0.000000
0.456147 0.845659 0.000000
0.471012 0.891685 0.000000
0.607192 0.695818 0.000000
0.525672 0.709461 0.000000
0.509369 0.690109 0.000000
0.535964 0.736172 0.000000
0.737088 0.738406 0.000000
0.716812 0.727414 0.000000
0.735580 0.717065 0.000000
0.717714 0.708748 0.000000
0.733899 0.701419 0.000000
0.434815 0.713754 0.000000
0.456218 0.743004 0.000000
0.415116 0.743197 0.000000
0.459688 0.716033 0.000000
0.441105 0.768871 0.000000
[...]
POINT_DATA 1770
SCALARS UX float 1
LOOKUP_TABLE default
-0.391359
0.000001
0.000001
-0.457475
-0.412423
0.025279
-0.358478
-0.325441
-0.292529
-0.260045
-0.228151
-0.196734
-0.165770
-0.135106
-0.105318
-0.075985
-0.047634
-0.022312
0.018657
0.025285
0.029292
0.031198
0.032943
0.034086
0.034895
0.035580
0.036310
0.036918
0.037511
0.038092
0.038657
0.039155
0.039501
0.039558
0.039149
0.037531
0.035155
0.030692
0.020148
0.016097
0.013480
0.012602
0.012842
0.014141
0.015692
0.017830
-0.000006
-0.044575
-0.087519
-0.128020
-0.167180
-0.205039
-0.242192
-0.278601
-0.314582
-0.350544
-0.386182
-0.421747
-0.445863
-0.436851
-0.430931
-0.427721
-0.425919
-0.425024
-0.424743
-0.424701
-0.424675
-0.424616
-0.424168
-0.422852
-0.420317
-0.416680
-0.405770
-0.402203
-0.400040
-0.398689
-0.398130
-0.398240
-0.398360
-0.398645
-0.398989
-0.399192
-0.399479
-0.399336
-0.398761
-0.396692
-0.407753
-0.403197
-0.398686
-0.394245
-0.389836
-0.385467
-0.381150
-0.376821
-0.372457
-0.368122
-0.363820
-0.359541
-0.355247
-0.350984
-0.346700
-0.342431
-0.338071
-0.333700
-0.329391
-0.325142
-0.320924
-0.316691
-0.312452
-0.308199
-0.303927
-0.299643
-0.295491
-0.291249
-0.286985
-0.282790
-0.278573
-0.274373
-0.270161
-0.265957
-0.261810
-0.257689
-0.253511
-0.249332
-0.245109
-0.240908
-0.236666
-0.232438
-0.228205
-0.223963
-0.219712
-0.215469
-0.211217
-0.206971
-0.202696
-0.198430
-0.194271
-0.190088
-0.185870
-0.181661
-0.177437
-0.173199
-0.168977
-0.164747
-0.160547
-0.156312
-0.152101
-0.147826
-0.143644
-0.139431
-0.135204
-0.130963
-0.126716
-0.122465
-0.118214
-0.113981
-0.109634
-0.105374
-0.101112
-0.096823
-0.092552
-0.088250
-0.083888
-0.079530
-0.075223
-0.070917
-0.066580
-0.062236
-0.057948
-0.053687
-0.049459
-0.045166
-0.040877
-0.036608
-0.032305
-0.028025
-0.023694
-0.019366
-0.015099
-0.010841
-0.006406
-0.001986
0.002432
0.006895
0.011399
0.015981
0.020550
-0.373995
-0.376382
-0.370146
-0.367962
-0.159095
-0.169007
-0.166676
-0.165650
-0.189396
-0.201973
-0.181913
-0.032506
-0.024326
-0.031063
-0.079072
-0.073290
-0.068972
-0.087861
-0.083449
-0.089984
-0.319269
-0.315224
-0.311294
-0.234582
-0.230146
-0.227063
-0.226581
-0.221678
-0.226365
-0.363995
-0.357649
-0.361270
-0.119571
-0.117737
-0.124274
-0.122855
-0.328925
-0.330075
-0.335012
-0.018990
-0.017377
-0.055119
-0.053672
-0.049008
-0.154453
-0.152812
-0.147885
-0.114297
-0.109917
-0.105458
-0.212921
-0.212029
-0.206360
-0.081516
-0.075954
-0.073740
-0.182563
-0.176416
-0.177086
-0.201462
-0.196185
-0.261228
-0.253023
-0.257960
-0.272771
-0.271846
-0.267489
-0.218910
-0.223856
-0.120765
-0.334136
-0.338229
-0.138946
-0.130919
-0.137645
0.015385
0.011926
0.007582
0.002829
-0.280959
-0.267705
-0.266579
-0.161980
-0.160576
-0.210301
-0.219335
-0.181138
-0.188691
-0.186847
-0.196367
-0.202609
-0.212047
-0.289832
-0.287514
-0.279520
-0.219168
-0.218071
-0.046119
-0.050786
-0.044249
-0.009946
-0.013148
-0.015831
-0.118787
-0.096175
-0.100966
-0.111724
-0.114396
-0.095497
-0.245045
-0.244235
-0.238637
-0.100763
-0.123793
-0.113463
-0.125654
-0.052892
-0.040099
-0.038924
-0.315107
-0.323322
-0.233230
-0.239618
-0.177920
-0.187621
-0.178564
-0.188207
-0.312714
-0.127660
-0.250827
-0.251557
-0.244717
-0.322202
-0.318413
-0.325100
-0.202549
-0.214955
-0.207383
-0.244770
-0.102582
-0.113514
-0.313260
-0.309421
-0.316050
-0.299898
-0.299047
-0.292851
-0.112952
-0.359042
-0.247071
-0.000021
-0.159446
-0.150000
-0.145325
-0.337707
-0.348364
-0.320223
-0.211402
-0.217518
-0.338731
-0.164602
-0.154431
-0.154320
-0.242435
-0.227042
-0.223159
-0.159891
-0.195407
-0.202460
-0.190807
-0.103466
-0.112337
-0.104156
-0.111871
-0.104587
-0.234886
-0.225523
-0.243494
-0.224053
-0.232169
-0.378560
-0.374972
-0.371096
-0.179648
-0.174790
-0.170252
-0.375630
-0.380870
0.003090
-0.006554
-0.007721
0.003983
-0.258979
-0.259720
-0.269736
-0.267760
-0.087102
-0.080581
-0.001440
-0.006592
-0.361231
-0.394088
-0.375090
-0.392330
-0.394679
-0.387919
-0.389027
-0.399656
-0.033522
-0.040511
-0.203633
-0.198887
-0.207123
-0.195341
0.005614
-0.094082
-0.085686
-0.087546
-0.199882
-0.335876
-0.178577
-0.248143
-0.269970
-0.316192
-0.417635
-0.417962
-0.252274
-0.011259
-0.013800
-0.319559
-0.292089
-0.286805
-0.303622
-0.304816
-0.257470
-0.273861
-0.014618
-0.029300
-0.016401
-0.026735
-0.125553
-0.408652
-0.400182
-0.391998
-0.389032
-0.138498
-0.410396
-0.407444
-0.399935
-0.397456
-0.412109
-0.378118
-0.396468
-0.137148
-0.137290
-0.396350
-0.129872
-0.131199
-0.193516
-0.195686
-0.415916
-0.191249
-0.414226
-0.400000
-0.020604
-0.026497
-0.027624
-0.145898
-0.384801
-0.408684
-0.325109
-0.079499
-0.020578
-0.025338
-0.385860
-0.390831
-0.045417
-0.035294
-0.060454
-0.397790
-0.017020
-0.018149
-0.207465
-0.214857
-0.375903
-0.367852
-0.000715
-0.364071
-0.370406
-0.362389
-0.369861
-0.362109
-0.319191
-0.331521
-0.316955
-0.384506
-0.389118
-0.395618
-0.335714
-0.060904
-0.173322
-0.386336
-0.391683
-0.100985
-0.095996
-0.158424
-0.150144
-0.152355
-0.300783
-0.290998
-0.296514
-0.294451
-0.133923
-0.142110
-0.137793
-0.137505
-0.037982
-0.044184
-0.049746
-0.397451
-0.078600
-0.047573
-0.056200
-0.051436
-0.057147
-0.051832
-0.080573
-0.087126
-0.065628
-0.062896
-0.058705
-0.243112
-0.238226
-0.236734
-0.095830
-0.064580
-0.069917
-0.089372
-0.165892
-0.160936
-0.096361
-0.221122
-0.381823
-0.390032
-0.383474
-0.276125
-0.270640
-0.276047
-0.083754
-0.091099
-0.092835
-0.269147
-0.261541
-0.256949
-0.264269
-0.256215
-0.249984
-0.035199
-0.245617
-0.405435
-0.380475
-0.227754
-0.226010
-0.249745
-0.369375
-0.365594
-0.231722
-0.357049
-0.346074
-0.349128
-0.351566
-0.231852
-0.080042
-0.122312
-0.076499
-0.332613
-0.340106
-0.336666
-0.128906
-0.120146
-0.132180
-0.032797
-0.040780
-0.034871
-0.349586
-0.358064
-0.126170
-0.118111
-0.122988
-0.130300
-0.363375
-0.200635
-0.341595
-0.338250
-0.333904
-0.341303
-0.218919
-0.356369
-0.350331
-0.351244
-0.210316
-0.241398
-0.248037
-0.327233
-0.333275
-0.159046
-0.158426
-0.164731
-0.344975
-0.239622
-0.142850
-0.148700
-0.345371
-0.348763
-0.353079
-0.355198
-0.185983
-0.194252
-0.348681
-0.341341
-0.250767
-0.281420
-0.263731
-0.263478
-0.269451
-0.231200
-0.275671
-0.277520
-0.252319
-0.323374
-0.317821
-0.099526
-0.105928
-0.163250
-0.213507
-0.207374
-0.280545
-0.285909
-0.288497
-0.281882
-0.283072
-0.110748
-0.109639
-0.130365
-0.137030
-0.402212
-0.125349
-0.320191
-0.204354
-0.367923
-0.360839
-0.372334
-0.373961
-0.378337
-0.369414
-0.366430
-0.384103
-0.381757
-0.066852
-0.061599
-0.067510
-0.355581
-0.188802
-0.202410
-0.072035
-0.303315
-0.296424
-0.303319
-0.295534
-0.308936
-0.307842
-0.074119
-0.300250
-0.282828
-0.296747
-0.300930
-0.351034
-0.160931
-0.151877
-0.070108
-0.325681
-0.316156
-0.328452
-0.337376
-0.387822
-0.336858
-0.196251
-0.199099
-0.192729
-0.287323
-0.285400
-0.265438
-0.270242
-0.258875
-0.046258
-0.045151
-0.272215
-0.280208
-0.346328
-0.341368
-0.145013
-0.145264
-0.322357
-0.102693
-0.170995
-0.171592
-0.296145
-0.301207
-0.116940
-0.281318
-0.293510
-0.404544
-0.309870
-0.310744
-0.305263
-0.185192
-0.178032
-0.167833
-0.305967
-0.265135
-0.181724
-0.380108
-0.373602
-0.212540
-0.256605
-0.323973
-0.233168
-0.289774
-0.306067
-0.258582
-0.318297
-0.311957
-0.353296
-0.380367
-0.401251
-0.405851
-0.198452
-0.386171
-0.243682
-0.146586
-0.367664
-0.378759
-0.416569
-0.024604
-0.403791
-0.023497
-0.175237
-0.414886
-0.410918
-0.409744
-0.404062
-0.415831
-0.400904
-0.402728
-0.407465
-0.410236
-0.408428
-0.183456
-0.166604
-0.277141
-0.283528
-0.424234
-0.005816
-0.304114
-0.412328
-0.411317
-0.295324
-0.409680
-0.005204
-0.328848
0.001630
-0.361501
-0.091780
-0.416287
0.010810
0.002828
-0.282717
-0.058723
-0.065316
-0.062186
-0.356310
-0.364083
-0.220966
-0.289005
-0.293263
-0.340810
-0.348878
-0.174462
-0.218028
-0.143710
-0.147937
-0.345930
-0.360240
-0.081844
-0.378080
-0.363140
-0.187796
-0.356410
-0.366079
-0.302773
-0.143250
-0.332222
-0.238864
-0.171115
-0.039813
-0.034964
-0.341739
-0.056806
-0.280918
-0.288895
-0.166314
-0.234386
-0.078923
-0.306059
-0.273191
-0.308777
-0.255062
-0.098619
-0.292738
-0.144763
-0.181485
-0.330849
-0.336700
-0.339231
-0.329484
-0.135640
-0.142429
-0.140672
-0.140743
-0.179627
-0.180221
-0.184375
-0.183935
-0.175927
-0.200854
-0.346310
-0.341951
-0.186388
-0.390168
-0.388704
-0.001946
-0.014426
-0.003616
-0.378984
-0.381129
-0.013990
-0.212455
-0.240712
0.017772
0.013106
0.024437
0.013228
-0.021148
-0.019503
-0.025676
-0.014634
-0.269615
-0.272008
-0.264282
-0.263479
-0.186918
-0.177702
-0.186107
-0.181824
-0.344982
-0.340378
-0.336687
-0.335707
-0.321699
-0.322715
-0.210999
-0.216117
-0.208417
0.007915
-0.344262
-0.336966
-0.343425
-0.340629
-0.329113
-0.317656
-0.321403
-0.310919
-0.175426
-0.179485
-0.172214
-0.147525
-0.144834
-0.093167
-0.096219
-0.084640
-0.102470
-0.060438
-0.057116
-0.065411
-0.049628
-0.145905
-0.224868
-0.229813
-0.231097
0.001379
0.001901
-0.004041
-0.234462
-0.239133
-0.233703
-0.236730
-0.373912
-0.371416
-0.367488
-0.307214
-0.310198
-0.314375
-0.222491
-0.228888
-0.064214
-0.061255
-0.056738
-0.142046
-0.135607
-0.135948
-0.130149
-0.095023
-0.088247
-0.207752
-0.210836
-0.215331
-0.189984
-0.192788
-0.187041
-0.093955
-0.088498
-0.096137
-0.195998
-0.201820
-0.203906
-0.196657
-0.299895
-0.293919
-0.298832
-0.293431
-0.305875
-0.301775
-0.307442
-0.168240
-0.168493
-0.176872
-0.135818
-0.125686
-0.123871
-0.170984
-0.299599
-0.304714
-0.296235
-0.122655
-0.123470
-0.127986
-0.121138
-0.121501
-0.114957
-0.283227
-0.283511
-0.290629
-0.117696
-0.084763
-0.100547
-0.091302
-0.095128
-0.310484
-0.311229
-0.224844
-0.229772
-0.224692
-0.150707
-0.156665
-0.154636
-0.157351
-0.386069
-0.389324
-0.382952
-0.387069
-0.106445
-0.108756
-0.113159
-0.136688
-0.141056
0.023487
0.026967
0.030263
0.019644
-0.264407
-0.253063
-0.272429
-0.113824
0.004710
-0.005611
-0.189398
-0.182812
-0.251376
-0.244427
-0.248710
-0.110603
-0.108439
-0.117123
-0.130267
0.012677
0.009405
0.004180
0.002074
-0.244690
-0.055871
-0.050875
-0.051694
-0.124306
-0.120344
-0.126009
-0.310642
-0.304817
-0.159113
-0.165874
-0.161707
-0.196409
-0.191622
-0.198253
-0.263487
-0.253097
-0.346509
-0.352853
-0.348139
-0.356122
-0.251346
-0.254858
-0.258031
-0.110583
-0.151755
-0.152659
-0.000468
0.007006
0.005599
-0.372404
-0.361321
-0.370559
-0.360160
-0.001164
-0.003860
-0.024260
-0.043876
-0.021938
-0.036922
-0.281442
-0.282230
-0.287660
-0.276390
-0.208608
-0.158220
-0.150607
-0.159047
-0.225172
-0.194318
-0.175023
-0.168083
-0.170436
0.029294
0.033110
-0.045327
-0.041074
-0.049499
-0.036962
-0.038051
-0.063236
-0.056206
-0.231711
-0.229344
-0.247803
-0.310105
-0.303439
-0.295574
-0.335067
-0.355864
-0.355671
-0.350058
-0.361131
-0.351804
-0.337664
-0.348721
-0.325836
-0.380509
-0.381030
-0.111792
-0.118242
-0.127628
-0.099511
-0.290155
-0.282785
-0.105371
-0.268354
-0.287547
-0.381508
-0.376134
-0.146964
-0.378561
0.002269
-0.004842
-0.193735
-0.194493
-0.205256
-0.205890
-0.385205
-0.022726
-0.016988
-0.024852
-0.021480
-0.015958
-0.068988
-0.058528
-0.076843
-0.237241
-0.234115
-0.234501
-0.313861
-0.320004
-0.319016
-0.031325
-0.038206
-0.036748
-0.002178
-0.382914
-0.375562
-0.383291
0.016528
0.012163
0.006730
0.027938
-0.375701
-0.369915
-0.334127
-0.329142
-0.332018
-0.364973
-0.370212
-0.366521
-0.363417
-0.360139
0.002229
-0.365759
0.026640
0.023944
0.018255
-0.230287
-0.233770
-0.240093
-0.341545
-0.351191
-0.340175
-0.350425
-0.350863
-0.067329
-0.051737
-0.192720
-0.205347
-0.183289
-0.171578
-0.191736
-0.177450
-0.380255
0.010434
0.014675
0.008078
0.015476
-0.067130
-0.063240
-0.061157
-0.065056
-0.060232
-0.007677
-0.009201
-0.202356
-0.070114
-0.391520
-0.310981
-0.307661
-0.073718
-0.071042
-0.278792
-0.011530
-0.022880
-0.108255
-0.118531
-0.113935
-0.112876
-0.152349
-0.039282
-0.044449
-0.045886
-0.016395
-0.022960
-0.047287
-0.041235
-0.049192
-0.072983
-0.347043
-0.349933
0.018005
0.010171
0.024223
0.008410
0.002276
-0.156529
-0.005123
-0.011168
-0.011859
-0.204008
-0.199211
-0.047104
-0.042298
-0.045425
-0.138935
-0.145657
-0.162179
-0.151316
-0.007648
0.002906
-0.013158
-0.310622
-0.311549
-0.318632
-0.304208
-0.390475
-0.022485
0.008416
-0.302158
-0.077775
-0.074273
-0.081270
-0.305950
-0.323559
-0.327743
-0.285471
-0.298216
0.020988
0.015331
-0.292750
-0.300475
-0.288396
-0.041712
-0.031402
-0.045366
-0.030355
-0.278218
-0.289686
-0.299858
0.023700
0.019178
0.024217
0.030902
0.032612
-0.056686
-0.079203
-0.046951
-0.060209
-0.003192
-0.060166
-0.078822
-0.067086
0.020535
-0.074829
0.002819
0.009283
-0.075053
-0.090690
-0.087365
-0.235553
-0.246246
-0.244233
0.025374
0.018366
-0.036401
-0.365430
-0.392233
-0.051330
-0.025542
0.028173
-0.046113
0.004848
0.002360
-0.385470
-0.273693
-0.276077
-0.365247
-0.370439
0.020234
-0.051180
-0.054815
-0.215144
-0.217656
-0.225457
-0.222150
-0.373868
-0.385466
-0.019688
-0.012734
-0.019226
-0.259496
-0.263782
0.025230
-0.024092
-0.013473
-0.018430
-0.028816
-0.032180
-0.376449
-0.030761
-0.324300
-0.322744
-0.137391
-0.126211
-0.144003
-0.133130
-0.064373
-0.065338
-0.072430
-0.066379
-0.071832
-0.072076
-0.040087
-0.033536
-0.031863
-0.057045
-0.059678
-0.023522
-0.172244
-0.165318
-0.160202
-0.034900
-0.037298
-0.030598
-0.359815
-0.353117
-0.358390
-0.352651
-0.157397
-0.049736
-0.049884
-0.207284
-0.060783
-0.042641
-0.085566
-0.032774
-0.035074
-0.037886
-0.350370
-0.346170
-0.353436
-0.037183
-0.372598
-0.080449
-0.076708
-0.158459
-0.156349
-0.214515
-0.003531
-0.003837
-0.004696
0.000119
-0.007361
-0.007757
0.020725
-0.051723
-0.026337
-0.020706
-0.028434
-0.055885
-0.335325
-0.335942
-0.207554
-0.031515
-0.210855
-0.023900
-0.040842
-0.061143
-0.055735
-0.282022
-0.277637
-0.275415
-0.272642
-0.277682
-0.078608
-0.086963
-0.086572
-0.079421
-0.211988
-0.052361
-0.257032
-0.257515
-0.153979
-0.150224
-0.158245
-0.181843
-0.174872
-0.183966
-0.185923
-0.341967
-0.172691
-0.252205
-0.255835
-0.250388
-0.162045
-0.297391
-0.300665
-0.359680
-0.075212
-0.081766
-0.081871
-0.256199
-0.249347
-0.258437
-0.254900
-0.340818
-0.002604
0.015786
-0.067059
-0.224804
-0.228399
-0.368496
-0.304037
-0.140889
-0.153425
-0.141384
-0.128882
-0.140571
-0.129688
-0.137600
-0.043048
-0.182471
-0.150539
-0.047174
-0.127177
-0.121801
-0.287172
-0.161883
-0.165007
-0.164553
-0.318577
-0.308829
-0.314637
-0.195206
-0.159671
-0.165378
-0.232006
-0.256269
-0.243129
-0.107892
-0.105339
-0.121617
-0.115811
-0.115784
-0.054284
-0.330860
-0.377805
-0.215355
-0.221889
-0.219430
-0.096929
-0.263489
-0.286007
-0.279112
0.012837
-0.328932
-0.193889
-0.190295
-0.015043
-0.236659
-0.251297
-0.238451
-0.108378
-0.100846
-0.084322
-0.241830
-0.248604
-0.359889
-0.088050
-0.081388
-0.082575
-0.076431
-0.271120
-0.267770
-0.324893
-0.332897
-0.328807
-0.327266
-0.206233
-0.201778
-0.203120
-0.129429
-0.120400
-0.233165
-0.224334
-0.220871
-0.361814
-0.357846
-0.148298
-0.162577
-0.158082
-0.175615
-0.073333
-0.071581
-0.082899
-0.095629
-0.096529
-0.089272
-0.237467
-0.245866
-0.241261
-0.241253
-0.284440
-0.293557
-0.289307
-0.289295
-0.295424
-0.029515
-0.103354
-0.102684
0.008484
-0.255270
-0.140043
-0.144806
-0.326583
-0.265926
-0.261858
-0.269320
-0.266876
-0.078580
-0.084356
-0.086606
-0.092644
-0.160355
-0.070216
-0.070590
-0.253338
-0.241066
-0.297991
-0.307593
-0.268339
-0.152800
-0.148246
-0.301879
-0.167126
-0.180995
-0.089935
-0.083519
-0.087908
-0.261192
-0.266576
-0.067571
-0.221975
-0.048918
-0.330729
-0.230810
-0.236799
-0.233738
-0.164076
-0.170716
-0.009359
-0.332429
0.024282
-0.014899
-0.374714
-0.325729
-0.272039
-0.265504
-0.193743
-0.292359
-0.300647
-0.210499
-0.193965
-0.366903
-0.269167
-0.261778
-0.106279
-0.102675
-0.112411
-0.258965
-0.191623
-0.186092
0.016261
-0.103166
-0.103793
-0.322868
-0.248487
-0.252039
-0.363298
-0.307383
-0.309874
-0.308371
-0.146062
-0.141725
0.014972
0.017218
-0.317601
-0.253465
-0.260310
-0.254119
-0.169786
-0.067743
-0.244072
-0.273876
-0.278707
-0.108960
-0.098884
-0.175462
-0.059749
-0.174379
-0.176267
-0.170463
-0.283573
-0.287372
-0.033835
-0.047386
-0.206631
-0.180874
-0.017904
-0.239417
-0.243928
-0.185435
-0.184214
-0.262407
-0.266606
-0.268588
-0.118009
-0.118503
-0.059931
-0.130927
0.031992
-0.370407
-0.350442
-0.099992
-0.094966
0.022230
-0.099290
-0.323114
-0.375413
0.022580
-0.029274
-0.037768
-0.391492
-0.021901
-0.014186
-0.099850
-0.351770
0.030964
-0.345289
-0.145598
-0.395007
-0.395496
-0.400521
-0.116612
-0.396174
0.011058
-0.065560
0.012317
-0.275219
-0.169608
-0.402089
-0.001938
-0.213355
-0.143694
-0.129956
-0.133365
-0.117306
-0.105588
-0.099599
-0.094095
-0.107836
-0.179255
-0.327429
-0.092824
-0.227511
-0.220816
-0.316323
-0.248915
-0.228101
-0.181202
-0.275861
-0.031509
-0.191992
-0.207309
-0.106956
-0.098608
-0.185264
-0.241618
-0.246777
-0.120449
-0.126271
-0.124585
-0.084715
-0.015223
-0.022493
-0.118784
-0.009216
-0.140807
-0.033016
-0.302019
-0.198890
-0.165975
-0.112654
-0.087405
-0.009454
-0.264019
0.015880
-0.287403
-0.102387
-0.010724
-0.018690
-0.011059
-0.042188
-0.340889
-0.023349
-0.363662
-0.359911
-0.255014
-0.149049
-0.339149
-0.341522
-0.095467
-0.106524
-0.042637
-0.054577
-0.011261
-0.375248
-0.126163
-0.133116
-0.164852
-0.201589
-0.089005
-0.216991
-0.219990
-0.252814
-0.350194
-0.137260
-0.207167
-0.213649
-0.015533
-0.218327
-0.224052
-0.219144
-0.138389
-0.280628
-0.303147
-0.242551
-0.007654
-0.132258
-0.071411
-0.049314
-0.335613
-0.124935
-0.131909
-0.312043
-0.112745
-0.108634
-0.111619
-0.136480
-0.140378
-0.316090
-0.319718
-0.322369
-0.126541
-0.131878
-0.131819
-0.149790
-0.146581
-0.153528
-0.270987
-0.291755
-0.189944
-0.263839
-0.321801
-0.315109
-0.215547
-0.186224
-0.275637
-0.160930
-0.190304
-0.211380
-0.278422
SCALARS UY float 1
LOOKUP_TABLE default
-0.000000
-0.000000
-1.009992
-1.010000
-0.486999
-0.725500
-0.000000
-0.000000
-0.000000
-0.000000
-0.000000
-0.000000
-0.000000
-0.000000
-0.000000
-0.000000
-0.000000
-0.000000
-0.081016
-0.151510
-0.214896
-0.272726
-0.324806
-0.371832
-0.414400
-0.452962
-0.487844
-0.519592
-0.548255
-0.574188
-0.597732
-0.619185
-0.638756
-0.656453
-0.672539
-0.687492
-0.701092
-0.713876
-0.737836
-0.752528
-0.770205
-0.792151
-0.819022
-0.852865
-0.894063
-0.945061
-1.010001
-1.009999
-1.010000
-1.010000
-1.010000
-1.010000
-1.010000
-1.010000
-1.010000
-1.010000
-1.010000
-1.010000
-0.932309
-0.865041
-0.806584
-0.755836
-0.711850
-0.673595
-0.640328
-0.611176
-0.585875
-0.563698
-0.544254
-0.527248
-0.512142
-0.498699
-0.474793
-0.462034
-0.447611
-0.431385
-0.413040
-0.392278
-0.368438
-0.341012
-0.309685
-0.273638
-0.232490
-0.185366
-0.131529
-0.069897
-0.492088
-0.496569
-0.500234
-0.503460
-0.506578
-0.509541
-0.512146
-0.514654
-0.516984
-0.519441
-0.521745
-0.523899
-0.526192
-0.528323
-0.530506
-0.532445
-0.534551
-0.536563
-0.538623
-0.540645
-0.542627
-0.544644
-0.546637
-0.548533
-0.550613
-0.552610
-0.554464
-0.556397
-0.558537
-0.560374
-0.562312
-0.564259
-0.566192
-0.568217
-0.570156
-0.572167
-0.574004
-0.575933
-0.577982
-0.579839
-0.581791
-0.583768
-0.585672
-0.587687
-0.589649
-0.591488
-0.593436
-0.595378
-0.597333
-0.599244
-0.601229
-0.603198
-0.605203
-0.607018
-0.608974
-0.610968
-0.612915
-0.614915
-0.616833
-0.618906
-0.620760
-0.622819
-0.624612
-0.626641
-0.628654
-0.630705
-0.632552
-0.634637
-0.636695
-0.638657
-0.640683
-0.642686
-0.644725
-0.646810
-0.649005
-0.650800
-0.653006
-0.655030
-0.657254
-0.659303
-0.661415
-0.663722
-0.665937
-0.668126
-0.670255
-0.672660
-0.675127
-0.677669
-0.680390
-0.682966
-0.685819
-0.688702
-0.691808
-0.694914
-0.698216
-0.701504
-0.704767
-0.708320
-0.712003
-0.715904
-0.720302
-0.609199
-0.589123
-0.598418
-0.581479
-0.769830
-0.768218
-0.745998
-0.798264
-0.938049
-0.902290
-0.886842
-0.697783
-0.698315
-0.709063
-0.788795
-0.761683
-0.790290
-0.664662
-0.667809
-0.677201
-0.606795
-0.591341
-0.603936
-0.694492
-0.676276
-0.699412
-0.598234
-0.597612
-0.607623
-0.550779
-0.546188
-0.556981
-0.651903
-0.660305
-0.663251
-0.675765
-0.575448
-0.591465
-0.583069
-0.701638
-0.709296
-0.697421
-0.684022
-0.685978
-0.646953