# vtk DataFile Version 2.0
Test
ASCII
DATASET POLYDATA
POINTS 25657 float
0.000000 0.000000 0.000000
1.000000 0.000000 0.000000
1.000000 1.000000 0.000000
0.000000 1.000000 0.000000
0.000000 0.400000 0.000000
1.000000 0.600000 0.000000
0.006993 0.000000 0.000000
0.013986 0.000000 0.000000
0.020979 0.000000 0.000000
0.027972 0.000000 0.000000
0.034965 0.000000 0.000000
0.041958 0.000000 0.000000
0.048951 0.000000 0.000000
0.055944 0.000000 0.000000
0.062937 0.000000 0.000000
0.069930 0.000000 0.000000
0.076923 0.000000 0.000000
0.083916 0.000000 0.000000
0.090909 0.000000 0.000000
0.097902 0.000000 0.000000
0.104895 0.000000 0.000000
0.111888 0.000000 0.000000
0.118881 0.000000 0.000000
0.125874 0.000000 0.000000
0.132867 0.000000 0.000000
0.139860 0.000000 0.000000
0.146853 0.000000 0.000000
0.153846 0.000000 0.000000
0.160839 0.000000 0.000000
0.167832 0.000000 0.000000
0.174825 0.000000 0.000000
0.181818 0.000000 0.000000
0.188811 0.000000 0.000000
0.195804 0.000000 0.000000
0.202797 0.000000 0.000000
0.209790 0.000000 0.000000
0.216783 0.000000 0.000000
0.223776 0.000000 0.000000
0.230769 0.000000 0.000000
0.237762 0.000000 0.000000
0.244755 0.000000 0.000000
0.251748 0.000000 0.000000
0.258741 0.000000 0.000000
0.265734 0.000000 0.000000
0.272727 0.000000 0.000000
0.279720 0.000000 0.000000
0.286713 0.000000 0.000000
0.293706 0.000000 0.000000
0.300699 0.000000 0.000000
0.307692 0.000000 0.000000
0.314685 0.000000 0.000000
0.321678 0.000000 0.000000
0.328671 0.000000 0.000000
0.335664 0.000000 0.000000
0.342657 0.000000 0.000000
0.349650 0.000000 0.000000
0.356643 0.000000 0.000000
0.363636 0.000000 0.000000
0.370629 0.000000 0.000000
0.377622 0.000000 0.000000
0.384615 0.000000 0.000000
0.391608 0.000000 0.000000
0.398601 0.000000 0.000000
0.405594 0.000000 0.000000
0.412587 0.000000 0.000000
0.419580 0.000000 0.000000
0.426573 0.000000 0.000000
0.433566 0.000000 0.000000
0.440559 0.000000 0.000000
0.447552 0.000000 0.000000
0.454545 0.000000 0.000000
0.461538 0.000000 0.000000
0.468531 0.000000 0.000000
0.475524 0.000000 0.000000
0.482517 0.000000 0.000000
0.489510 0.000000 0.000000
0.496503 0.000000 0.000000
0.503497 0.000000 0.000000
0.510490 0.000000 0.000000
0.517483 0.000000 0.000000
0.524476 0.000000 0.000000
0.531469 0.000000 0.000000
0.538462 0.000000 0.000000
0.545455 0.000000 0.000000
0.552448 0.000000 0.000000
0.559441 0.000000 0.000000
0.566434 0.000000 0.000000
0.573427 0.000000 0.000000
0.580420 0.000000 0.000000
0.587413 0.000000 0.000000
0.594406 0.000000 0.000000
0.601399 0.000000 0.000000
0.608392 0.000000 0.000000
0.615385 0.000000 0.000000
0.622378 0.000000 0.000000
0.629371 0.000000 0.000000
0.636364 0.000000 0.000000
0.643357 0.000000 0.000000
0.650350 0.000000 0.000000
0.657343 0.000000 0.000000
0.664336 0.000000 0.000000
0.671329 0.000000 0.000000
0.678322 0.000000 0.000000
0.685315 0.000000 0.000000
0.692308 0.000000 0.000000
0.699301 0.000000 0.000000
0.706294 0.000000 0.000000
0.713287 0.000000 0.000000
0.720280 0.000000 0.000000
0.727273 0.000000 0.000000
0.734266 0.000000 0.000000
0.741259 0.000000 0.000000
0.748252 0.000000 0.000000
0.755245 0.000000 0.000000
0.762238 0.000000 0.000000
0.769231 0.000000 0.000000
0.776224 0.000000 0.000000
0.783217 0.000000 0.000000
0.790210 0.000000 0.000000
0.797203 0.000000 0.000000
0.804196 0.000000 0.000000
0.811189 0.000000 0.000000
0.818182 0.000000 0.000000
0.825175 0.000000 0.000000
0.832168 0.000000 0.000000
0.839161 0.000000 0.000000
0.846154 0.000000 0.000000
0.853147 0.000000 0.000000
0.860140 0.000000 0.000000
0.867133 0.000000 0.000000
0.874126 0.000000 0.000000
0.881119 0.000000 0.000000
0.888112 0.000000 0.000000
0.895105 0.000000 0.000000
0.902098 0.000000 0.000000
0.909091 0.000000 0.000000
0.916084 0.000000 0.000000
0.923077 0.000000 0.000000
0.930070 0.000000 0.000000
0.937063 0.000000 0.000000
0.944056 0.000000 0.000000
0.951049 0.000000 0.000000
0.958042 0.000000 0.000000
0.965035 0.000000 0.000000
0.972028 0.000000 0.000000
0.979021 0.000000 0.000000
0.986014 0.000000 0.000000
0.993007 0.000000 0.000000
1.000000 0.006977 0.000000
1.000000 0.013953 0.000000
1.000000 0.020930 0.000000
1.000000 0.027907 0.000000
1.000000 0.034884 0.000000
1.000000 0.041860 0.000000
1.000000 0.048837 0.000000
1.000000 0.055814 0.000000
1.000000 0.062791 0.000000
1.000000 0.069767 0.000000
1.000000 0.076744 0.000000
1.000000 0.083721 0.000000
1.000000 0.090698 0.000000
1.000000 0.097674 0.000000
1.000000 0.104651 0.000000
1.000000 0.111628 0.000000
1.000000 0.118605 0.000000
1.000000 0.125581 0.000000
1.000000 0.132558 0.000000
1.000000 0.139535 0.000000
1.000000 0.146512 0.000000
1.000000 0.153488 0.000000
1.000000 0.160465 0.000000
1.000000 0.167442 0.000000
1.000000 0.174419 0.000000
1.000000 0.181395 0.000000
1.000000 0.188372 0.000000
1.000000 0.195349 0.000000
1.000000 0.202326 0.000000
1.000000 0.209302 0.000000
1.000000 0.216279 0.000000
1.000000 0.223256 0.000000
1.000000 0.230233 0.000000
1.000000 0.237209 0.000000
1.000000 0.244186 0.000000
1.000000 0.251163 0.000000
1.000000 0.258140 0.000000
1.000000 0.265116 0.000000
1.000000 0.272093 0.000000
1.000000 0.279070 0.000000
1.000000 0.286047 0.000000
1.000000 0.293023 0.000000
1.000000 0.300000 0.000000
1.000000 0.306977 0.000000
1.000000 0.313953 0.000000
1.000000 0.320930 0.000000
1.000000 0.327907 0.000000
1.000000 0.334884 0.000000
1.000000 0.341860 0.000000
1.000000 0.348837 0.000000
1.000000 0.355814 0.000000
1.000000 0.362791 0.000000
1.000000 0.369767 0.000000
1.000000 0.376744 0.000000
1.000000 0.383721 0.000000
1.000000 0.390698 0.000000
1.000000 0.397674 0.000000
1.000000 0.404651 0.000000
1.000000 0.411628 0.000000
1.000000 0.418605 0.000000
1.000000 0.425581 0.000000
1.000000 0.432558 0.000000
1.000000 0.439535 0.000000
1.000000 0.446512 0.000000
1.000000 0.453488 0.000000
1.000000 0.460465 0.000000
1.000000 0.467442 0.000000
1.000000 0.474419 0.000000
1.000000 0.481395 0.000000
1.000000 0.488372 0.000000
1.000000 0.495349 0.000000
1.000000 0.502326 0.000000
1.000000 0.509302 0.000000
1.000000 0.516279 0.000000
1.000000 0.523256 0.000000
1.000000 0.530233 0.000000
1.000000 0.537209 0.000000
1.000000 0.544186 0.000000
1.000000 0.551163 0.000000
1.000000 0.558140 0.000000
1.000000 0.565116 0.000000
1.000000 0.572093 0.000000
1.000000 0.579070 0.000000
1.000000 0.586047 0.000000
1.000000 0.593023 0.000000
1.000000 0.606897 0.000000
1.000000 0.613793 0.000000
1.000000 0.620690 0.000000
1.000000 0.627586 0.000000
1.000000 0.634483 0.000000
1.000000 0.641379 0.000000
1.000000 0.648276 0.000000
1.000000 0.655172 0.000000
1.000000 0.662069 0.000000
1.000000 0.668966 0.000000
1.000000 0.675862 0.000000
1.000000 0.682759 0.000000
1.000000 0.689655 0.000000
1.000000 0.696552 0.000000
1.000000 0.703448 0.000000
1.000000 0.710345 0.000000
1.000000 0.717241 0.000000
1.000000 0.724138 0.000000
1.000000 0.731034 0.000000
1.000000 0.737931 0.000000
1.000000 0.744828 0.000000
1.000000 0.751724 0.000000
1.000000 0.758621 0.000000
1.000000 0.765517 0.000000
1.000000 0.772414 0.000000
1.000000 0.779310 0.000000
1.000000 0.786207 0.000000
1.000000 0.793103 0.000000
1.000000 0.800000 0.000000
1.000000 0.806897 0.000000
1.000000 0.813793 0.000000
1.000000 0.820690 0.000000
1.000000 0.827586 0.000000
1.000000 0.834483 0.000000
1.000000 0.841379 0.000000
1.000000 0.848276 0.000000
1.000000 0.855172 0.000000
1.000000 0.862069 0.000000
1.000000 0.868966 0.000000
1.000000 0.875862 0.000000
1.000000 0.882759 0.000000
1.000000 0.889655 0.000000
1.000000 0.896552 0.000000
1.000000 0.903448 0.000000
1.000000 0.910345 0.000000
1.000000 0.917241 0.000000
1.000000 0.924138 0.000000
1.000000 0.931034 0.000000
1.000000 0.937931 0.000000
1.000000 0.944828 0.000000
1.000000 0.951724 0.000000
1.000000 0.958621 0.000000
1.000000 0.965517 0.000000
1.000000 0.972414 0.000000
1.000000 0.979310 0.000000
1.000000 0.986207 0.000000
1.000000 0.993103 0.000000
0.993007 1.000000 0.000000
0.986014 1.000000 0.000000
0.979021 1.000000 0.000000
0.972028 1.000000 0.000000
0.965035 1.000000 0.000000
0.958042 1.000000 0.000000
0.951049 1.000000 0.000000
0.944056 1.000000 0.000000
0.937063 1.000000 0.000000
0.930070 1.000000 0.000000
0.923077 1.000000 0.000000
0.916084 1.000000 0.000000
0.909091 1.000000 0.000000
0.902098 1.000000 0.000000
0.895105 1.000000 0.000000
0.888112 1.000000 0.000000
0.881119 1.000000 0.000000
0.874126 1.000000 0.000000
0.867133 1.000000 0.000000
0.860140 1.000000 0.000000
0.853147 1.000000 0.000000
0.846154 1.000000 0.000000
0.839161 1.000000 0.000000
0.832168 1.000000 0.000000
0.825175 1.000000 0.000000
0.818182 1.000000 0.000000
0.811189 1.000000 0.000000
0.804196 1.000000 0.000000
0.797203 1.000000 0.000000
0.790210 1.000000 0.000000
0.783217 1.000000 0.000000
0.776224 1.000000 0.000000
0.769231 1.000000 0.000000
0.762238 1.000000 0.000000
0.755245 1.000000 0.000000
0.748252 1.000000 0.000000
0.741259 1.000000 0.000000
0.734266 1.000000 0.000000
0.727273 1.000000 0.000000
0.720280 1.000000 0.000000
0.713287 1.000000 0.000000
0.706294 1.000000 0.000000
0.699301 1.000000 0.000000
0.692308 1.000000 0.000000
0.685315 1.000000 0.000000
0.678322 1.000000 0.000000
0.671329 1.000000 0.000000
0.664336 1.000000 0.000000
0.657343 1.000000 0.000000
0.650350 1.000000 0.000000
0.643357 1.000000 0.000000
0.636364 1.000000 0.000000
0.629371 1.000000 0.000000
0.622378 1.000000 0.000000
0.615385 1.000000 0.000000
0.608392 1.000000 0.000000
0.601399 1.000000 0.000000
0.594406 1.000000 0.000000
0.587413 1.000000 0.000000
0.580420 1.000000 0.000000
0.573427 1.000000 0.000000
0.566434 1.000000 0.000000
0.559441 1.000000 0.000000
0.552448 1.000000 0.000000
0.545455 1.000000 0.000000
0.538462 1.000000 0.000000
0.531469 1.000000 0.000000
0.524476 1.000000 0.000000
0.517483 1.000000 0.000000
0.510490 1.000000 0.000000
0.503497 1.000000 0.000000
0.496503 1.000000 0.000000
0.489510 1.000000 0.000000
0.482517 1.000000 0.000000
0.475524 1.000000 0.000000
0.468531 1.000000 0.000000
0.461538 1.000000 0.000000
[...]
POINT_DATA 25657
SCALARS UX float 1
LOOKUP_TABLE default
-0.014150
0.003333
-0.000000
-0.026065
-0.059907
-0.000006
-0.014043
-0.013942
-0.013843
-0.013740
-0.013641
-0.013543
-0.013446
-0.013351
-0.013258
-0.013166
-0.013073
-0.012979
-0.012888
-0.012795
-0.012702
-0.012610
-0.012516
-0.012422
-0.012326
-0.012230
-0.012133
-0.012035
-0.011936
-0.011835
-0.011731
-0.011633
-0.011531
-0.011426
-0.011316
-0.011214
-0.011122
-0.011032
-0.010943
-0.010854
-0.010766
-0.010678
-0.010591
-0.010502
-0.010412
-0.010323
-0.010234
-0.010143
-0.010052
-0.009961
-0.009869
-0.009776
-0.009683
-0.009590
-0.009496
-0.009401
-0.009306
-0.009211
-0.009115
-0.009018
-0.008921
-0.008824
-0.008726
-0.008628
-0.008529
-0.008432
-0.008328
-0.008227
-0.008126
-0.008028
-0.007925
-0.007821
-0.007720
-0.007617
-0.007514
-0.007409
-0.007304
-0.007198
-0.007092
-0.006985
-0.006877
-0.006769
-0.006661
-0.006550
-0.006438
-0.006329
-0.006214
-0.006100
-0.005985
-0.005869
-0.005752
-0.005634
-0.005515
-0.005403
-0.005282
-0.005161
-0.005043
-0.004922
-0.004798
-0.004674
-0.004551
-0.004425
-0.004298
-0.004169
-0.004035
-0.003901
-0.003762
-0.003627
-0.003485
-0.003343
-0.003207
-0.003062
-0.002912
-0.002764
-0.002615
-0.002467
-0.002314
-0.002158
-0.002001
-0.001844
-0.001687
-0.001525
-0.001363
-0.001195
-0.001026
-0.000858
-0.000688
-0.000515
-0.000336
-0.000158
0.000021
0.000195
0.000374
0.000546
0.000717
0.000893
0.001069
0.001250
0.001431
0.001609
0.001792
0.001978
0.002162
0.002352
0.002546
0.002738
0.002932
0.003133
0.003293
0.003266
0.003243
0.003238
0.003228
0.003240
0.003249
0.003238
0.003232
0.003223
0.003224
0.003222
0.003235
0.003246
0.003268
0.003285
0.003316
0.003346
0.003392
0.003453
0.003518
0.003599
0.003679
0.003751
0.003828
0.003917
0.004001
0.004098
0.004205
0.004299
0.004408
0.004526
0.004642
0.004765
0.004895
0.005028
0.005172
0.005310
0.005450
0.005613
0.005762
0.005927
0.006089
0.006259
0.006436
0.006615
0.006796
0.006987
0.007179
0.007364
0.007574
0.007770
0.007980
0.008185
0.008399
0.008617
0.008833
0.009050
0.009276
0.009499
0.009724
0.009951
0.010173
0.010405
0.010628
0.010847
0.011070
0.011286
0.011496
0.011713
0.011908
0.012103
0.012283
0.012436
0.012585
0.012708
0.012790
0.012851
0.012819
0.012746
0.012501
0.011973
0.011345
0.009264
0.000328
0.000002
-0.000001
-0.000000
0.000001
-0.000001
-0.000000
-0.000000
0.000000
0.000000
0.000000
0.000000
0.000000
0.000000
-0.000000
0.000000
0.000000
0.000000
0.000000
-0.000000
0.000000
-0.000000
0.000000
-0.000000
-0.000000
0.000000
-0.000000
0.000000
-0.000000
-0.000000
-0.000000
0.000000
0.000000
-0.000000
-0.000000
-0.000000
-0.000000
-0.000000
0.000000
-0.000000
0.000000
0.000000
-0.000000
0.000000
-0.000000
-0.000000
-0.000000
0.000000
0.000000
0.000000
0.000000
-0.000000
0.000000
0.000000
-0.000000
-0.000000
0.000000
-0.000000
-0.000331
-0.000615
-0.000912
-0.001214
-0.001516
-0.001811
-0.002099
-0.002390
-0.002681
-0.002970
-0.003262
-0.003557
-0.003847
-0.004141
-0.004435
-0.004728
-0.005021
-0.005321
-0.005619
-0.005918
-0.006219
-0.006519
-0.006821
-0.007119
-0.007425
-0.007722
-0.008022
-0.008324
-0.008626
-0.008917
-0.009219
-0.009514
-0.009813
-0.010117
-0.010421
-0.010723
-0.011020
-0.011319
-0.011614
-0.011901
-0.012185
-0.012470
-0.012753
-0.013033
-0.013311
-0.013586
-0.013857
-0.014126
-0.014391
-0.014652
-0.014909
-0.015163
-0.015413
-0.015660
-0.015905
-0.016145
-0.016380
-0.016611
-0.016838
-0.017058
-0.017284
-0.017501
-0.017714
-0.017915
-0.018118
-0.018320
-0.018513
-0.018705
-0.018891
-0.019073
-0.019253
-0.019428
-0.019600
-0.019768
-0.019933
-0.020093
-0.020251
-0.020406
-0.020558
-0.020702
-0.020846
-0.020985
-0.021122
-0.021260
-0.021392
-0.021520
-0.021651
-0.021769
-0.021890
-0.022010
-0.022125
-0.022238
-0.022351
-0.022461
-0.022568
-0.022671
-0.022774
-0.022875
-0.022974
-0.023070
-0.023168
-0.023260
-0.023354
-0.023446
-0.023530
-0.023616
-0.023704
-0.023788
-0.023870
-0.023949
-0.024028
-0.024108
-0.024186
-0.024263
-0.024335
-0.024408
-0.024480
-0.024552
-0.024623
-0.024692
-0.024760
-0.024826
-0.024893
-0.024958
-0.025022
-0.025085
-0.025151
-0.025213
-0.025272
-0.025333
-0.025390
-0.025451
-0.025510
-0.025567
-0.025624
-0.025681
-0.025739
-0.025795
-0.025849
-0.025903
-0.025956
-0.026011
-0.026064
-0.026064
-0.026061
-0.026059
-0.026052
-0.026047
-0.026039
-0.026031
-0.026024
-0.026013
-0.026003
-0.025989
-0.025977
-0.025962
-0.025948
-0.025931
-0.025914
-0.025897
-0.025880
-0.025860
-0.025839
-0.025819
-0.025797
-0.025774
-0.025750
-0.025728
-0.025702
-0.025677
-0.025654
-0.025626
-0.025599
-0.025574
-0.025546
-0.025519
-0.025492
-0.025464
-0.025438
-0.025410
-0.025380
-0.025356
-0.025326
-0.025301
-0.025273
-0.025247
-0.025221
-0.025197
-0.025171
-0.025149
-0.025126
-0.025100
-0.025082
-0.025060
-0.025040
-0.025019
-0.024999
-0.024981
-0.024962
-0.024940
-0.024921
-0.024899
-0.024875
-0.024849
-0.024817
-0.024784
-0.024745
-0.024697
-0.024645
-0.024588
-0.024520
-0.024455
-0.024384
-0.024319
-0.024262
-0.024219
-0.024207
-0.024224
-0.024266
-0.024339
-0.024531
-0.025016
-0.025924
-0.026061
-0.025639
-0.029666
-0.032831
-0.040934
-0.033743
-0.030517
-0.028970
-0.027739
-0.026786
-0.025947
-0.025189
-0.024478
-0.023819
-0.023197
-0.022615
-0.022063
-0.021558
-0.021082
-0.020629
-0.020208
-0.019816
-0.019447
-0.019099
-0.018771
-0.018465
-0.018178
-0.017906
-0.017641
-0.017406
-0.017174
-0.016955
-0.016752
-0.016554
-0.016370
-0.016194
-0.016033
-0.015868
-0.015730
-0.015583
-0.015451
-0.015325
-0.015209
-0.015097
-0.014992
-0.014895
-0.014804
-0.014718
-0.014640
-0.014567
-0.014503
-0.014438
-0.014385
-0.014335
-0.014290
-0.014256
-0.014225
-0.014198
-0.014179
-0.014162
-0.014154
-0.035643
-0.034115
-0.029369
-0.029508
-0.024528
-0.026967
-0.026329
-0.024600
-0.024144
-0.026080
-0.025609
-0.025698
-0.025056
-0.024295
-0.023744
-0.023066
-0.020157
-0.020006
-0.019681
-0.016400
-0.014071
-0.013541
-0.012779
-0.020944
-0.020600
-0.020542
-0.018069
-0.017712
-0.017197
-0.017594
-0.017397
-0.016879
-0.016536
-0.013618
-0.013083
-0.015671
-0.014129
-0.014103
-0.013296
-0.013788
-0.013077
-0.013376
-0.013016
-0.013325
-0.013419
-0.013550
-0.012776
-0.012224
-0.011450
-0.010884
-0.008725
-0.025469
-0.017763
-0.015867
-0.015704
-0.015688
-0.013967
-0.013905
-0.013608
-0.012770
-0.012497
-0.011909
-0.012131
-0.012355
-0.012184
-0.011906
-0.010900
-0.009263
-0.007896
-0.007832
-0.010038
-0.011866
-0.009452
-0.009164
-0.007528
-0.007247
-0.006696
-0.005107
-0.003786
-0.003322
-0.018070
-0.014727
-0.015265
-0.015004
-0.014988
-0.014043
-0.013286
-0.013232
-0.013007
-0.012467
-0.012002
-0.021890
-0.013706
-0.013914
-0.014265
-0.013023
-0.013128
-0.013088
-0.012918
-0.012967
-0.013171
-0.013219
-0.013177
-0.012932
-0.012753
-0.012513
-0.012223
-0.011951
-0.011665
-0.011336
-0.010938
-0.010537
-0.010146
-0.009777
-0.009353
-0.008930
-0.008507
-0.008068
-0.007575
-0.007203
-0.006772
-0.006344
-0.005950
-0.005569
-0.005183
-0.004829
-0.004459
-0.004144
-0.003814
-0.003524
-0.003177
-0.002892
-0.002629
-0.002338
-0.002063
-0.001784
-0.001485
-0.001189
-0.001015
-0.000291
-0.000358
-0.000047
-0.000190
0.000071
0.000497
-0.023248
-0.023211
-0.023304
-0.025072
-0.025099
-0.025024
-0.025063
-0.025113
-0.025082
-0.024556
-0.024497
-0.024556
-0.001220
-0.001465
-0.001527
-0.001152
-0.024447
-0.013906
-0.019056
-0.016814
-0.013463
-0.014467
-0.014049
-0.025443
-0.025297
-0.025957
-0.025676
-0.000263
-0.000241
-0.018985
-0.019064
-0.018903
-0.000120
-0.000036
-0.024931
-0.024882
-0.024941
-0.024902
-0.024781
-0.024707
-0.003380
-0.003381
-0.003178
-0.003571
-0.024979
-0.025048
-0.025003
-0.025044
-0.019792
-0.020140
-0.020552
-0.021042
-0.007084
-0.007337
-0.007206
-0.007399
-0.008929
-0.009188
-0.008940
-0.009161
-0.025799
-0.025822
-0.025775
-0.025840
-0.002429
-0.002130
-0.002407
-0.025786
-0.025804
-0.025757
-0.010956
-0.011958
-0.010897
-0.001384
-0.001596
-0.001441
-0.001547
-0.011642
-0.002169
-0.001553
-0.001331
-0.001440
-0.001973
-0.001741
-0.001661
-0.022782
-0.023309
-0.022992
-0.001369
-0.001865
-0.001998
-0.001661
-0.002243
-0.025737
-0.025794
-0.025771
-0.009084
-0.009057
-0.008862
-0.022126
-0.022046
-0.022133
-0.022028
-0.017014
-0.016854
-0.022437
-0.022447
-0.022365
-0.009270
-0.024639
-0.024594
-0.024650
-0.018972
-0.018619
-0.018719
-0.018968
-0.024880
-0.024942
-0.024917
-0.000232
-0.000438
-0.000437
-0.000683
-0.001172
-0.001242
-0.001007
-0.012409
-0.011436
-0.010587
-0.000858
-0.000797
-0.000599
-0.000434
-0.000216
-0.000627
-0.005450
-0.005676
-0.004831
-0.006101
-0.025801
-0.025717
-0.025743
-0.012109
-0.004190
-0.004058
-0.004362
-0.017185
-0.003805
-0.023483
-0.023288
-0.023563
-0.005049
-0.021320
-0.021181
-0.021247
-0.021106
-0.009616
-0.008965
-0.009244
-0.010259
-0.017796
-0.018231
-0.017701
-0.019058
-0.019066
-0.019179
-0.018139
-0.010628
-0.012342
-0.012160
-0.022259
-0.022370
-0.022319
-0.022405
-0.025865
-0.025825
-0.024929
-0.024877
-0.024858
-0.005232
-0.005334
-0.005043
-0.024815
-0.025675
-0.000954
-0.001063
-0.000887
-0.000965
-0.012861
-0.012704
-0.021618
-0.021722
-0.021664
-0.000925
-0.000700
-0.001002
-0.018420
-0.018182
-0.017813
-0.021779
-0.018024
-0.018264
-0.018559
-0.024851
-0.024887
-0.022991
-0.023090
-0.023048
-0.024761
-0.025195
-0.025585
-0.025531
-0.025529
-0.000166
-0.000344
-0.000362
-0.000506
-0.000329
-0.018682
-0.018566
-0.018478
-0.025546
-0.025559
-0.025515
-0.001333
-0.001744
-0.001678
-0.000820
-0.001002
-0.001002
-0.001211
-0.000644
-0.000659
-0.000450
-0.001217
-0.001080
-0.001026
-0.018846
-0.025657
-0.025681
-0.025639
-0.023039
-0.026027
-0.022720
-0.022788
-0.022819
-0.022698
-0.001185
-0.001237
-0.000486
-0.000518
-0.010006
-0.009987
-0.009784
-0.026389
-0.025620
-0.025599
-0.025566
-0.025838
-0.025861
-0.025808
-0.030092
-0.025319
-0.026373
-0.024846
-0.025659
-0.009718
-0.022598
-0.022660
-0.022693
-0.022616
-0.022699
-0.022687
-0.022621
-0.002902
-0.002485
-0.002475
-0.003468
-0.003337
-0.003557
-0.024375
-0.024464
-0.024399
-0.006383
-0.006325
-0.006536
-0.022750
-0.001075
-0.000764
-0.021564
-0.021518
-0.021654
-0.021546
-0.025877
-0.000187
-0.017552
-0.017885
-0.017968
-0.008686
-0.008408
-0.008607
-0.025758
-0.025390
-0.025427
-0.025443
-0.019254
-0.003906
-0.003699
-0.003704
-0.025370
-0.008248
-0.024931
-0.024948
-0.024889
-0.024619
-0.024995
-0.022370
-0.022277
-0.022334
-0.006431
-0.006654
-0.006357
-0.022215
-0.006397
-0.013270
-0.014845
-0.015164
-0.015468
-0.025571
-0.025540
0.000093
-0.000181
-0.022335
-0.022352
-0.021874
-0.021768
-0.025640
-0.008818
-0.008747
-0.008609
-0.008571
-0.004631
-0.004678
-0.004375
-0.021771
-0.021877
-0.021887
-0.022001
-0.007651
-0.007504
-0.007141
-0.007095
-0.000724
-0.000578
-0.006333
-0.006094
-0.000730
-0.000646
-0.000831
-0.000531
-0.007515
-0.007668
-0.007788
-0.007989
-0.026011
-0.022227
-0.025961
-0.025949
-0.025994
-0.022610
-0.023998
-0.023943
-0.024010
-0.000232
-0.012920
-0.013000
-0.011665
-0.000650
-0.000504
-0.025610
-0.025623
-0.025572
-0.013123
-0.025140
-0.026141
-0.025701
-0.025713
-0.025662
-0.027478
-0.024037
-0.021936
-0.021949
-0.022029
-0.021842
-0.001933
-0.001701
-0.001758
-0.025496
-0.000129
-0.018190
-0.018398
-0.018173
-0.025355
-0.024607
-0.024546
-0.024648
-0.003169
-0.002952
-0.002983
-0.025418
-0.025344
-0.025335
-0.010230
-0.009949
-0.010137
-0.018482
-0.001327
-0.023405
-0.023218
-0.023357
-0.025830
-0.025985
-0.025936
-0.010154
-0.020593
-0.020570
-0.020722
-0.020436
-0.001100
-0.000894
-0.000961
-0.008679
-0.008970
-0.008900
-0.008754
-0.025892
-0.025902
-0.025865
-0.001818
-0.020031
-0.019967
-0.019852
-0.027160
-0.025572
-0.001739
-0.001935
-0.002011
-0.019817
-0.021688
-0.000685
-0.021286
-0.010792
-0.010570
-0.010561
-0.021329
-0.021573
-0.021543
-0.010721
-0.024929
-0.025228
-0.008371
-0.008422
-0.021364
-0.000370
-0.000756
-0.000652
-0.000295
-0.008677
-0.010139
-0.009823
-0.009931
-0.026013
-0.009955
-0.025929
-0.025915
-0.010385
-0.010092
-0.010040
-0.010237
-0.000240
-0.000659
-0.000437
-0.000802
-0.011211
-0.011139
-0.011417
-0.016083
-0.016413
-0.016454
-0.016013
-0.024662
-0.011257
-0.010978
-0.012126
-0.011665
-0.025053
-0.005388
-0.005197
-0.005223
-0.005401
-0.001547
-0.021958
-0.021866
-0.021958
-0.021858
-0.025789
-0.006105
-0.012341
-0.008358
-0.008448
-0.024641
-0.024600
-0.024664
-0.000189
-0.001278
-0.001286
-0.001049
-0.000291
-0.000393
-0.000265
-0.000394
-0.025832
-0.025839
-0.025873
-0.024631
-0.001151
-0.001018
-0.001257
-0.027336
-0.011371
-0.011274
-0.011516
-0.026075
-0.024280
-0.025217
-0.025976
-0.011312
-0.001249
-0.025995
-0.025966
-0.025909
-0.025886
-0.000503
-0.000277
-0.000860
-0.000761
-0.018168
-0.018056
-0.018251
-0.000797
-0.000941
-0.011073
-0.011192
-0.011225
-0.011373
-0.001053
-0.000682
-0.024368
-0.024846
-0.024218
-0.024160
-0.024209
-0.001538
-0.001781
-0.008167
-0.008444
-0.008287
-0.025786
-0.025742
-0.018001
-0.001517
-0.001234
-0.025786
-0.025836
-0.000466
-0.000434
-0.010549
-0.010759
-0.010848
-0.000717
-0.000719
-0.027017
-0.025303
-0.002059
-0.002173
-0.023889
-0.004018
-0.025937
-0.025970
-0.001870
-0.025882
-0.025854
-0.000605
-0.000384
-0.012322
-0.012424
-0.013234
-0.000919
-0.001098
-0.001178
-0.009381
-0.009375
-0.008539
-0.017079
-0.017368
-0.017595
-0.023632
-0.024072
-0.024078
-0.018207
-0.018362
-0.018203
-0.023860
-0.024050
-0.001338
-0.001214
-0.001184
-0.001789
-0.018266
-0.005173
-0.005388
-0.005419
-0.025738
-0.010538
-0.005672
-0.001750
-0.001447
-0.002024
-0.025741
-0.025791
-0.025695
-0.021855
-0.021413
-0.021589
-0.021460
-0.022110
-0.022556
-0.024023
-0.024129
-0.024167
-0.022614
-0.000672
-0.004795
-0.004445
-0.004626
-0.009232
-0.009554
-0.009306
-0.024263
-0.025520
-0.000577
-0.025904
-0.010175
-0.009914
-0.009941
-0.009685
-0.025848
-0.025830
-0.025944
-0.021485
-0.023523
-0.023813
-0.023810
-0.023685
-0.023700
-0.000731
-0.023818
-0.023801
-0.023871
-0.025748
-0.025770
-0.025728
-0.023756
-0.023565
-0.023473
-0.016202
-0.016765
-0.016652
-0.001075
-0.001221
-0.000409
-0.001380
-0.016450
-0.025592
-0.025645
-0.001614
-0.024387
-0.024425
-0.024343
-0.001614
-0.001165
-0.020808
-0.017502
-0.017581
-0.017426
-0.007564
-0.007371
-0.007569
-0.007407
-0.002058
-0.025397
-0.025379
-0.025327
-0.002288
-0.025688
-0.025330
-0.017710
-0.001967
-0.024098
-0.024092
-0.002297
-0.005730
-0.006000
-0.005827
-0.005779
-0.025409
-0.025470
-0.025698
-0.002230
-0.002000
-0.025641
-0.008332
-0.008613
-0.008371
-0.001496
-0.000867
-0.025650
-0.025668
-0.025627
-0.025474
-0.025445
-0.002909
-0.003052
-0.003164
-0.002151
-0.025513
-0.008477
-0.018281
-0.018108
-0.018213
-0.023615
-0.023598
-0.023755
-0.023455
-0.018032
-0.025410
-0.025430
-0.025468
-0.007158
-0.006930
-0.007182
-0.006971
-0.021138
-0.021277
-0.003400
-0.003697
-0.003793
-0.005742
-0.005858
-0.005630
-0.021610
-0.021009
-0.025889
-0.025405
-0.025434
-0.025471
-0.001194
-0.025370
-0.005989
-0.020774
-0.020942
-0.020810
-0.018333
-0.018429
-0.018226
-0.020964
-0.024476
-0.024514
-0.024541
-0.023899
-0.023848
-0.023994
-0.024444
-0.024592
-0.024543
-0.024615
-0.015731
-0.016724
-0.014755
-0.001790
-0.021708
-0.021488
-0.021641
-0.004118
-0.004299
-0.003998
-0.001863
-0.024416
-0.024433
-0.024483
-0.024504
-0.024096
-0.024143
-0.023994
-0.018362
-0.024737
-0.024694
-0.024664
-0.022479
-0.022332
-0.022459
-0.018935
-0.019098
-0.018917
-0.021603
-0.022298
-0.025066
-0.025130
-0.025118
-0.025087
-0.019737
-0.019454
-0.019558
-0.019524
-0.001400
-0.001158
-0.001371
-0.022113
-0.022555
-0.025638
-0.002400
-0.002515
-0.021586
-0.021772
-0.021763
-0.021592
-0.021586
-0.021740
-0.025179
-0.025143
-0.025151
-0.021759
-0.025601
-0.025649
-0.025602
-0.025884
-0.025872
-0.025820
-0.023968
-0.023850
-0.003651
-0.003385
-0.003218
-0.000551
-0.000481
-0.000774
-0.018747
-0.018438
-0.018083
-0.019116
-0.025779
-0.025822
-0.025757
-0.023700
-0.020797
-0.020428
-0.020248
-0.000639
-0.000810
-0.000924
-0.007543
-0.007665
-0.007895
-0.008044
-0.001180
-0.000908
-0.000960
-0.000646
-0.002260
-0.001998
-0.024068
-0.024166
-0.024105
-0.003386
-0.003477
-0.003148
-0.021595
-0.020808
-0.024094
-0.001043
-0.000977
-0.016368
-0.016724
-0.017134
-0.001278
-0.001237
-0.001256
-0.001086
-0.003737
-0.003939
-0.001105
-0.005173
-0.005043
-0.005275
-0.025787
-0.025770
-0.025723
-0.023547
-0.023341
-0.023353
-0.023152
-0.023566
-0.023520
-0.023635
-0.020385
-0.018669
-0.017612
-0.017282
-0.017186
-0.017662
-0.005197
-0.005319
-0.005021
-0.005159
-0.018156
-0.017991
-0.007183
-0.003725
-0.004211
-0.004189
-0.003179
-0.003560
-0.019669
-0.021104
-0.022118
-0.022603
-0.025811
-0.025867
-0.017887
-0.017461
-0.004134
-0.003451
-0.000629
-0.000442
-0.024456
-0.024466
-0.018895
-0.018748
-0.018913
-0.024890
-0.024812
-0.024849
-0.018684
-0.002514
-0.002652
-0.023339
-0.023144
-0.023527
-0.024744
-0.024761
-0.024805
-0.024809
-0.018848
-0.019014
-0.025433
-0.018872
-0.022815
-0.025122
-0.023175
-0.019038
-0.019061
-0.019022
-0.023854
-0.023984
-0.023723
-0.020651
-0.020737
-0.020608
-0.020804
-0.021645
-0.001722
-0.001855
-0.001980
-0.002070
-0.023550
-0.019170
-0.019325
-0.019293
-0.025753
-0.025735
-0.019365
-0.019110
-0.019309
-0.019277
-0.001317
-0.012189
-0.011729
-0.012329
-0.000826
-0.000957
-0.022063
-0.021910
-0.022002
-0.021840
-0.001820
-0.001633
-0.001394
-0.001805
-0.001536
-0.025615
-0.025660
-0.004059
-0.004228
-0.004041
-0.022079
-0.022405
-0.025691
-0.025740
-0.025706
-0.003762
-0.003810
-0.003517
-0.011418
-0.025419
-0.025345
-0.003576
-0.003861
-0.003813
-0.018350
-0.018191
-0.018349
-0.003797
-0.003501
-0.003573
-0.021580
-0.000652
-0.000434
-0.023624
-0.007025
-0.007247
-0.004036
-0.004018
-0.004673
-0.004526
-0.025328
-0.025325
-0.025381
-0.024911
-0.024843
-0.024864
-0.025373
-0.025378
-0.025324
-0.025288
-0.025278
-0.002542
-0.002165
-0.002410
-0.024471
-0.025656
-0.025635
-0.007640
-0.007594
-0.007451
-0.018165
-0.024226
-0.024304
-0.024210
-0.024609
-0.024666
-0.004618
-0.003857
-0.025532
-0.025574
-0.025525
-0.007818
-0.009894
-0.010096
-0.004413
-0.023867
-0.023926
-0.024536
-0.024474
-0.024483
-0.024421
-0.001141
-0.001370
-0.001415
-0.001612
-0.025789
-0.025852
-0.025246
-0.025267
-0.025564
-0.025550
-0.022744
-0.023034
-0.023042
-0.023323
-0.002712
-0.002890
-0.002073
-0.002228
-0.001893
-0.002124
-0.004221
-0.004137
-0.002753
-0.025019
-0.025080
-0.000546
-0.000534
-0.000366
-0.000355
-0.004370
-0.004222
-0.003918
-0.021374
-0.021256
-0.021275
-0.018056
-0.017946
-0.017517
-0.003620
-0.003337
-0.003483
-0.025439
-0.025489
-0.003188
-0.017591
-0.015233
-0.015065
-0.015381
-0.009985
-0.010156
-0.010202
-0.010369
-0.020798
-0.021539
-0.004058
-0.000339
-0.000152
-0.000158
-0.024046
-0.024042
-0.024132
-0.025503
-0.025485
-0.007980
-0.008350
-0.008271
-0.022887
-0.022968
-0.022935
-0.022947
-0.023751
-0.023844
-0.023829
-0.023923
-0.025376
-0.025368
-0.025416
-0.008166
-0.025431
-0.025447
-0.025395
-0.025584
-0.000873
-0.001017
-0.024104
-0.018359
-0.018475
-0.018489
-0.001889
-0.018311
-0.003745
-0.003559
-0.003541
-0.004492
-0.003874
-0.025347
-0.025391
-0.025345
-0.007034
-0.006997
-0.007262
-0.001178
-0.004003
-0.003728
-0.025684
-0.001639
-0.006783
-0.023186
-0.023382
-0.023329
-0.024481
-0.024465
-0.024428
-0.000693
-0.000449
-0.024390
-0.002442
-0.002190
-0.002574
-0.015010
-0.015788
-0.015363
-0.024863
-0.024854
-0.015747
-0.023829
-0.023601
-0.025729
-0.024794
-0.024869
-0.024916
-0.004264
-0.004042
-0.024928
-0.025231
-0.025264
-0.022251
-0.022357
-0.022287
-0.022220
-0.021995
-0.022389
-0.022218
-0.022106
-0.025428
-0.025405
-0.025463
-0.024497
-0.024556
-0.024529
-0.014159
-0.014130
-0.013542
-0.007920
-0.007970
-0.008146
-0.008196
-0.004904
-0.004899
-0.004669
-0.000182
-0.000168
-0.000386
-0.000302
-0.008087
-0.008103
-0.007868
-0.025585
-0.025619
-0.025578
-0.025300
-0.009304
-0.009004
-0.009137
-0.009161
-0.002503
-0.025525
-0.025507
-0.023731
-0.023965
-0.025765
-0.025831
-0.003096
-0.003385
-0.003351
-0.024171
-0.024064
-0.024093
-0.023968
-0.023747
-0.003640
-0.003638
-0.003894
-0.024524
-0.024464
-0.024484
-0.024421
-0.022521
-0.022563
-0.022480
-0.022629
-0.025197
-0.025213