# vtk DataFile Version 2.0
Test
ASCII
DATASET POLYDATA
POINTS 1770 float
0.000000 0.000000 0.000000
1.000000 0.000000 0.000000
1.000000 1.000000 0.000000
0.000000 1.000000 0.000000
0.000000 0.500000 0.000000
1.000000 0.700000 0.000000
0.076923 0.000000 0.000000
0.153846 0.000000 0.000000
0.230769 0.000000 0.000000
0.307692 0.000000 0.000000
0.384615 0.000000 0.000000
0.461538 0.000000 0.000000
0.538462 0.000000 0.000000
0.615385 0.000000 0.000000
0.692308 0.000000 0.000000
0.769231 0.000000 0.000000
0.846154 0.000000 0.000000
0.923077 0.000000 0.000000
1.000000 0.075421 0.000000
1.000000 0.143732 0.000000
1.000000 0.205602 0.000000
1.000000 0.261640 0.000000
1.000000 0.312395 0.000000
1.000000 0.358364 0.000000
1.000000 0.400000 0.000000
1.000000 0.437711 0.000000
1.000000 0.471866 0.000000
1.000000 0.502801 0.000000
1.000000 0.530820 0.000000
1.000000 0.556197 0.000000
1.000000 0.579182 0.000000
1.000000 0.600000 0.000000
1.000000 0.618855 0.000000
1.000000 0.635933 0.000000
1.000000 0.651401 0.000000
1.000000 0.665410 0.000000
1.000000 0.678099 0.000000
1.000000 0.689591 0.000000
1.000000 0.711139 0.000000
1.000000 0.725174 0.000000
1.000000 0.742857 0.000000
1.000000 0.765136 0.000000
1.000000 0.793206 0.000000
1.000000 0.828571 0.000000
1.000000 0.873129 0.000000
1.000000 0.929269 0.000000
0.923077 1.000000 0.000000
0.846154 1.000000 0.000000
0.769231 1.000000 0.000000
0.692308 1.000000 0.000000
0.615385 1.000000 0.000000
0.538462 1.000000 0.000000
0.461538 1.000000 0.000000
0.384615 1.000000 0.000000
0.307692 1.000000 0.000000
0.230769 1.000000 0.000000
0.153846 1.000000 0.000000
0.076923 1.000000 0.000000
0.000000 0.926029 0.000000
0.000000 0.861633 0.000000
0.000000 0.805574 0.000000
0.000000 0.756771 0.000000
0.000000 0.714286 0.000000
0.000000 0.677300 0.000000
0.000000 0.645102 0.000000
0.000000 0.617073 0.000000
0.000000 0.592671 0.000000
0.000000 0.571429 0.000000
0.000000 0.552936 0.000000
0.000000 0.536837 0.000000
0.000000 0.522822 0.000000
0.000000 0.510621 0.000000
0.000000 0.489379 0.000000
0.000000 0.477178 0.000000
0.000000 0.463163 0.000000
0.000000 0.447064 0.000000
0.000000 0.428571 0.000000
0.000000 0.407329 0.000000
0.000000 0.382927 0.000000
0.000000 0.354898 0.000000
0.000000 0.322700 0.000000
0.000000 0.285714 0.000000
0.000000 0.243229 0.000000
0.000000 0.194426 0.000000
0.000000 0.138367 0.000000
0.000000 0.073971 0.000000
0.009804 0.501961 0.000000
0.019608 0.503922 0.000000
0.029412 0.505882 0.000000
0.039216 0.507843 0.000000
0.049020 0.509804 0.000000
0.058824 0.511765 0.000000
0.068627 0.513725 0.000000
0.078431 0.515686 0.000000
0.088235 0.517647 0.000000
0.098039 0.519608 0.000000
0.107843 0.521569 0.000000
0.117647 0.523529 0.000000
0.127451 0.525490 0.000000
0.137255 0.527451 0.000000
0.147059 0.529412 0.000000
0.156863 0.531373 0.000000
0.166667 0.533333 0.000000
0.176471 0.535294 0.000000
0.186275 0.537255 0.000000
0.196078 0.539216 0.000000
0.205882 0.541176 0.000000
0.215686 0.543137 0.000000
0.225490 0.545098 0.000000
0.235294 0.547059 0.000000
0.245098 0.549020 0.000000
0.254902 0.550980 0.000000
0.264706 0.552941 0.000000
0.274510 0.554902 0.000000
0.284314 0.556863 0.000000
0.294118 0.558824 0.000000
0.303922 0.560784 0.000000
0.313725 0.562745 0.000000
0.323529 0.564706 0.000000
0.333333 0.566667 0.000000
0.343137 0.568627 0.000000
0.352941 0.570588 0.000000
0.362745 0.572549 0.000000
0.372549 0.574510 0.000000
0.382353 0.576471 0.000000
0.392157 0.578431 0.000000
0.401961 0.580392 0.000000
0.411765 0.582353 0.000000
0.421569 0.584314 0.000000
0.431373 0.586275 0.000000
0.441176 0.588235 0.000000
0.450980 0.590196 0.000000
0.460784 0.592157 0.000000
0.470588 0.594118 0.000000
0.480392 0.596078 0.000000
0.490196 0.598039 0.000000
0.500000 0.600000 0.000000
0.509804 0.601961 0.000000
0.519608 0.603922 0.000000
0.529412 0.605882 0.000000
0.539216 0.607843 0.000000
0.549020 0.609804 0.000000
0.558824 0.611765 0.000000
0.568627 0.613725 0.000000
0.578431 0.615686 0.000000
0.588235 0.617647 0.000000
0.598039 0.619608 0.000000
0.607843 0.621569 0.000000
0.617647 0.623529 0.000000
0.627451 0.625490 0.000000
0.637255 0.627451 0.000000
0.647059 0.629412 0.000000
0.656863 0.631373 0.000000
0.666667 0.633333 0.000000
0.676471 0.635294 0.000000
0.686275 0.637255 0.000000
0.696078 0.639216 0.000000
0.705882 0.641176 0.000000
0.715686 0.643137 0.000000
0.725490 0.645098 0.000000
0.735294 0.647059 0.000000
0.745098 0.649020 0.000000
0.754902 0.650980 0.000000
0.764706 0.652941 0.000000
0.774510 0.654902 0.000000
0.784314 0.656863 0.000000
0.794118 0.658824 0.000000
0.803922 0.660784 0.000000
0.813725 0.662745 0.000000
0.823529 0.664706 0.000000
0.833333 0.666667 0.000000
0.843137 0.668627 0.000000
0.852941 0.670588 0.000000
0.862745 0.672549 0.000000
0.872549 0.674510 0.000000
0.882353 0.676471 0.000000
0.892157 0.678431 0.000000
0.901961 0.680392 0.000000
0.911765 0.682353 0.000000
0.921569 0.684314 0.000000
0.931373 0.686275 0.000000
0.941176 0.688235 0.000000
0.950980 0.690196 0.000000
0.960784 0.692157 0.000000
0.970588 0.694118 0.000000
0.980392 0.696078 0.000000
0.990196 0.698039 0.000000
0.113534 0.606152 0.000000
0.107142 0.586373 0.000000
0.121751 0.595256 0.000000
0.125314 0.578403 0.000000
0.608008 0.765681 0.000000
0.585349 0.764086 0.000000
0.591336 0.741952 0.000000
0.592072 0.793974 0.000000
0.550258 0.931017 0.000000
0.517159 0.896365 0.000000
0.557866 0.881366 0.000000
0.885592 0.689744 0.000000
0.900640 0.689195 0.000000
0.893881 0.699663 0.000000
0.791014 0.782870 0.000000
0.806073 0.755575 0.000000
0.814238 0.783906 0.000000
0.755950 0.661588 0.000000
0.766977 0.664624 0.000000
0.759150 0.673362 0.000000
0.237587 0.602856 0.000000
0.244276 0.587613 0.000000
0.255222 0.600052 0.000000
0.435458 0.690521 0.000000
0.445365 0.672382 0.000000
0.452783 0.695442 0.000000
0.434168 0.596027 0.000000
0.443497 0.595614 0.000000
0.440408 0.604928 0.000000
0.125631 0.548518 0.000000
0.136149 0.544058 0.000000
0.133888 0.554367 0.000000
0.684531 0.649457 0.000000
0.693022 0.657375 0.000000
0.680758 0.660164 0.000000
0.688513 0.672143 0.000000
0.209804 0.572062 0.000000
0.211391 0.587677 0.000000
0.198823 0.579466 0.000000
0.912173 0.691199 0.000000
0.919923 0.697571 0.000000
0.840788 0.691515 0.000000
0.836260 0.679067 0.000000
0.846581 0.680639 0.000000
0.610270 0.644163 0.000000
0.606363 0.631487 0.000000
0.618571 0.634947 0.000000
0.703833 0.664888 0.000000
0.705328 0.651574 0.000000
0.718551 0.657874 0.000000
0.476110 0.619965 0.000000
0.470756 0.606568 0.000000
0.483603 0.608681 0.000000
0.787587 0.718715 0.000000
0.799121 0.708516 0.000000
0.805593 0.724753 0.000000
0.545957 0.632159 0.000000
0.551865 0.620855 0.000000
0.557339 0.632078 0.000000
0.494856 0.610760 0.000000
0.503640 0.608636 0.000000
0.360926 0.590762 0.000000
0.373577 0.584863 0.000000
0.371469 0.597941 0.000000
0.331595 0.581327 0.000000
0.327955 0.573642 0.000000
0.337441 0.574864 0.000000
0.452770 0.600633 0.000000
0.450058 0.613037 0.000000
0.678157 0.643781 0.000000
0.204164 0.604889 0.000000
0.194170 0.595839 0.000000
0.640959 0.641938 0.000000
0.656321 0.640868 0.000000
0.651180 0.656559 0.000000
0.987799 0.705954 0.000000
0.990005 0.721233 0.000000
0.977245 0.712758 0.000000
0.974986 0.729512 0.000000
0.333802 0.812487 0.000000
0.361509 0.790617 0.000000
0.367317 0.828894 0.000000
0.604086 0.908536 0.000000
0.602873 0.861865 0.000000
0.486055 0.632060 0.000000
0.466853 0.635244 0.000000
0.541673 0.619743 0.000000
0.532472 0.631076 0.000000
0.541658 0.649026 0.000000
0.522313 0.819315 0.000000
0.510522 0.853722 0.000000
0.487163 0.814552 0.000000
0.308272 0.686111 0.000000
0.313305 0.664245 0.000000
0.331890 0.672844 0.000000
0.462242 0.618446 0.000000
0.459244 0.608252 0.000000
0.859980 0.693314 0.000000
0.849777 0.691819 0.000000
0.856777 0.681858 0.000000
0.942362 0.711719 0.000000
0.941048 0.728383 0.000000
0.931633 0.715819 0.000000
0.696422 0.925997 0.000000
0.743778 0.899483 0.000000
0.736714 0.951105 0.000000
0.710099 0.873175 0.000000
0.706855 0.827503 0.000000
0.748341 0.846430 0.000000
0.404569 0.612087 0.000000
0.400941 0.600304 0.000000
0.413129 0.601428 0.000000
0.739879 0.801859 0.000000
0.689244 0.763692 0.000000
0.711842 0.784429 0.000000
0.682971 0.800595 0.000000
0.849502 0.703362 0.000000
0.872437 0.693808 0.000000
0.880424 0.705421 0.000000
0.247911 0.613985 0.000000
0.230071 0.625013 0.000000
0.426705 0.605906 0.000000
0.417314 0.614950 0.000000
0.564489 0.781794 0.000000
0.542753 0.763395 0.000000
0.563888 0.747070 0.000000
0.540876 0.795125 0.000000
0.254442 0.628223 0.000000
0.675859 0.845039 0.000000
0.389585 0.604484 0.000000
0.382141 0.593934 0.000000
0.394023 0.590296 0.000000
0.210190 0.549067 0.000000
0.218913 0.550855 0.000000
0.211545 0.558654 0.000000
0.509032 0.731434 0.000000
0.480547 0.728234 0.000000
0.498097 0.707679 0.000000
0.408331 0.625772 0.000000
0.737928 0.766371 0.000000
0.713411 0.751924 0.000000
0.236129 0.559953 0.000000
0.247527 0.565947 0.000000
0.238129 0.573668 0.000000
0.277601 0.586118 0.000000
0.273407 0.573379 0.000000
0.286542 0.574133 0.000000
0.695186 0.646009 0.000000
0.128809 0.536590 0.000000
0.385032 0.584469 0.000000
0.959668 0.883416 0.000000
0.604963 0.829728 0.000000
0.627628 0.795445 0.000000
0.636557 0.838109 0.000000
0.226927 0.903063 0.000000
0.196567 0.877414 0.000000
0.253614 0.858563 0.000000
0.488755 0.686131 0.000000
0.474772 0.701653 0.000000
0.208074 0.832028 0.000000
0.596571 0.714257 0.000000
0.619682 0.736143 0.000000
0.620249 0.709238 0.000000
0.426920 0.878300 0.000000
0.456147 0.845659 0.000000
0.471012 0.891685 0.000000
0.607192 0.695818 0.000000
0.525672 0.709461 0.000000
0.509369 0.690109 0.000000
0.535964 0.736172 0.000000
0.737088 0.738406 0.000000
0.716812 0.727414 0.000000
0.735580 0.717065 0.000000
0.717714 0.708748 0.000000
0.733899 0.701419 0.000000
0.434815 0.713754 0.000000
0.456218 0.743004 0.000000
0.415116 0.743197 0.000000
0.459688 0.716033 0.000000
0.441105 0.768871 0.000000
[...]
POINT_DATA 1770
SCALARS UX float 1
LOOKUP_TABLE default
-0.535762
0.000001
0.000002
-0.711710
-0.570005
0.041112
-0.489784
-0.443463
-0.397569
-0.352682
-0.309059
-0.266236
-0.224082
-0.182176
-0.141570
-0.101425
-0.062879
-0.029056
0.029486
0.039284
0.045520
0.047791
0.050239
0.051423
0.052076
0.052624
0.053627
0.054263
0.054941
0.055684
0.056537
0.057194
0.057603
0.057501
0.056869
0.054768
0.051818
0.046924
0.035779
0.031057
0.027761
0.026093
0.025608
0.026504
0.026720
0.027269
-0.000013
-0.067093
-0.133275
-0.196279
-0.257753
-0.317119
-0.375486
-0.432225
-0.488381
-0.545043
-0.600743
-0.656131
-0.666375
-0.630460
-0.606586
-0.594720
-0.588248
-0.585075
-0.584083
-0.583815
-0.583658
-0.583607
-0.583021
-0.581322
-0.578395
-0.574471
-0.563197
-0.559194
-0.556426
-0.554519
-0.553582
-0.553698
-0.553719
-0.553944
-0.554404
-0.554284
-0.554661
-0.553939
-0.552639
-0.547968
-0.563184
-0.556622
-0.550210
-0.543943
-0.537740
-0.531619
-0.525604
-0.519591
-0.513586
-0.507614
-0.501687
-0.495793
-0.489894
-0.484025
-0.478137
-0.472272
-0.466326
-0.460366
-0.454458
-0.448598
-0.442762
-0.436909
-0.431047
-0.425170
-0.419273
-0.413362
-0.407565
-0.401692
-0.395802
-0.389976
-0.384135
-0.378308
-0.372467
-0.366633
-0.360846
-0.355076
-0.349256
-0.343435
-0.337573
-0.331729
-0.325847
-0.319978
-0.314104
-0.308221
-0.302329
-0.296442
-0.290547
-0.284656
-0.278740
-0.272832
-0.267016
-0.261179
-0.255311
-0.249452
-0.243577
-0.237686
-0.231803
-0.225907
-0.220035
-0.214134
-0.208257
-0.202322
-0.196472
-0.190593
-0.184702
-0.178795
-0.172881
-0.166962
-0.161041
-0.155132
-0.149117
-0.143173
-0.137220
-0.131240
-0.125284
-0.119311
-0.113281
-0.107251
-0.101256
-0.095261
-0.089243
-0.083215
-0.077238
-0.071294
-0.065381
-0.059384
-0.053373
-0.047366
-0.041302
-0.035235
-0.029092
-0.022922
-0.016783
-0.010644
-0.004323
0.001992
0.008344
0.014739
0.021214
0.027769
0.034315
-0.512811
-0.516031
-0.507468
-0.504413
-0.215919
-0.229696
-0.226286
-0.225315
-0.273426
-0.285316
-0.253365
-0.039282
-0.028220
-0.036573
-0.104413
-0.095997
-0.090276
-0.117223
-0.110923
-0.119138
-0.437328
-0.431745
-0.426279
-0.320355
-0.314122
-0.309939
-0.310491
-0.303981
-0.309448
-0.499470
-0.491199
-0.495538
-0.161249
-0.158158
-0.166993
-0.164688
-0.450851
-0.452239
-0.459082
-0.020714
-0.017742
-0.070270
-0.069209
-0.062733
-0.209069
-0.207698
-0.200723
-0.153066
-0.147984
-0.141327
-0.290297
-0.289861
-0.282018
-0.107047
-0.099155
-0.096199
-0.248126
-0.240552
-0.240629
-0.275227
-0.268401
-0.357675
-0.347111
-0.352824
-0.373975
-0.373484
-0.367548
-0.299714
-0.305537
-0.163432
-0.457893
-0.463509
-0.188057
-0.177312
-0.185475
0.028600
0.025042
0.018335
0.012476
-0.389284
-0.368314
-0.370178
-0.228434
-0.220629
-0.286397
-0.298893
-0.247017
-0.256591
-0.253809
-0.268600
-0.280386
-0.290552
-0.396863
-0.393586
-0.382557
-0.298919
-0.297976
-0.057807
-0.064302
-0.056162
-0.006333
-0.010402
-0.014502
-0.167347
-0.131820
-0.145389
-0.151827
-0.154185
-0.128221
-0.334663
-0.334049
-0.326358
-0.134956
-0.166751
-0.152457
-0.169690
-0.066887
-0.049495
-0.047265
-0.431606
-0.443035
-0.318739
-0.327119
-0.242277
-0.255615
-0.242858
-0.256795
-0.428353
-0.173111
-0.342778
-0.344434
-0.335404
-0.443393
-0.438167
-0.446259
-0.276106
-0.293296
-0.282690
-0.334210
-0.137119
-0.152231
-0.430242
-0.424618
-0.433133
-0.410598
-0.410000
-0.401559
-0.152686
-0.493627
-0.339187
0.004641
-0.217039
-0.203545
-0.197586
-0.491863
-0.500306
-0.453087
-0.288167
-0.296717
-0.475671
-0.223222
-0.209211
-0.208862
-0.341731
-0.314741
-0.315851
-0.216519
-0.266081
-0.275777
-0.259826
-0.138075
-0.150350
-0.138791
-0.149495
-0.139210
-0.320872
-0.308063
-0.333058
-0.305842
-0.317666
-0.519894
-0.516084
-0.510386
-0.243945
-0.237045
-0.230838
-0.515596
-0.522479
0.012794
-0.000944
-0.003037
0.013579
-0.354219
-0.355512
-0.369221
-0.366305
-0.114784
-0.105576
0.004996
-0.002975
-0.539609
-0.592106
-0.544297
-0.538161
-0.541816
-0.532528
-0.534736
-0.548285
-0.039508
-0.049402
-0.277215
-0.270710
-0.282153
-0.265675
0.014703
-0.124435
-0.112913
-0.115299
-0.271929
-0.505050
-0.243692
-0.344720
-0.383990
-0.463751
-0.573555
-0.574023
-0.346935
-0.009818
-0.012279
-0.443587
-0.400831
-0.394725
-0.418262
-0.418283
-0.352903
-0.375453
-0.014242
-0.034517
-0.015948
-0.030414
-0.169224
-0.564142
-0.550167
-0.539644
-0.534160
-0.191090
-0.563442
-0.559137
-0.548721
-0.545161
-0.566908
-0.519397
-0.545653
-0.185834
-0.185627
-0.548255
-0.174467
-0.176476
-0.263081
-0.266159
-0.571096
-0.260617
-0.569210
-0.549021
-0.021034
-0.029511
-0.031078
-0.211414
-0.534720
-0.569328
-0.445546
-0.110685
-0.021405
-0.028399
-0.529308
-0.535948
-0.059201
-0.047581
-0.081499
-0.545587
-0.016046
-0.017994
-0.282459
-0.292728
-0.515721
-0.504867
0.006281
-0.500335
-0.507917
-0.496921
-0.507229
-0.496501
-0.439145
-0.455231
-0.434689
-0.527238
-0.533582
-0.542564
-0.463941
-0.086404
-0.255820
-0.531856
-0.538807
-0.134059
-0.127442
-0.214239
-0.202946
-0.205771
-0.411880
-0.398356
-0.406023
-0.403088
-0.180365
-0.191819
-0.185649
-0.185535
-0.046444
-0.055593
-0.063017
-0.546145
-0.105685
-0.059531
-0.071755
-0.064831
-0.073774
-0.066847
-0.107263
-0.116018
-0.084973
-0.081481
-0.075039
-0.331977
-0.325146
-0.323166
-0.126992
-0.085405
-0.091931
-0.118148
-0.224633
-0.217940
-0.127974
-0.301495
-0.523599
-0.534934
-0.525816
-0.377675
-0.370065
-0.377590
-0.110709
-0.121184
-0.123282
-0.368136
-0.357496
-0.351174
-0.361380
-0.350250
-0.341515
-0.043535
-0.335538
-0.572835
-0.537969
-0.310653
-0.308183
-0.341358
-0.507424
-0.503141
-0.316127
-0.489852
-0.474639
-0.479199
-0.482064
-0.316347
-0.104888
-0.164448
-0.100964
-0.456124
-0.466174
-0.461903
-0.173497
-0.161200
-0.178277
-0.038672
-0.049999
-0.041409
-0.481321
-0.497591
-0.169489
-0.158141
-0.164888
-0.175113
-0.499681
-0.273964
-0.468572
-0.465009
-0.458929
-0.467733
-0.299355
-0.488486
-0.480152
-0.481458
-0.287054
-0.329831
-0.339112
-0.448348
-0.456778
-0.216749
-0.215268
-0.223507
-0.472855
-0.327289
-0.193137
-0.201421
-0.474038
-0.478133
-0.484195
-0.486846
-0.252890
-0.264363
-0.478969
-0.469720
-0.367711
-0.419690
-0.362317
-0.361252
-0.369200
-0.316876
-0.378725
-0.380322
-0.344666
-0.443532
-0.436658
-0.132923
-0.141278
-0.222481
-0.292594
-0.282770
-0.383901
-0.391286
-0.394792
-0.385660
-0.387272
-0.147915
-0.146120
-0.175910
-0.184427
-0.551762
-0.169656
-0.438964
-0.278484
-0.504376
-0.494632
-0.510818
-0.512705
-0.518797
-0.506705
-0.503112
-0.528377
-0.524607
-0.087345
-0.080174
-0.087445
-0.487931
-0.256666
-0.275470
-0.094553
-0.415240
-0.405742
-0.415338
-0.404497
-0.423141
-0.421676
-0.096523
-0.417927
-0.396342
-0.421755
-0.412206
-0.482708
-0.217816
-0.205262
-0.090936
-0.446337
-0.433140
-0.450261
-0.462522
-0.531954
-0.462046
-0.267323
-0.271487
-0.263241
-0.393808
-0.392207
-0.362870
-0.369591
-0.353778
-0.057563
-0.055975
-0.372407
-0.383623
-0.474712
-0.467934
-0.195553
-0.196038
-0.441587
-0.136626
-0.232247
-0.232699
-0.407208
-0.413539
-0.156370
-0.385421
-0.402152
-0.555010
-0.424372
-0.425743
-0.418154
-0.252757
-0.241600
-0.227421
-0.420913
-0.362480
-0.246721
-0.521137
-0.512171
-0.289617
-0.352492
-0.444174
-0.319909
-0.396529
-0.419084
-0.353594
-0.436181
-0.427481
-0.486127
-0.524475
-0.550809
-0.556928
-0.270597
-0.529815
-0.333884
-0.198171
-0.507826
-0.519413
-0.572131
-0.027012
-0.588206
-0.028528
-0.237948
-0.571217
-0.566706
-0.564147
-0.556676
-0.571610
-0.551968
-0.553362
-0.560388
-0.563574
-0.560736
-0.249510
-0.225861
-0.379234
-0.388010
-0.641875
-0.006042
-0.416824
-0.566068
-0.564568
-0.433848
-0.562262
0.000821
-0.451899
0.010035
-0.495523
-0.122954
-0.571766
0.021786
0.010237
-0.387406
-0.075061
-0.084260
-0.079993
-0.488543
-0.499365
-0.301402
-0.395594
-0.401562
-0.467206
-0.478312
-0.237012
-0.320005
-0.193880
-0.199902
-0.474105
-0.509848
-0.107770
-0.518539
-0.497817
-0.256589
-0.488617
-0.501918
-0.416388
-0.194255
-0.455360
-0.327482
-0.233332
-0.049946
-0.043212
-0.469283
-0.073804
-0.385875
-0.397314
-0.226932
-0.321488
-0.104752
-0.419846
-0.373748
-0.422836
-0.348722
-0.132766
-0.402431
-0.195787
-0.246510
-0.459160
-0.467396
-0.470770
-0.457429
-0.188414
-0.197754
-0.195399
-0.195270
-0.248662
-0.248824
-0.254538
-0.250060
-0.240407
-0.275324
-0.479364
-0.473164
-0.255982
-0.542021
-0.539830
-0.001928
-0.019550
-0.004143
-0.525946
-0.529075
-0.018974
-0.289487
-0.328738
0.026186
0.019515
0.035799
0.019698
-0.029233
-0.026821
-0.035413
-0.020090
-0.374122
-0.377409
-0.366703
-0.365561
-0.259342
-0.246536
-0.258213
-0.252267
-0.478859
-0.472568
-0.466586
-0.465207
-0.445890
-0.447198
-0.292908
-0.299977
-0.289228
0.012084
-0.477712
-0.467779
-0.476188
-0.472227
-0.456343
-0.440475
-0.445737
-0.431244
-0.243734
-0.249325
-0.239165
-0.204730
-0.200870
-0.128960
-0.133095
-0.117004
-0.141923
-0.083533
-0.078976
-0.090505
-0.068544
-0.202646
-0.312406
-0.319157
-0.321060
0.002943
0.004150
-0.003869
-0.324290
-0.330793
-0.323910
-0.328351
-0.518714
-0.515580
-0.510007
-0.426016
-0.429111
-0.435122
-0.309024
-0.317396
-0.088336
-0.084861
-0.078510
-0.196324
-0.188192
-0.188146
-0.180647
-0.130287
-0.121379
-0.288428
-0.291801
-0.298136
-0.263945
-0.267766
-0.259725
-0.130454
-0.122800
-0.132713
-0.272232
-0.279360
-0.282783
-0.273226
-0.416563
-0.408243
-0.415102
-0.407607
-0.424866
-0.419085
-0.426969
-0.233399
-0.233776
-0.245412
-0.188352
-0.174250
-0.171751
-0.237317
-0.415947
-0.423067
-0.411346
-0.169574
-0.170032
-0.176248
-0.168184
-0.168585
-0.159511
-0.393191
-0.392572
-0.402046
-0.163194
-0.115984
-0.137988
-0.124742
-0.130770
-0.431211
-0.432298
-0.311254
-0.317912
-0.311558
-0.209357
-0.217648
-0.214774
-0.218507
-0.535698
-0.540621
-0.531746
-0.537693
-0.147845
-0.151060
-0.157205
-0.188279
-0.194185
0.035284
0.039466
0.044573
0.029712
-0.364789
-0.349723
-0.376730
-0.157989
0.007524
-0.007135
-0.261490
-0.253227
-0.349151
-0.339475
-0.345528
-0.153551
-0.150435
-0.162672
-0.180950
0.018909
0.014146
0.006762
0.003701
-0.337115
-0.077548
-0.070558
-0.071723
-0.172672
-0.167134
-0.174868
-0.430986
-0.423360
-0.220189
-0.229167
-0.224025
-0.272612
-0.266034
-0.275324
-0.360990
-0.347979
-0.480841
-0.489612
-0.482989
-0.494062
-0.348663
-0.352454
-0.357135
-0.153337
-0.210698
-0.211531
-0.000005
0.010634
0.008618
-0.516492
-0.501003
-0.514105
-0.499557
-0.000837
-0.004674
-0.030897
-0.057897
-0.027425
-0.048961
-0.390724
-0.392007
-0.399533
-0.383834
-0.287158
-0.219481
-0.208891
-0.220618
-0.309144
-0.267748
-0.242815
-0.233171
-0.236453
0.044025
0.048254
-0.062657
-0.056819
-0.068520
-0.051044
-0.052525
-0.084954
-0.075630
-0.319873
-0.317262
-0.343037
-0.429824
-0.420437
-0.409737
-0.464926
-0.492680
-0.492989
-0.485486
-0.499850
-0.488161
-0.468075
-0.483263
-0.451688
-0.527712
-0.528484
-0.152113
-0.161623
-0.174184
-0.135267
-0.401759
-0.391832
-0.144139
-0.371549
-0.397437
-0.529802
-0.522221
-0.203842
-0.525423
0.006616
-0.003329
-0.268818
-0.269869
-0.284823
-0.285687
-0.534639
-0.031251
-0.023260
-0.034288
-0.029477
-0.021751
-0.095481
-0.080952
-0.106398
-0.329593
-0.325198
-0.325705
-0.435865
-0.444471
-0.442948
-0.043374
-0.053006
-0.050890
-0.000497
-0.531623
-0.521203
-0.532243
0.026417
0.018022
0.010507
0.040901
-0.521504
-0.513313
-0.463933
-0.457045
-0.460963
-0.506355
-0.513344
-0.508522
-0.504238
-0.499883
0.004008
-0.507684
0.039264
0.035159
0.027060
-0.319575
-0.324419
-0.333184
-0.473590
-0.486889
-0.471662
-0.485816
-0.486504
-0.089618
-0.068240
-0.266821
-0.284114
-0.253415
-0.236643
-0.264832
-0.244181
-0.526933
0.015904
0.022062
0.013298
0.022866
-0.093178
-0.087752
-0.084897
-0.088184
-0.081832
-0.010051
-0.012222
-0.280789
-0.097344
-0.542450
-0.431131
-0.426643
-0.102213
-0.098276
-0.383954
-0.015318
-0.031280
-0.150035
-0.164321
-0.157883
-0.156478
-0.211323
-0.053839
-0.059882
-0.062410
-0.022362
-0.031524
-0.064901
-0.056853
-0.064682
-0.097756
-0.481742
-0.484728
0.026914
0.015853
0.036027
0.012971
0.004388
-0.215887
-0.006012
-0.013416
-0.014994
-0.283164
-0.276437
-0.065333
-0.058641
-0.063027
-0.189394
-0.199412
-0.222103
-0.205332
-0.009601
0.005612
-0.017128
-0.430952
-0.432295
-0.442056
-0.422121
-0.542479
-0.030388
0.014405
-0.419222
-0.107182
-0.101863
-0.110629
-0.423465
-0.448136
-0.453300
-0.395844
-0.413525
0.030971
0.023589
-0.406170
-0.416834
-0.400078
-0.056158
-0.042150
-0.061807
-0.041154
-0.385905
-0.401772
-0.415905
0.034541
0.028057
0.035368
0.045158
0.047561
-0.075378
-0.106827
-0.064366
-0.082681
-0.001498
-0.082132
-0.108064
-0.091308
0.030900
-0.101660
0.004712
0.013918
-0.103198
-0.124907
-0.120571
-0.326866
-0.341697
-0.338869
0.036916
0.026845
-0.049869
-0.506579
-0.545119
-0.069285
-0.033549
0.041244
-0.063903
0.008586
0.006089
-0.534232
-0.379946
-0.383157
-0.505508
-0.512410
0.029660
-0.070852
-0.075421
-0.298549
-0.302001
-0.312859
-0.308279
-0.518607
-0.535037
-0.026300
-0.016766
-0.024713
-0.360086
-0.366050
0.036832
-0.031400
-0.018213
-0.025027
-0.039920
-0.044346
-0.521333
-0.042001
-0.450316
-0.447960
-0.188486
-0.173397
-0.198425
-0.183662
-0.089072
-0.090428
-0.100264
-0.091925
-0.099556
-0.099817
-0.055338
-0.046246
-0.043912
-0.078897
-0.082583
-0.032312
-0.238959
-0.229302
-0.222230
-0.046106
-0.050013
-0.041143
-0.499265
-0.490164
-0.497026
-0.489430
-0.218282
-0.068739
-0.068947
-0.287184
-0.083344
-0.058890
-0.116194
-0.045450
-0.048529
-0.052505
-0.485946
-0.480193
-0.490270
-0.050588
-0.515744
-0.111310
-0.106495
-0.217729
-0.215368
-0.297680
-0.004293
-0.004774
-0.006032
0.000819
-0.009384
-0.010241
0.030491
-0.069782
-0.036460
-0.028541
-0.037643
-0.077492
-0.464311
-0.465935
-0.288179
-0.043519
-0.292595
-0.032566
-0.056363
-0.084716
-0.077163
-0.391291
-0.385239
-0.382095
-0.378058
-0.384925
-0.108984
-0.120696
-0.120021
-0.110008
-0.292915
-0.072422
-0.356946
-0.357718
-0.213584
-0.208405
-0.219589
-0.252290
-0.242563
-0.255150
-0.257933
-0.474479
-0.239433
-0.349932
-0.354991
-0.347460
-0.224803
-0.412577
-0.417391
-0.499130
-0.104383
-0.113540
-0.113644
-0.355529
-0.346033
-0.358654
-0.354128
-0.472828
-0.001708
0.024758
-0.092987
-0.311968
-0.316973
-0.511434
-0.421331
-0.195165
-0.212543
-0.195619
-0.178527
-0.194867
-0.179754
-0.190805
-0.059624
-0.253174
-0.208691
-0.065189
-0.172286
-0.164329
-0.393826
-0.224438
-0.229074
-0.228343
-0.441897
-0.428415
-0.436754
-0.270815
-0.221709
-0.229695
-0.321893
-0.355517
-0.337266
-0.148572
-0.145338
-0.167958
-0.160219
-0.159298
-0.074097
-0.459056
-0.523708
-0.298861
-0.307956
-0.304506
-0.131131
-0.365068
-0.396863
-0.387323
0.018934
-0.455962
-0.269024
-0.264053
-0.020467
-0.327779
-0.348238
-0.330488
-0.150025
-0.139344
-0.115773
-0.335970
-0.345346
-0.499268
-0.122004
-0.112716
-0.114370
-0.105827
-0.376237
-0.371620
-0.450769
-0.461845
-0.456081
-0.454123
-0.286454
-0.280146
-0.282214
-0.179119
-0.166801
-0.323406
-0.311020
-0.306376
-0.501467
-0.495756
-0.204881
-0.224581
-0.218767
-0.243127
-0.101106
-0.098875
-0.114726
-0.132606
-0.133782
-0.123676
-0.329578
-0.341254
-0.334822
-0.334938
-0.394782
-0.407466
-0.401490
-0.401668
-0.409935
-0.040674
-0.142192
-0.140605
0.014569
-0.353937
-0.194209
-0.200838
-0.453529
-0.368637
-0.363574
-0.373998
-0.370481
-0.108787
-0.116839
-0.119942
-0.128364
-0.222759
-0.097098
-0.097678
-0.351369
-0.334275
-0.413548
-0.426878
-0.372248
-0.212107
-0.205849
-0.419014
-0.231570
-0.250893
-0.124244
-0.115810
-0.122095
-0.361975
-0.369158
-0.091931
-0.307400
-0.067578
-0.458657
-0.320474
-0.328845
-0.324468
-0.227598
-0.235830
-0.012644
-0.459820
0.038376
-0.020366
-0.516227
-0.452127
-0.376545
-0.368426
-0.268679
-0.405332
-0.415759
-0.292431
-0.268988
-0.508594
-0.373639
-0.363633
-0.147434
-0.142636
-0.155672
-0.359580
-0.265236
-0.258429
0.023913
-0.143021
-0.144026
-0.448048
-0.344409
-0.348354
-0.503533
-0.424966
-0.430247
-0.428045
-0.202687
-0.196740
0.024534
0.027430
-0.440738
-0.351786
-0.361314
-0.352781
-0.235870
-0.093431
-0.339009
-0.380429
-0.387154
-0.151044
-0.137035
-0.242391
-0.082455
-0.241749
-0.244741
-0.236812
-0.393881
-0.399189
-0.046474
-0.065321
-0.286643
-0.251176
-0.022226
-0.332397
-0.338325
-0.257636
-0.255862
-0.364510
-0.370327
-0.373097
-0.163316
-0.164398
-0.082550
-0.181238
0.046471
-0.512209
-0.482336
-0.138827
-0.131914
0.034509
-0.137857
-0.444288
-0.520209
0.033086
-0.037525
-0.048932
-0.543134
-0.026841
-0.016443
-0.136616
-0.486941
0.045051
-0.476742
-0.201930
-0.548939
-0.549006
-0.556256
-0.161656
-0.548923
0.016594
-0.090858
0.020326
-0.382246
-0.235224
-0.557258
0.000291
-0.296323
-0.199580
-0.180198
-0.184924
-0.161767
-0.145855
-0.137808
-0.126313
-0.145601
-0.248865
-0.453263
-0.128810
-0.315991
-0.306682
-0.439255
-0.345616
-0.316619
-0.251741
-0.381882
-0.043368
-0.266066
-0.287455
-0.148246
-0.136656
-0.257118
-0.334960
-0.341501
-0.166992
-0.175071
-0.172744
-0.115540
-0.020837
-0.030552
-0.161304
-0.012380
-0.195295
-0.042421
-0.416670
-0.274640
-0.230579
-0.155322
-0.117481
-0.012652
-0.366188
0.023460
-0.399079
-0.141904
-0.012768
-0.024429
-0.014857
-0.058171
-0.472797
-0.032063
-0.504253
-0.498996
-0.353913
-0.206712
-0.469624
-0.473167
-0.132252
-0.147654
-0.057014
-0.073743
-0.012744
-0.520534
-0.174990
-0.184635
-0.229015
-0.280030
-0.123312
-0.301282
-0.304611
-0.351186
-0.485277
-0.190605
-0.286472
-0.296515
-0.019313
-0.303075
-0.311073
-0.304452
-0.191906
-0.388225
-0.419482
-0.335623
-0.007670
-0.183398
-0.097468
-0.067842
-0.465447
-0.173088
-0.181730
-0.433096
-0.156292
-0.148906
-0.153091
-0.189416
-0.194762
-0.438281
-0.442149
-0.445917
-0.175684
-0.183137
-0.182959
-0.207374
-0.202725
-0.211305
-0.376334
-0.405043
-0.263859
-0.366419
-0.446005
-0.437682
-0.299468
-0.258093
-0.382448
-0.223569
-0.264118
-0.293637
-0.386443
SCALARS UY float 1
LOOKUP_TABLE default
-0.000000
-0.000001
-1.409983
-1.409999
-0.665835
-1.022453
-0.000000
-0.000000
-0.000000
-0.000001
-0.000001
-0.000001
-0.000001
-0.000001
-0.000001
-0.000000
-0.000001
-0.000000
-0.114002
-0.213543
-0.302823
-0.385175
-0.459165
-0.525674
-0.585897
-0.640492
-0.689727
-0.734790
-0.775256
-0.811737
-0.844804
-0.874931
-0.902390
-0.927166
-0.949624
-0.970405
-0.989223
-1.006672
-1.039110
-1.059134
-1.083334
-1.113458
-1.150013
-1.196122
-1.251663
-1.320823
-1.410002
-1.409999
-1.410000
-1.409999
-1.410000
-1.409999
-1.409999
-1.409999
-1.409999
-1.409999
-1.409999
-1.409999
-1.296463
-1.198651
-1.114358
-1.042144
-0.980069
-0.926305
-0.879722
-0.838775
-0.803394
-0.772390
-0.745205
-0.721506
-0.700530
-0.681932
-0.649345
-0.631633
-0.611514
-0.588865
-0.563293
-0.534499
-0.501502
-0.463555
-0.420467
-0.370837
-0.314556
-0.250257
-0.177146
-0.093594
-0.675162
-0.683085
-0.689540
-0.695040
-0.700134
-0.704790
-0.708802
-0.712541
-0.715951
-0.719398
-0.722622
-0.725633
-0.728702
-0.731578
-0.734502
-0.737150
-0.739972
-0.742728
-0.745549
-0.748343
-0.751115
-0.753943
-0.756767
-0.759514
-0.762437
-0.765306
-0.768015
-0.770788
-0.773729
-0.776374
-0.779082
-0.781804
-0.784516
-0.787309
-0.790038
-0.792846
-0.795525
-0.798284
-0.801157
-0.803867
-0.806661
-0.809478
-0.812225
-0.815069
-0.817862
-0.820553
-0.823345
-0.826132
-0.828917
-0.831663
-0.834466
-0.837261
-0.840086
-0.842743
-0.845537
-0.848379
-0.851201
-0.854078
-0.856891
-0.859825
-0.862540
-0.865428
-0.868053
-0.870891
-0.873717
-0.876570
-0.879252
-0.882156
-0.885027
-0.887825
-0.890706
-0.893596
-0.896577
-0.899548
-0.902573
-0.905175
-0.908159
-0.911005
-0.914043
-0.916935
-0.919858
-0.922959
-0.925936
-0.928842
-0.931737
-0.934982
-0.938384
-0.941995
-0.945898
-0.949826
-0.954293
-0.958942
-0.963921
-0.968994
-0.974429
-0.979929
-0.985638
-0.991849
-0.998399
-1.005421
-1.013307
-0.842630
-0.814934
-0.827728
-0.804355
-1.069364
-1.066887
-1.036062
-1.108757
-1.305652
-1.253972
-1.232570
-0.970294
-0.972034
-0.986455
-1.097287
-1.059303
-1.099305
-0.924056
-0.928480
-0.941367
-0.839424
-0.818143
-0.835709
-0.962674
-0.937532
-0.969724
-0.829431
-0.828718
-0.842361
-0.762129
-0.755811
-0.770587
-0.905915
-0.917548
-0.921536
-0.938923
-0.795868
-0.817955
-0.806305
-0.977431
-0.988628
-0.969040
-0.950517
-0.953199
-0.898540