# vtk DataFile Version 2.0
Test
ASCII
DATASET POLYDATA
POINTS 1445 float
0.000000 0.000000 0.000000
1.000000 0.000000 0.000000
1.000000 1.000000 0.000000
0.000000 1.000000 0.000000
0.000000 0.400000 0.000000
1.000000 0.600000 0.000000
0.029412 0.000000 0.000000
0.058824 0.000000 0.000000
0.088235 0.000000 0.000000
0.117647 0.000000 0.000000
0.147059 0.000000 0.000000
0.176471 0.000000 0.000000
0.205882 0.000000 0.000000
0.235294 0.000000 0.000000
0.264706 0.000000 0.000000
0.294118 0.000000 0.000000
0.323529 0.000000 0.000000
0.352941 0.000000 0.000000
0.382353 0.000000 0.000000
0.411765 0.000000 0.000000
0.441176 0.000000 0.000000
0.470588 0.000000 0.000000
0.500000 0.000000 0.000000
0.529412 0.000000 0.000000
0.558824 0.000000 0.000000
0.588235 0.000000 0.000000
0.617647 0.000000 0.000000
0.647059 0.000000 0.000000
0.676471 0.000000 0.000000
0.705882 0.000000 0.000000
0.735294 0.000000 0.000000
0.764706 0.000000 0.000000
0.794118 0.000000 0.000000
0.823529 0.000000 0.000000
0.852941 0.000000 0.000000
0.882353 0.000000 0.000000
0.911765 0.000000 0.000000
0.941176 0.000000 0.000000
0.970588 0.000000 0.000000
1.000000 0.030000 0.000000
1.000000 0.060000 0.000000
1.000000 0.090000 0.000000
1.000000 0.120000 0.000000
1.000000 0.150000 0.000000
1.000000 0.180000 0.000000
1.000000 0.210000 0.000000
1.000000 0.240000 0.000000
1.000000 0.270000 0.000000
1.000000 0.300000 0.000000
1.000000 0.330000 0.000000
1.000000 0.360000 0.000000
1.000000 0.390000 0.000000
1.000000 0.420000 0.000000
1.000000 0.450000 0.000000
1.000000 0.480000 0.000000
1.000000 0.510000 0.000000
1.000000 0.540000 0.000000
1.000000 0.570000 0.000000
1.000000 0.628571 0.000000
1.000000 0.657143 0.000000
1.000000 0.685714 0.000000
1.000000 0.714286 0.000000
1.000000 0.742857 0.000000
1.000000 0.771429 0.000000
1.000000 0.800000 0.000000
1.000000 0.828571 0.000000
1.000000 0.857143 0.000000
1.000000 0.885714 0.000000
1.000000 0.914286 0.000000
1.000000 0.942857 0.000000
1.000000 0.971429 0.000000
0.970588 1.000000 0.000000
0.941176 1.000000 0.000000
0.911765 1.000000 0.000000
0.882353 1.000000 0.000000
0.852941 1.000000 0.000000
0.823529 1.000000 0.000000
0.794118 1.000000 0.000000
0.764706 1.000000 0.000000
0.735294 1.000000 0.000000
0.705882 1.000000 0.000000
0.676471 1.000000 0.000000
0.647059 1.000000 0.000000
0.617647 1.000000 0.000000
0.588235 1.000000 0.000000
0.558824 1.000000 0.000000
0.529412 1.000000 0.000000
0.500000 1.000000 0.000000
0.470588 1.000000 0.000000
0.441176 1.000000 0.000000
0.411765 1.000000 0.000000
0.382353 1.000000 0.000000
0.352941 1.000000 0.000000
0.323529 1.000000 0.000000
0.294118 1.000000 0.000000
0.264706 1.000000 0.000000
0.235294 1.000000 0.000000
0.205882 1.000000 0.000000
0.176471 1.000000 0.000000
0.147059 1.000000 0.000000
0.117647 1.000000 0.000000
0.088235 1.000000 0.000000
0.058824 1.000000 0.000000
0.029412 1.000000 0.000000
0.000000 0.970000 0.000000
0.000000 0.940000 0.000000
0.000000 0.910000 0.000000
0.000000 0.880000 0.000000
0.000000 0.850000 0.000000
0.000000 0.820000 0.000000
0.000000 0.790000 0.000000
0.000000 0.760000 0.000000
0.000000 0.730000 0.000000
0.000000 0.700000 0.000000
0.000000 0.670000 0.000000
0.000000 0.640000 0.000000
0.000000 0.610000 0.000000
0.000000 0.580000 0.000000
0.000000 0.550000 0.000000
0.000000 0.520000 0.000000
0.000000 0.490000 0.000000
0.000000 0.460000 0.000000
0.000000 0.430000 0.000000
0.000000 0.371429 0.000000
0.000000 0.342857 0.000000
0.000000 0.314286 0.000000
0.000000 0.285714 0.000000
0.000000 0.257143 0.000000
0.000000 0.228571 0.000000
0.000000 0.200000 0.000000
0.000000 0.171429 0.000000
0.000000 0.142857 0.000000
0.000000 0.114286 0.000000
0.000000 0.085714 0.000000
0.000000 0.057143 0.000000
0.000000 0.028571 0.000000
0.029412 0.405882 0.000000
0.058824 0.411765 0.000000
0.088235 0.417647 0.000000
0.117647 0.423529 0.000000
0.147059 0.429412 0.000000
0.176471 0.435294 0.000000
0.205882 0.441176 0.000000
0.235294 0.447059 0.000000
0.264706 0.452941 0.000000
0.294118 0.458824 0.000000
0.323529 0.464706 0.000000
0.352941 0.470588 0.000000
0.382353 0.476471 0.000000
0.411765 0.482353 0.000000
0.441176 0.488235 0.000000
0.470588 0.494118 0.000000
0.500000 0.500000 0.000000
0.529412 0.505882 0.000000
0.558824 0.511765 0.000000
0.588235 0.517647 0.000000
0.617647 0.523529 0.000000
0.647059 0.529412 0.000000
0.676471 0.535294 0.000000
0.705882 0.541176 0.000000
0.735294 0.547059 0.000000
0.764706 0.552941 0.000000
0.794118 0.558824 0.000000
0.823529 0.564706 0.000000
0.852941 0.570588 0.000000
0.882353 0.576471 0.000000
0.911765 0.582353 0.000000
0.941176 0.588235 0.000000
0.970588 0.594118 0.000000
0.948492 0.617586 0.000000
0.918239 0.609871 0.000000
0.126115 0.454845 0.000000
0.100318 0.465379 0.000000
0.103006 0.442114 0.000000
0.117916 0.480680 0.000000
0.029145 0.895585 0.000000
0.046774 0.918032 0.000000
0.024990 0.926329 0.000000
0.056315 0.899171 0.000000
0.977770 0.695981 0.000000
0.963577 0.714729 0.000000
0.973827 0.736127 0.000000
0.605253 0.549394 0.000000
0.579370 0.549801 0.000000
0.570019 0.533816 0.000000
0.896809 0.971959 0.000000
0.919426 0.957680 0.000000
0.927686 0.976215 0.000000
0.899487 0.944624 0.000000
0.974081 0.924646 0.000000
0.977161 0.898750 0.000000
0.076578 0.973587 0.000000
0.102577 0.974440 0.000000
0.861693 0.698664 0.000000
0.848870 0.723174 0.000000
0.839521 0.701504 0.000000
0.820447 0.720618 0.000000
0.872237 0.675719 0.000000
0.882611 0.694724 0.000000
0.895344 0.672729 0.000000
0.606326 0.947716 0.000000
0.624868 0.973015 0.000000
0.599776 0.977307 0.000000
0.167986 0.944019 0.000000
0.199183 0.948746 0.000000
0.187884 0.972901 0.000000
0.787752 0.856005 0.000000
0.754801 0.854462 0.000000
0.778588 0.832828 0.000000
0.191471 0.922393 0.000000
0.801312 0.812216 0.000000
0.829867 0.817276 0.000000
0.805526 0.837896 0.000000
0.812775 0.791772 0.000000
0.822869 0.769821 0.000000
0.833826 0.791773 0.000000
0.849982 0.772760 0.000000
0.791421 0.791198 0.000000
0.772962 0.808877 0.000000
0.180049 0.621172 0.000000
0.160680 0.621098 0.000000
0.172158 0.598185 0.000000
0.588124 0.962489 0.000000
0.142171 0.602810 0.000000
0.827587 0.748015 0.000000
0.859778 0.745080 0.000000
0.882413 0.743965 0.000000
0.872759 0.762938 0.000000
0.894601 0.765041 0.000000
0.910115 0.745588 0.000000
0.901004 0.726420 0.000000
0.877058 0.719626 0.000000
0.632694 0.945006 0.000000
0.818411 0.883232 0.000000
0.787667 0.883633 0.000000
0.812018 0.862064 0.000000
0.808649 0.907835 0.000000
0.066636 0.534974 0.000000
0.083909 0.552665 0.000000
0.058224 0.565435 0.000000
0.037551 0.542621 0.000000
0.025720 0.565794 0.000000
0.304619 0.971425 0.000000
0.276072 0.975195 0.000000
0.284125 0.946285 0.000000
0.795087 0.737757 0.000000
0.797357 0.768346 0.000000
0.869843 0.656802 0.000000
0.840870 0.648068 0.000000
0.865462 0.630915 0.000000
0.043233 0.441011 0.000000
0.028792 0.469222 0.000000
0.020751 0.443790 0.000000
0.846918 0.676414 0.000000
0.058991 0.463368 0.000000
0.051906 0.966804 0.000000
0.071758 0.947609 0.000000
0.048298 0.939447 0.000000
0.026398 0.956010 0.000000
0.967109 0.949068 0.000000
0.946807 0.928411 0.000000
0.940173 0.953295 0.000000
0.956764 0.974357 0.000000
0.076722 0.471546 0.000000
0.082324 0.449317 0.000000
0.066669 0.435847 0.000000
0.114035 0.946088 0.000000
0.091278 0.952186 0.000000
0.128453 0.974235 0.000000
0.027019 0.501643 0.000000
0.047138 0.487417 0.000000
0.943388 0.639892 0.000000
0.923239 0.630552 0.000000
0.974491 0.618278 0.000000
0.972785 0.673666 0.000000
0.943930 0.664809 0.000000
0.968693 0.642530 0.000000
0.780685 0.976970 0.000000
0.756289 0.951349 0.000000
0.776857 0.951460 0.000000
0.935276 0.890540 0.000000
0.927168 0.867561 0.000000
0.954227 0.882176 0.000000
0.745760 0.974977 0.000000
0.952002 0.907568 0.000000
0.068063 0.489215 0.000000
0.051512 0.513895 0.000000
0.027757 0.982136 0.000000
0.023217 0.525632 0.000000
0.982410 0.972952 0.000000
0.951072 0.692907 0.000000
0.957020 0.857438 0.000000
0.937630 0.840379 0.000000
0.966912 0.834149 0.000000
0.923427 0.933924 0.000000
0.982257 0.848323 0.000000
0.092881 0.488189 0.000000
0.976737 0.871201 0.000000
0.067960 0.921895 0.000000
0.886538 0.603532 0.000000
0.918896 0.656866 0.000000
0.898227 0.636966 0.000000
0.092880 0.930380 0.000000
0.929071 0.911440 0.000000
0.081137 0.510877 0.000000
0.592772 0.576158 0.000000
0.150419 0.835159 0.000000
0.138607 0.859733 0.000000
0.125762 0.835294 0.000000
0.155304 0.458505 0.000000
0.139466 0.476317 0.000000
0.134858 0.496115 0.000000
0.109061 0.504849 0.000000
0.112238 0.859343 0.000000
0.866826 0.974780 0.000000
0.026919 0.865848 0.000000
0.348411 0.871602 0.000000
0.339654 0.840899 0.000000
0.369544 0.848927 0.000000
0.925986 0.818235 0.000000
0.909684 0.842117 0.000000
0.929360 0.717495 0.000000
0.924028 0.685311 0.000000
0.879688 0.955544 0.000000
0.875200 0.929284 0.000000
0.903901 0.918287 0.000000
0.950764 0.819790 0.000000
0.047492 0.878635 0.000000
0.069665 0.880314 0.000000
0.081712 0.904992 0.000000
0.573454 0.980624 0.000000
0.556694 0.550113 0.000000
0.094318 0.530060 0.000000
0.563246 0.571677 0.000000
0.563825 0.961795 0.000000
0.155902 0.972929 0.000000
0.577162 0.940912 0.000000
0.545227 0.533787 0.000000
0.864670 0.884377 0.000000
0.860690 0.911575 0.000000
0.840756 0.895862 0.000000
0.137227 0.926016 0.000000
0.139814 0.950758 0.000000
0.109156 0.913646 0.000000
0.884976 0.899786 0.000000
0.910807 0.890052 0.000000
0.830819 0.844574 0.000000
0.157710 0.484545 0.000000
0.180718 0.468069 0.000000
0.154331 0.510861 0.000000
0.124262 0.522394 0.000000
0.341085 0.732964 0.000000
0.323736 0.758404 0.000000
0.312899 0.730066 0.000000
0.857321 0.949854 0.000000
0.839840 0.975483 0.000000
0.053549 0.857833 0.000000
0.031143 0.832960 0.000000
0.840338 0.925315 0.000000
0.300796 0.756054 0.000000
0.080783 0.856286 0.000000
0.096939 0.884378 0.000000
0.544800 0.977874 0.000000
0.949430 0.731579 0.000000
0.955247 0.752582 0.000000
0.934712 0.748859 0.000000
0.030153 0.591093 0.000000
[...]
POINT_DATA 1445
SCALARS UX float 1
LOOKUP_TABLE default
-0.002630
0.000420
-0.000000
-0.004448
-0.009697
0.000002
-0.002567
-0.002489
-0.002418
-0.002350
-0.002283
-0.002215
-0.002147
-0.002077
-0.002005
-0.001930
-0.001849
-0.001766
-0.001681
-0.001597
-0.001512
-0.001425
-0.001337
-0.001246
-0.001152
-0.001056
-0.000958
-0.000858
-0.000757
-0.000652
-0.000547
-0.000445
-0.000347
-0.000243
-0.000137
-0.000029
0.000080
0.000191
0.000308
0.000413
0.000418
0.000447
0.000482
0.000535
0.000593
0.000667
0.000742
0.000856
0.000977
0.001107
0.001255
0.001422
0.001608
0.001752
0.001871
0.001964
0.002036
0.000018
0.000000
0.000000
-0.000000
-0.000001
0.000000
-0.000000
0.000000
0.000000
0.000000
-0.000000
0.000000
0.000000
0.000000
-0.000159
-0.000329
-0.000503
-0.000684
-0.000871
-0.001062
-0.001255
-0.001450
-0.001643
-0.001832
-0.002020
-0.002205
-0.002383
-0.002553
-0.002717
-0.002874
-0.003025
-0.003166
-0.003297
-0.003420
-0.003536
-0.003645
-0.003744
-0.003829
-0.003912
-0.003992
-0.004067
-0.004132
-0.004192
-0.004249
-0.004302
-0.004353
-0.004402
-0.004452
-0.004458
-0.004467
-0.004475
-0.004488
-0.004501
-0.004521
-0.004542
-0.004580
-0.004629
-0.004688
-0.004767
-0.004864
-0.004997
-0.005173
-0.005390
-0.005669
-0.006258
-0.007976
-0.008141
-0.005805
-0.004896
-0.004289
-0.003906
-0.003584
-0.003343
-0.003143
-0.002992
-0.002867
-0.002776
-0.002707
-0.002660
-0.008118
-0.006483
-0.005723
-0.005277
-0.004991
-0.004994
-0.004376
-0.004186
-0.004324
-0.003739
-0.003395
-0.003469
-0.003946
-0.003866
-0.003700
-0.003179
-0.003061
-0.002974
-0.002757
-0.002507
-0.002256
-0.001959
-0.001696
-0.001475
-0.001233
-0.001041
-0.000858
-0.000681
-0.000526
-0.000373
-0.000233
-0.000053
0.000262
-0.000145
-0.000303
-0.004935
-0.004770
-0.006157
-0.005485
-0.004421
-0.004383
-0.004420
-0.004375
-0.000144
-0.000316
-0.000156
-0.002673
-0.002784
-0.002778
-0.000592
-0.000444
-0.000405
-0.000563
-0.000144
-0.000130
-0.004324
-0.004277
-0.001031
-0.001089
-0.001188
-0.001281
-0.000944
-0.000879
-0.000752
-0.002461
-0.002344
-0.002487
-0.004153
-0.004081
-0.004107
-0.001318
-0.001538
-0.001381
-0.004103
-0.001242
-0.001054
-0.001185
-0.001190
-0.001166
-0.001072
-0.000999
-0.001308
-0.001420
-0.004317
-0.004394
-0.004361
-0.002565
-0.004501
-0.001181
-0.000985
-0.000832
-0.000866
-0.000725
-0.000649
-0.000722
-0.000900
-0.002304
-0.001105
-0.001305
-0.001140
-0.001161
-0.005087
-0.004904
-0.004927
-0.005143
-0.005015
-0.003796
-0.003881
-0.003860
-0.001398
-0.001326
-0.000943
-0.001160
-0.000842
-0.006092
-0.005783
-0.006468
-0.001161
-0.005388
-0.004366
-0.004335
-0.004378
-0.004410
-0.000176
-0.000290
-0.000317
-0.000234
-0.005570
-0.004777
-0.005115
-0.004260
-0.004300
-0.004230
-0.005442
-0.005578
-0.000187
-0.000312
-0.000162
-0.000175
-0.000344
-0.000147
-0.001346
-0.001508
-0.001373
-0.000365
-0.000417
-0.000252
-0.001577
-0.000260
-0.005252
-0.005313
-0.004405
-0.005319
-0.000095
-0.000373
-0.000253
-0.000374
-0.000194
-0.000417
-0.000105
-0.005240
-0.000135
-0.004346
-0.000488
-0.000476
-0.000580
-0.004304
-0.000393
-0.005209
-0.002707
-0.004219
-0.004235
-0.004271
-0.004792
-0.004733
-0.004521
-0.004983
-0.004289
-0.000782
-0.004435
-0.003652
-0.003685
-0.003581
-0.000467
-0.000542
-0.000541
-0.000539
-0.000692
-0.000718
-0.000535
-0.000301
-0.004397
-0.004356
-0.004329
-0.002640
-0.002849
-0.004934
-0.002730
-0.002696
-0.004175
-0.002632
-0.002923
-0.000786
-0.000804
-0.000945
-0.004219
-0.004210
-0.004276
-0.000650
-0.000507
-0.001019
-0.004169
-0.004294
-0.004692
-0.004885
-0.003672
-0.003728
-0.003750
-0.000840
-0.000955
-0.004392
-0.004443
-0.000949
-0.003810
-0.004347
-0.004305
-0.002795
-0.000362
-0.000349
-0.000480
-0.004878
-0.004750
-0.004778
-0.000564
-0.003007
-0.003274
-0.003737
-0.003447
-0.004176
-0.004240
-0.001294
-0.001430
-0.004496
-0.004151
-0.004407
-0.004723
-0.000160
-0.000357
-0.000164
-0.004385
-0.004471
-0.004329
-0.000623
-0.003916
-0.003922
-0.003966
-0.004764
-0.004743
-0.003710
-0.004648
-0.004614
-0.003846
-0.003970
-0.003941
-0.003644
-0.003714
-0.003805
-0.003603
-0.004024
-0.003843
-0.003822
-0.004122
-0.003769
-0.003811
-0.003858
-0.003912
-0.004117
-0.003694
-0.003637
-0.004409
-0.004358
-0.004429
-0.004164
-0.004426
-0.003966
-0.003856
-0.003806
-0.003707
-0.003894
-0.003960
-0.004653
-0.004008
-0.004669
-0.000700
-0.000786
-0.000869
-0.003861
-0.003773
-0.003714
-0.004002
-0.003876
-0.004011
-0.003929
-0.003801
-0.004056
-0.000518
-0.003632
-0.000669
-0.003945
-0.004000
-0.003932
-0.003988
-0.003904
-0.004111
-0.003948
-0.004032
-0.004082
-0.003814
-0.003801
-0.003732
-0.003617
-0.003718
-0.004597
-0.004603
-0.004544
-0.004562
-0.004208
-0.004106
-0.004154
-0.003818
-0.003926
-0.003893
-0.004240
-0.004222
-0.003968
-0.004043
-0.004323
-0.004357
-0.004392
-0.004474
-0.004267
-0.004239
-0.004184
-0.004221
-0.004267
-0.004257
-0.003946
-0.004019
-0.003986
-0.003956
-0.004235
-0.004308
-0.004314
-0.004532
-0.003770
-0.003678
-0.003706
-0.004072
-0.003988
-0.004034
-0.004422
-0.004533
-0.004584
-0.004497
-0.004669
-0.004470
-0.003609
-0.001528
-0.001484
-0.001671
-0.004378
-0.004413
-0.001631
-0.000158
-0.004106
-0.004155
-0.004071
-0.000362
-0.004174
-0.003563
-0.003588
-0.004349
-0.004649
-0.001406
-0.001614
-0.001316
-0.001599
-0.004290
-0.003716
-0.004248
-0.001690
-0.001477
-0.001629
-0.003451
-0.003440
-0.007667
-0.003535
-0.002254
-0.002366
-0.002540
-0.002403
-0.004101
-0.000937
-0.004558
-0.004074
-0.004184
-0.000811
-0.001213
-0.004086
-0.003500
-0.003430
-0.003329
-0.000676
-0.002591
-0.002624
-0.002649
-0.002572
-0.001818
-0.001675
-0.001860
-0.001697
-0.002826
-0.004472
-0.002896
-0.003620
-0.003515
-0.004444
-0.001768
-0.001737
-0.004345
-0.003713
-0.001586
-0.002076
-0.002215
-0.003917
-0.004224
-0.003971
-0.004061
-0.000909
-0.002805
-0.002908
-0.002787
-0.002834
-0.002942
-0.002499
-0.002670
-0.002500
-0.002629
-0.002667
-0.002325
-0.002347
-0.002449
-0.003370
-0.003798
-0.001843
-0.001977
-0.001966
-0.001857
-0.001741
-0.001411
-0.002147
-0.002162
-0.002261
-0.002070
-0.000687
-0.000723
-0.001050
-0.001382
-0.003516
-0.003634
-0.003549
-0.003599
-0.003973
-0.003819
-0.001530
-0.001515
-0.001168
-0.001831
-0.001987
-0.001650
-0.003461
-0.003491
-0.001742
-0.001795
-0.001769
-0.001638
-0.001881
-0.001853
-0.002028
-0.001556
-0.000862
-0.003329
-0.003316
-0.003417
-0.003766
-0.003717
-0.003554
-0.001586
-0.001784
-0.003732
-0.001897
-0.001845
-0.003399
-0.003899
-0.003807
-0.003568
-0.003515
-0.003716
-0.001352
-0.003397
-0.003431
-0.003484
-0.002003
-0.001952
-0.003343
-0.003373
-0.002144
-0.001995
-0.002138
-0.003104
-0.003209
-0.003116
-0.003185
-0.001985
-0.001924
-0.002961
-0.002920
-0.003062
-0.002015
-0.002017
-0.003274
-0.003310
-0.003364
-0.003280
-0.003302
-0.003452
-0.001139
-0.002172
-0.002344
-0.003219
-0.003252
-0.004523
-0.004465
-0.004308
-0.004304
-0.003143
-0.003183
-0.003237
-0.001069
-0.004322
-0.003004
-0.003048
-0.004482
-0.003103
-0.003330
-0.002332
-0.002198
-0.001500
-0.003088
-0.004390
-0.003125
-0.002855
-0.002903
-0.002093
-0.002039
-0.003818
-0.002948
-0.002991
-0.001038
-0.003200
-0.003233
-0.002797
-0.002844
-0.002748
-0.002635
-0.002684
-0.003737
-0.002322
-0.002432
-0.002175
-0.002123
-0.004111
-0.004479
-0.002514
-0.002385
-0.002298
-0.002150
-0.002162
-0.002584
-0.002461
-0.002486
-0.002543
-0.004491
-0.003819
-0.002794
-0.002680
-0.003104
-0.002993
-0.003215
-0.003057
-0.002265
-0.002438
-0.002356
-0.002532
-0.002410
-0.002280
-0.004401
-0.002174
-0.002228
-0.001521
-0.004124
-0.003010
-0.003009
-0.002314
-0.002697
-0.002834
-0.002543
-0.003073
-0.003197
-0.003162
-0.003032
-0.004571
-0.002800
-0.003788
-0.003615
-0.002389
-0.001976
-0.002565
-0.001775
-0.002730
-0.002739
-0.002911
-0.002893
-0.003075
-0.003432
-0.003429
-0.003385
-0.002427
-0.003307
-0.003029
-0.003262
-0.003390
-0.003336
-0.003200
-0.003189
-0.001930
-0.004117
-0.004054
-0.001912
-0.003543
-0.003478
-0.003344
-0.003293
-0.003324
-0.002017
-0.003377
-0.004161
-0.003260
-0.001128
-0.002114
-0.003514
-0.003449
-0.002987
-0.002914
-0.003486
-0.003198
-0.002216
-0.003554
-0.003427
-0.003653
-0.004205
-0.008850
-0.007129
-0.000286
0.000098
-0.000262
0.000196
0.000338
0.000244
0.000326
0.000227
-0.004461
-0.004124
-0.003846
-0.003845
-0.005241
-0.003481
-0.002403
-0.002472
-0.002471
-0.002439
-0.002666
-0.002748
0.000113
0.000017
-0.003764
-0.003346
-0.003478
-0.003138
-0.004268
-0.004001
-0.004583
-0.001682
-0.001716
-0.001643
-0.000215
-0.000327
-0.000291
-0.002322
-0.002217
-0.002354
-0.000293
-0.002505
-0.002603
-0.002433
-0.002652
-0.002813
-0.002750
-0.002944
-0.002537
-0.002397
0.000373
0.000477
0.000464
-0.001617
0.000633
-0.002987
-0.003211
-0.003369
-0.003143
-0.003229
-0.003497
-0.003669
-0.003598
-0.001759
-0.002354
-0.002264
-0.002385
-0.002278
0.001287
0.001119
0.001247
0.001474
0.001474
-0.000703
-0.000601
-0.000630
-0.002850
-0.002684
-0.004791
-0.004620
-0.005677
0.000370
0.001584
0.001243
-0.003885
0.000832
0.000206
0.000134
0.000227
0.000300
-0.002591
-0.002586
-0.002518
-0.002546
0.000615
-0.000006
-0.000118
-0.000023
0.000060
-0.000079
0.001708
0.001450
-0.005436
-0.005601
-0.009127
-0.004966
-0.005049
-0.005806
-0.002127
-0.002086
-0.002139
-0.002656
-0.002718
-0.002742
-0.002044
-0.002646
0.001201
0.001437
0.000307
0.001625
-0.002607
-0.004407
-0.002844
-0.002871
-0.002998
-0.002512
-0.002969
0.000792
-0.002849
0.000158
-0.005227
-0.005229
-0.005805
0.000067
-0.002579
0.001157
-0.003441
-0.000044
-0.000040
0.000045
-0.000441
-0.000137
0.000299
0.000788
0.000063
-0.002331
0.000389
-0.000819
-0.000750
-0.000874
-0.002957
-0.002779
-0.003935
-0.004456
-0.002381
-0.002408
-0.002496
-0.003034
0.000290
0.000193
0.000124
-0.001567
-0.003625
0.001071
-0.002941
-0.001547
-0.000179
-0.001596
-0.003040
-0.002483
-0.002405
-0.002388
-0.000099
-0.000117
0.000012
-0.002492
-0.002591
-0.002502
-0.000208
-0.000522
0.000274
0.000746
-0.000614
-0.000555
-0.000479
-0.002336
-0.002269
0.000289
0.000430
-0.002330
-0.000449
0.000184
0.000081
-0.001483
-0.003816
-0.003602
-0.003560
0.001349
0.000996
0.000940
-0.003275
-0.002674
-0.002058
-0.001826
-0.002495
-0.000173
-0.000050
-0.002197
-0.002139
-0.000256
-0.000680
0.000219
0.000651
-0.003165
-0.003156
-0.003338
0.000290
0.000522
0.000164
-0.002617
-0.000396
-0.000274
-0.000536
0.001120
0.001162
-0.000405
0.000800
0.000814
-0.000568
-0.000255
-0.000416
-0.000668
-0.000517
-0.000515
-0.000639
-0.000412
-0.000356
-0.000541
-0.000251
-0.000554
-0.000562
-0.000447
-0.000436
-0.000349
-0.000639
-0.000685
0.000459
0.000335
0.000484
0.000231
0.000533
-0.000694
-0.000351
-0.000393
-0.000511
-0.000328
-0.000208
0.000958
-0.000200
0.001035
-0.002683
-0.002549
-0.002628
-0.000543
-0.000647
-0.000674
-0.000062
-0.000237
-0.000052
-0.000169
-0.000343
0.000012
-0.003103
-0.000781
-0.003079
-0.000332
-0.000349
-0.000456
-0.000403
-0.000522
0.000041
-0.000164
-0.000089
-0.000046
-0.000894
-0.000697
-0.000791
-0.000972
-0.001172
0.000889
0.000871
0.000738
0.000783
0.000109
-0.000078
0.000077
-0.000669
-0.000543
-0.000566
0.000217
0.000218
-0.000460
-0.000357
0.000244
0.000290
0.000386
0.000590
0.000161
0.000078
0.000010
0.000017
0.000116
0.000060
-0.000522
-0.000421
-0.000454
-0.000501
0.000199
0.000325
0.000312
0.000720
-0.000730
-0.000833
-0.000796
-0.000219
-0.000321
-0.000218
0.000396
0.000704
0.000827
0.000676
0.000942
-0.000896
-0.000805
-0.002557
-0.002464
-0.002348
0.000292
0.000406
-0.002300
-0.003586
-0.000249
-0.000143
-0.000269
-0.003353
-0.000147
-0.000760
-0.000676
0.000242
0.000974
-0.004363
-0.004019
-0.004860
-0.003616
0.000354
-0.000482
0.000302
-0.002110
-0.002199
-0.002100
-0.000849
-0.000920
-0.000260
-0.000833
-0.002174
-0.003365
-0.003297
-0.005705
0.000167
-0.002463
0.000791
-0.000050
-0.000146
-0.002996
-0.002194
-0.000040
-0.001062
-0.001332
-0.001430
-0.005257
-0.002783
-0.002496
-0.002249
-0.002465
-0.003396
-0.003152
-0.002908
-0.002811
-0.002394
0.000543
-0.002007
-0.000745
-0.000885
0.000557
-0.001970
-0.001999
0.000384
-0.000743
-0.002258
-0.003483
-0.003723
-0.001503
-0.001815
-0.002113
-0.000349
-0.002778
-0.001624
-0.001575
-0.001673
-0.001661
-0.001512
-0.001848
-0.001753
-0.001880
-0.001734
-0.001792
-0.001940
-0.001982
-0.001838
-0.001032
-0.000984
-0.002262
-0.002145
-0.002228
-0.002177
-0.002407
-0.002177
-0.002048
-0.002097
-0.001943
-0.002050
-0.002855
-0.004032
-0.005518
-0.003587
-0.000980
-0.000861
-0.000932
-0.000907
-0.001594
-0.001261
-0.004677
-0.004024
-0.003977
-0.004636
-0.003975
-0.004343
-0.001002
-0.000943
-0.002131
-0.002153
-0.002567
-0.002608
-0.002618
-0.002397
-0.002436
-0.002775
-0.005081
-0.001018
-0.001079
-0.000985
-0.001389
-0.001587
-0.001331
-0.002084
-0.002005
-0.000749
-0.002018
-0.002008
-0.001031
-0.000265
-0.000350
-0.000940
-0.001145
-0.001184
-0.003401
-0.001089
-0.001049
-0.001017
-0.002046
-0.002030
-0.001121
-0.001074
-0.001933
-0.002269
-0.002293
-0.001372
-0.001236
-0.001372
-0.001267
-0.001919
-0.001925
-0.001406
-0.001416
-0.001329
-0.003079
-0.002651
-0.001193
-0.001159
-0.001120
-0.001170
-0.001127
-0.001043
-0.002202
-0.002149
-0.002178
-0.001237
-0.001205
0.000708
0.000556
0.000182
0.000137
-0.001293
-0.001264
-0.001219
-0.005061
0.000298
-0.001389
-0.001370
0.000585
-0.001315
-0.001141
-0.001837
-0.001939
-0.003037
-0.001352
0.000448
-0.001329
-0.001485
-0.001473
-0.001926
-0.001921
-0.000632
-0.001456
-0.001439
-0.002262
-0.001237
-0.001187
-0.001554
-0.001543
-0.001568
-0.001648
-0.001644
-0.000717
-0.002034
-0.002077
-0.001835
-0.001840
-0.000119
0.000623
-0.001740
-0.001839
-0.002660
-0.003118
-0.002641
-0.001657
-0.001742
-0.002269
-0.002131
0.000617
-0.000652
-0.001936
-0.001938
-0.001707
-0.001735
-0.001520
-0.001572
-0.002387
-0.002569
-0.001752
-0.001667
-0.001745
-0.001834
0.000490
-0.002482
-0.001833
-0.003369
0.000129
-0.001470
-0.001513
-0.002603
-0.001579
-0.001759
-0.001919
-0.001389
-0.002880
-0.001296
-0.001418
0.000828
-0.001500
-0.001001
-0.000930
-0.002931
-0.003579
-0.001740
-0.004255
-0.001787
-0.001638
-0.001627
-0.001533
-0.001462
-0.001140
-0.000998
-0.000994
-0.002858
-0.001772
-0.001998
-0.002156
-0.001489
-0.001356
-0.001380
-0.001321
-0.004591
-0.000179
-0.000319
-0.001909
-0.000785
-0.000818
-0.001049
-0.001123
-0.001176
-0.001872
-0.000950
-0.000078
-0.001226
-0.002254
-0.001822
-0.000924
-0.000873
-0.003118
-0.002684
-0.000776
-0.001773
-0.001783
-0.000697
-0.001287
-0.000596
-0.000041
SCALARS UY float 1
LOOKUP_TABLE default
0.000000
-0.000000
-0.010000
-0.010000
-0.005650
-0.006546
-0.000000
-0.000000
0.000000
-0.000000
0.000000
-0.000000
0.000000
-0.000000
-0.000000
0.000000
0.000000
-0.000000
0.000000
0.000000
0.000000
-0.000000
-0.000000
-0.000000
-0.000000
-0.000000
-0.000000
-0.000000
0.000000
0.000000
0.000000
-0.000000
0.000000
-0.000000
0.000000
0.000000
-0.000000
-0.000000
-0.000000
-0.000257
-0.000556
-0.000840
-0.001123
-0.001412
-0.001694
-0.001988
-0.002279
-0.002577
-0.002860
-0.003144
-0.003441
-0.003712
-0.004022
-0.004372
-0.004764
-0.005090
-0.005452
-0.006503
-0.006881
-0.007218
-0.007542
-0.007858
-0.008126
-0.008367
-0.008596
-0.008811
-0.009021
-0.009218
-0.009415
-0.009606
-0.009772
-0.010000
-0.010000
-0.010000
-0.010000
-0.010000
-0.010000
-0.010000
-0.010000
-0.010000
-0.010000
-0.010000
-0.010000
-0.010000
-0.010000
-0.010000
-0.010000
-0.010000
-0.010000
-0.010000
-0.010000
-0.010000
-0.010000
-0.010000
-0.010000
-0.010000
-0.010000
-0.010000
-0.010000
-0.010000
-0.010000
-0.010000
-0.010000
-0.010000
-0.009890
-0.009766
-0.009646
-0.009528
-0.009408
-0.009291
-0.009168
-0.009046
-0.008915
-0.008790
-0.008662
-0.008520
-0.008377
-0.008212
-0.008042
-0.007867
-0.007744
-0.007502
-0.006730
-0.006309
-0.003848
-0.003109
-0.002541
-0.002166
-0.001848
-0.001564
-0.001303
-0.001055
-0.000826
-0.000602
-0.000380
-0.000149
-0.005292
-0.005418
-0.006048
-0.005394
-0.005442
-0.005831
-0.006148
-0.005758
-0.005347
-0.006010
-0.006408
-0.007038
-0.007056
-0.006348
-0.005178
-0.004304
-0.004476
-0.004432
-0.004581
-0.004558
-0.004564
-0.004680
-0.004754
-0.004765
-0.004875
-0.004970
-0.005124
-0.005286
-0.005475
-0.005678
-0.005911
-0.006291
-0.006427
-0.006731
-0.006304
-0.006085
-0.007716
-0.005977
-0.007499
-0.009594
-0.009683
-0.009719
-0.009609
-0.007518
-0.007668
-0.007940
-0.004909
-0.004993
-0.004831
-0.009753
-0.009608
-0.009795
-0.009487
-0.009443
-0.009269
-0.009902
-0.009904
-0.007174
-0.007377
-0.007113
-0.007236
-0.006968
-0.007210
-0.007003
-0.009527
-0.009758
-0.009798
-0.009759
-0.009766
-0.009885
-0.008522
-0.008506
-0.008260
-0.009650
-0.007993
-0.008178
-0.008297
-0.007887
-0.007719
-0.007948
-0.007842
-0.007788
-0.007949
-0.008192
-0.008300
-0.008098
-0.009662
-0.008292
-0.007526
-0.007624
-0.007714
-0.007852
-0.007944
-0.007806
-0.007612
-0.007448
-0.009485
-0.008827
-0.008834
-0.008618
-0.009086
-0.008148
-0.008226
-0.008296
-0.008164
-0.008247
-0.009851
-0.009875
-0.009711
-0.007302
-0.007592
-0.006705
-0.006522
-0.006341
-0.007254
-0.007837
-0.007459
-0.006867
-0.007395
-0.009879
-0.009797
-0.009771
-0.009831
-0.009614
-0.009440
-0.009603
-0.009784
-0.007912
-0.006129
-0.005960
-0.009787
-0.009810
-0.009901
-0.007959
-0.007973
-0.006855
-0.006623
-0.006725
-0.007220
-0.007086
-0.006880
-0.009786
-0.009538
-0.009514
-0.009126
-0.008916
-0.009103
-0.009766
-0.009286
-0.007769
-0.008069
-0.009935
-0.008049
-0.009776
-0.007389
-0.008925
-0.008744
-0.008771
-0.009424
-0.008914
-0.007629
-0.009075
-0.009697
-0.006035
-0.006957
-0.006537
-0.009728
-0.009272
-0.007948
-0.005105
-0.009288
-0.009406
-0.009312
-0.005678
-0.005273
-0.007118
-0.007730
-0.009433
-0.009772
-0.009481
-0.009213
-0.009028
-0.009034
-0.008508
-0.008660
-0.007599
-0.007284
-0.009584
-0.009328
-0.009250
-0.008610
-0.009532
-0.009534
-0.009632
-0.009829
-0.004917
-0.008025
-0.005011
-0.009670
-0.009892
-0.009474
-0.004730
-0.008865
-0.009145
-0.008984
-0.009695
-0.009794
-0.009648
-0.009067
-0.009056
-0.008406
-0.007067
-0.006455
-0.007232
-0.007887
-0.008294
-0.008502
-0.008308
-0.009528
-0.009776
-0.009444
-0.009351
-0.009282
-0.008527
-0.009433
-0.009537
-0.009807
-0.007782
-0.008014
-0.007927
-0.008376
-0.008342
-0.008136
-0.008071
-0.004667
-0.005514
-0.006365
-0.005553
-0.009618
-0.009546
-0.009288
-0.009331
-0.006900
-0.006320
-0.007343
-0.007857
-0.008608
-0.008406
-0.008412
-0.009349
-0.009251
-0.009326
-0.008832
-0.007352
-0.007327
-0.007203
-0.008447
-0.008539
-0.006924
-0.008209
-0.008398
-0.006852
-0.007379
-0.007349
-0.007328
-0.007561
-0.007371
-0.007601
-0.009858
-0.007545
-0.007247
-0.009499
-0.008700
-0.008910
-0.008742
-0.008950
-0.006741
-0.008641
-0.008454
-0.008806
-0.008907
-0.008911
-0.007517
-0.007919
-0.006600
-0.008385
-0.008202
-0.008119
-0.008560
-0.008448
-0.008610
-0.008656
-0.008658
-0.008597
-0.008713
-0.008445
-0.009092
-0.009063
-0.008858
-0.007657
-0.007588
-0.007512
-0.007779
-0.007743
-0.007950
-0.008300
-0.006792
-0.008143
-0.008752
-0.009083
-0.009126
-0.009240
-0.009259
-0.008237
-0.008050
-0.008321
-0.008555
-0.006640
-0.006960
-0.006603
-0.006753
-0.006424
-0.008785
-0.008748
-0.008825
-0.008726
-0.008718
-0.008757
-0.008486
-0.009545
-0.009618
-0.009432
-0.008402
-0.008163
-0.009378
-0.009405
-0.008998
-0.009093
-0.009002
-0.008816
-0.008888
-0.009010
-0.008893
-0.009102
-0.009079
-0.009187
-0.009773
-0.009684
-0.009517
-0.009903
-0.008576
-0.008529
-0.008660
-0.008902
-0.009700
-0.009801
-0.009577
-0.009029
-0.008925
-0.008845
-0.009251
-0.008465
-0.008530
-0.008573
-0.008474
-0.006592
-0.008848
-0.007340
-0.007603
-0.007519
-0.009249
-0.009130
-0.007883
-0.008194
-0.009339
-0.009232
-0.009194
-0.008195
-0.009383
-0.008242
-0.008040
-0.009196
-0.008656
-0.006337
-0.006171
-0.005968
-0.006477
-0.007850
-0.007838
-0.007973
-0.008722
-0.008770
-0.008985
-0.007960
-0.008176
-0.006835
-0.008433
-0.005153
-0.005474
-0.005388
-0.005007
-0.007615
-0.008649
-0.008636
-0.007439
-0.009501
-0.008065
-0.009563
-0.007243
-0.006509
-0.006221
-0.006513
-0.005903
-0.005285
-0.005464
-0.005821
-0.006002
-0.006311
-0.006653
-0.006510
-0.006848
-0.005440
-0.009156
-0.005906
-0.008648
-0.008628