# vtk DataFile Version 2.0
Test
ASCII
DATASET POLYDATA
POINTS 5510 float
0.000000 0.000000 0.000000
0.080000 0.000000 0.000000
0.080000 0.160000 0.000000
0.000000 0.160000 0.000000
0.035000 0.076250 0.000000
0.046500 0.083750 0.000000
0.002000 0.000000 0.000000
0.004000 0.000000 0.000000
0.006000 0.000000 0.000000
0.008000 0.000000 0.000000
0.010000 0.000000 0.000000
0.012000 0.000000 0.000000
0.014000 0.000000 0.000000
0.016000 0.000000 0.000000
0.018000 0.000000 0.000000
0.020000 0.000000 0.000000
0.022000 0.000000 0.000000
0.024000 0.000000 0.000000
0.026000 0.000000 0.000000
0.028000 0.000000 0.000000
0.030000 0.000000 0.000000
0.032000 0.000000 0.000000
0.034000 0.000000 0.000000
0.036000 0.000000 0.000000
0.038000 0.000000 0.000000
0.040000 0.000000 0.000000
0.042000 0.000000 0.000000
0.044000 0.000000 0.000000
0.046000 0.000000 0.000000
0.048000 0.000000 0.000000
0.050000 0.000000 0.000000
0.052000 0.000000 0.000000
0.054000 0.000000 0.000000
0.056000 0.000000 0.000000
0.058000 0.000000 0.000000
0.060000 0.000000 0.000000
0.062000 0.000000 0.000000
0.064000 0.000000 0.000000
0.066000 0.000000 0.000000
0.068000 0.000000 0.000000
0.070000 0.000000 0.000000
0.072000 0.000000 0.000000
0.074000 0.000000 0.000000
0.076000 0.000000 0.000000
0.078000 0.000000 0.000000
0.080000 0.002000 0.000000
0.080000 0.004000 0.000000
0.080000 0.006000 0.000000
0.080000 0.008000 0.000000
0.080000 0.010000 0.000000
0.080000 0.012000 0.000000
0.080000 0.014000 0.000000
0.080000 0.016000 0.000000
0.080000 0.018000 0.000000
0.080000 0.020000 0.000000
0.080000 0.022000 0.000000
0.080000 0.024000 0.000000
0.080000 0.026000 0.000000
0.080000 0.028000 0.000000
0.080000 0.030000 0.000000
0.080000 0.032000 0.000000
0.080000 0.034000 0.000000
0.080000 0.036000 0.000000
0.080000 0.038000 0.000000
0.080000 0.040000 0.000000
0.080000 0.042000 0.000000
0.080000 0.044000 0.000000
0.080000 0.046000 0.000000
0.080000 0.048000 0.000000
0.080000 0.050000 0.000000
0.080000 0.052000 0.000000
0.080000 0.054000 0.000000
0.080000 0.056000 0.000000
0.080000 0.058000 0.000000
0.080000 0.060000 0.000000
0.080000 0.062000 0.000000
0.080000 0.064000 0.000000
0.080000 0.066000 0.000000
0.080000 0.068000 0.000000
0.080000 0.070000 0.000000
0.080000 0.072000 0.000000
0.080000 0.074000 0.000000
0.080000 0.076000 0.000000
0.080000 0.078000 0.000000
0.080000 0.080000 0.000000
0.080000 0.082000 0.000000
0.080000 0.084000 0.000000
0.080000 0.086000 0.000000
0.080000 0.088000 0.000000
0.080000 0.090000 0.000000
0.080000 0.092000 0.000000
0.080000 0.094000 0.000000
0.080000 0.096000 0.000000
0.080000 0.098000 0.000000
0.080000 0.100000 0.000000
0.080000 0.102000 0.000000
0.080000 0.104000 0.000000
0.080000 0.106000 0.000000
0.080000 0.108000 0.000000
0.080000 0.110000 0.000000
0.080000 0.112000 0.000000
0.080000 0.114000 0.000000
0.080000 0.116000 0.000000
0.080000 0.118000 0.000000
0.080000 0.120000 0.000000
0.080000 0.122000 0.000000
0.080000 0.124000 0.000000
0.080000 0.126000 0.000000
0.080000 0.128000 0.000000
0.080000 0.130000 0.000000
0.080000 0.132000 0.000000
0.080000 0.134000 0.000000
0.080000 0.136000 0.000000
0.080000 0.138000 0.000000
0.080000 0.140000 0.000000
0.080000 0.142000 0.000000
0.080000 0.144000 0.000000
0.080000 0.146000 0.000000
0.080000 0.148000 0.000000
0.080000 0.150000 0.000000
0.080000 0.152000 0.000000
0.080000 0.154000 0.000000
0.080000 0.156000 0.000000
0.080000 0.158000 0.000000
0.078000 0.160000 0.000000
0.076000 0.160000 0.000000
0.074000 0.160000 0.000000
0.072000 0.160000 0.000000
0.070000 0.160000 0.000000
0.068000 0.160000 0.000000
0.066000 0.160000 0.000000
0.064000 0.160000 0.000000
0.062000 0.160000 0.000000
0.060000 0.160000 0.000000
0.058000 0.160000 0.000000
0.056000 0.160000 0.000000
0.054000 0.160000 0.000000
0.052000 0.160000 0.000000
0.050000 0.160000 0.000000
0.048000 0.160000 0.000000
0.046000 0.160000 0.000000
0.044000 0.160000 0.000000
0.042000 0.160000 0.000000
0.040000 0.160000 0.000000
0.038000 0.160000 0.000000
0.036000 0.160000 0.000000
0.034000 0.160000 0.000000
0.032000 0.160000 0.000000
0.030000 0.160000 0.000000
0.028000 0.160000 0.000000
0.026000 0.160000 0.000000
0.024000 0.160000 0.000000
0.022000 0.160000 0.000000
0.020000 0.160000 0.000000
0.018000 0.160000 0.000000
0.016000 0.160000 0.000000
0.014000 0.160000 0.000000
0.012000 0.160000 0.000000
0.010000 0.160000 0.000000
0.008000 0.160000 0.000000
0.006000 0.160000 0.000000
0.004000 0.160000 0.000000
0.002000 0.160000 0.000000
0.000000 0.158000 0.000000
0.000000 0.156000 0.000000
0.000000 0.154000 0.000000
0.000000 0.152000 0.000000
0.000000 0.150000 0.000000
0.000000 0.148000 0.000000
0.000000 0.146000 0.000000
0.000000 0.144000 0.000000
0.000000 0.142000 0.000000
0.000000 0.140000 0.000000
0.000000 0.138000 0.000000
0.000000 0.136000 0.000000
0.000000 0.134000 0.000000
0.000000 0.132000 0.000000
0.000000 0.130000 0.000000
0.000000 0.128000 0.000000
0.000000 0.126000 0.000000
0.000000 0.124000 0.000000
0.000000 0.122000 0.000000
0.000000 0.120000 0.000000
0.000000 0.118000 0.000000
0.000000 0.116000 0.000000
0.000000 0.114000 0.000000
0.000000 0.112000 0.000000
0.000000 0.110000 0.000000
0.000000 0.108000 0.000000
0.000000 0.106000 0.000000
0.000000 0.104000 0.000000
0.000000 0.102000 0.000000
0.000000 0.100000 0.000000
0.000000 0.098000 0.000000
0.000000 0.096000 0.000000
0.000000 0.094000 0.000000
0.000000 0.092000 0.000000
0.000000 0.090000 0.000000
0.000000 0.088000 0.000000
0.000000 0.086000 0.000000
0.000000 0.084000 0.000000
0.000000 0.082000 0.000000
0.000000 0.080000 0.000000
0.000000 0.078000 0.000000
0.000000 0.076000 0.000000
0.000000 0.074000 0.000000
0.000000 0.072000 0.000000
0.000000 0.070000 0.000000
0.000000 0.068000 0.000000
0.000000 0.066000 0.000000
0.000000 0.064000 0.000000
0.000000 0.062000 0.000000
0.000000 0.060000 0.000000
0.000000 0.058000 0.000000
0.000000 0.056000 0.000000
0.000000 0.054000 0.000000
0.000000 0.052000 0.000000
0.000000 0.050000 0.000000
0.000000 0.048000 0.000000
0.000000 0.046000 0.000000
0.000000 0.044000 0.000000
0.000000 0.042000 0.000000
0.000000 0.040000 0.000000
0.000000 0.038000 0.000000
0.000000 0.036000 0.000000
0.000000 0.034000 0.000000
0.000000 0.032000 0.000000
0.000000 0.030000 0.000000
0.000000 0.028000 0.000000
0.000000 0.026000 0.000000
0.000000 0.024000 0.000000
0.000000 0.022000 0.000000
0.000000 0.020000 0.000000
0.000000 0.018000 0.000000
0.000000 0.016000 0.000000
0.000000 0.014000 0.000000
0.000000 0.012000 0.000000
0.000000 0.010000 0.000000
0.000000 0.008000 0.000000
0.000000 0.006000 0.000000
0.000000 0.004000 0.000000
0.000000 0.002000 0.000000
0.035411 0.076518 0.000000
0.035821 0.076786 0.000000
0.036232 0.077054 0.000000
0.036643 0.077321 0.000000
0.037054 0.077589 0.000000
0.037464 0.077857 0.000000
0.037875 0.078125 0.000000
0.038286 0.078393 0.000000
0.038696 0.078661 0.000000
0.039107 0.078929 0.000000
0.039518 0.079196 0.000000
0.039929 0.079464 0.000000
0.040339 0.079732 0.000000
0.040750 0.080000 0.000000
0.041161 0.080268 0.000000
0.041571 0.080536 0.000000
0.041982 0.080804 0.000000
0.042393 0.081071 0.000000
0.042804 0.081339 0.000000
0.043214 0.081607 0.000000
0.043625 0.081875 0.000000
0.044036 0.082143 0.000000
0.044446 0.082411 0.000000
0.044857 0.082679 0.000000
0.045268 0.082946 0.000000
0.045679 0.083214 0.000000
0.046089 0.083482 0.000000
0.040000 0.002000 0.000000
0.040001 0.158005 0.000000
0.002000 0.116000 0.000000
0.078000 0.048000 0.000000
0.002000 0.106000 0.000000
0.078000 0.058000 0.000000
0.001986 0.042173 0.000000
0.078015 0.117826 0.000000
0.001985 0.094174 0.000000
0.001985 0.084174 0.000000
0.001914 0.056074 0.000000
0.002000 0.072000 0.000000
0.078015 0.065826 0.000000
0.078016 0.075826 0.000000
0.078000 0.088000 0.000000
0.078000 0.104000 0.000000
0.078003 0.029997 0.000000
0.001998 0.130002 0.000000
0.002000 0.032000 0.000000
0.078013 0.128003 0.000000
0.056000 0.158000 0.000000
0.026000 0.002000 0.000000
0.060000 0.002000 0.000000
0.020000 0.158000 0.000000
0.002000 0.020000 0.000000
0.078000 0.142000 0.000000
0.002000 0.146000 0.000000
0.078000 0.020000 0.000000
0.016000 0.002000 0.000000
0.068000 0.002000 0.000000
0.066000 0.158000 0.000000
0.002000 0.014000 0.000000
0.008000 0.158000 0.000000
0.010000 0.002000 0.000000
0.078000 0.148000 0.000000
0.078000 0.008000 0.000000
0.078005 0.037995 0.000000
0.051991 0.001990 0.000000
0.028000 0.158000 0.000000
0.002000 0.008000 0.000000
0.078000 0.094000 0.000000
0.078000 0.110000 0.000000
0.001983 0.066159 0.000000
0.002000 0.050000 0.000000
0.046000 0.158000 0.000000
0.078000 0.134000 0.000000
0.002000 0.140000 0.000000
0.006000 0.002000 0.000000
0.002000 0.154000 0.000000
0.074000 0.002000 0.000000
0.078000 0.152000 0.000000
0.074000 0.158000 0.000000
0.078000 0.080000 0.000000
0.078000 0.070000 0.000000
0.078000 0.122000 0.000000
0.002000 0.090000 0.000000
0.002000 0.080000 0.000000
0.002000 0.038000 0.000000
0.002000 0.102000 0.000000
0.002000 0.112000 0.000000
0.036000 0.002000 0.000000
0.078000 0.042000 0.000000
0.032000 0.002000 0.000000
0.047987 0.001989 0.000000
0.032008 0.158010 0.000000
0.002000 0.028000 0.000000
0.002000 0.126000 0.000000
0.060000 0.158000 0.000000
0.022000 0.002000 0.000000
0.002000 0.136000 0.000000
0.078000 0.024000 0.000000
0.012000 0.158000 0.000000
0.078000 0.158000 0.000000
0.001947 0.003947 0.000000
0.002000 0.158000 0.000000
0.078000 0.012000 0.000000
0.078000 0.096000 0.000000
0.078000 0.098000 0.000000
0.078000 0.082000 0.000000
0.078111 0.099889 0.000000
0.078035 0.083965 0.000000
0.078000 0.090000 0.000000
0.078000 0.106000 0.000000
0.078000 0.072000 0.000000
0.078000 0.112000 0.000000
0.078043 0.061976 0.000000
0.078000 0.114000 0.000000
0.002000 0.064000 0.000000
0.002000 0.062000 0.000000
0.002000 0.088000 0.000000
0.002000 0.078000 0.000000
0.002000 0.060000 0.000000
0.001966 0.076034 0.000000
0.002000 0.070000 0.000000
0.002000 0.054000 0.000000
0.001957 0.098024 0.000000
0.002000 0.048000 0.000000
0.002000 0.046000 0.000000
[...]
POINT_DATA 5510
SCALARS UX float 1
LOOKUP_TABLE default
0.108630
0.229195
0.000006
-0.118425
0.049059
0.061488
0.111660
0.114690
0.117720
0.120750
0.123780
0.126811
0.129841
0.132872
0.135901
0.138930
0.141956
0.144979
0.148000
0.151018
0.154033
0.157045
0.160055
0.163062
0.166067
0.169068
0.172066
0.175059
0.178047
0.181032
0.184013
0.186991
0.189969
0.192945
0.195921
0.198899
0.201881
0.204870
0.207868
0.210871
0.213884
0.216911
0.219957
0.223027
0.226101
0.227111
0.225067
0.223069
0.221068
0.219139
0.217207
0.215332
0.213455
0.211588
0.209725
0.207866
0.206022
0.204177
0.202311
0.200430
0.198527
0.196598
0.194638
0.192648
0.190623
0.188564
0.186515
0.184440
0.182351
0.180266
0.178147
0.176023
0.173900
0.171781
0.169665
0.167551
0.165438
0.163326
0.161212
0.159093
0.156972
0.154839
0.152703
0.150559
0.148400
0.146238
0.144044
0.141826
0.139592
0.137343
0.134931
0.132396
0.129681
0.125689
0.117163
0.108068
0.097177
0.085769
0.075368
0.066791
0.060110
0.053859
0.050388
0.047200
0.044523
0.042208
0.039914
0.037792
0.035673
0.033558
0.031452
0.029349
0.027248
0.025154
0.023067
0.020982
0.018899
0.016828
0.014756
0.012674
0.010598
0.008443
0.006115
0.003336
-0.000055
-0.002964
-0.006073
-0.009188
-0.012246
-0.015306
-0.018388
-0.021458
-0.024513
-0.027562
-0.030599
-0.033629
-0.036655
-0.039678
-0.042700
-0.045720
-0.048739
-0.051759
-0.054778
-0.057798
-0.060816
-0.063831
-0.066844
-0.069854
-0.072862
-0.075868
-0.078871
-0.081874
-0.084877
-0.087881
-0.090889
-0.093903
-0.096925
-0.099953
-0.102988
-0.106034
-0.109101
-0.112198
-0.115299
-0.116322
-0.114273
-0.112212
-0.110247
-0.108289
-0.106345
-0.104447
-0.102556
-0.100663
-0.098778
-0.096901
-0.095026
-0.093151
-0.091253
-0.089336
-0.087397
-0.085427
-0.083470
-0.081487
-0.079500
-0.077500
-0.075495
-0.073476
-0.071447
-0.069424
-0.067371
-0.065310
-0.063241
-0.061169
-0.059088
-0.057000
-0.054905
-0.052806
-0.050698
-0.048582
-0.046465
-0.044336
-0.042202
-0.040062
-0.037911
-0.035759
-0.033585
-0.031409
-0.029234
-0.027081
-0.024822
-0.022482
-0.019907
-0.016818
-0.009790
-0.001633
0.007246
0.017214
0.028466
0.038909
0.048711
0.053900
0.058216
0.062107
0.065386
0.068108
0.070691
0.072827
0.074955
0.077073
0.079187
0.081298
0.083404
0.085509
0.087615
0.089720
0.091824
0.093928
0.096030
0.098132
0.100232
0.102333
0.104433
0.106532
0.049495
0.049987
0.050691
0.051381
0.051909
0.052273
0.052650
0.053076
0.053351
0.053802
0.054182
0.054479
0.054882
0.055293
0.055773
0.056237
0.056748
0.057195
0.057633
0.058058
0.058444
0.058764
0.059153
0.059522
0.059975
0.060466
0.060900
0.166992
-0.055712
-0.072440
0.179331
-0.062333
0.168773
0.065664
0.043968
-0.050022
-0.039413
0.014323
-0.026223
0.160522
0.149894
0.136518
0.088069
0.197134
-0.086067
0.078014
0.032626
-0.031528
0.145908
0.196844
-0.085804
0.090653
0.017935
-0.101157
0.206441
0.130774
0.208800
-0.016289
0.096961
-0.103926
0.121682
0.011668
0.217908
0.189490
0.184931
-0.073787
0.103264
0.128961
0.060563
-0.019399
0.047273
-0.046649
0.026300
-0.095468
0.115622
-0.109037
0.217851
0.007436
-0.004186
0.145388
0.156082
0.039016
-0.045588
-0.034922
0.071530
-0.058192
-0.068453
0.160981
0.185488
0.154960
0.178960
-0.067769
0.082237
-0.082244
-0.025449
0.139860
-0.091706
0.202703
-0.097858
0.000715
0.107439
-0.113144
0.214006
0.125539
0.118694
0.143213
0.110484
0.141092
0.134138
0.077290
0.153953
0.054295
0.164630
0.049883
-0.016255
-0.010603
-0.043464
-0.032764
-0.003079
-0.030672
-0.023985
0.026134
-0.054107
0.053964
0.058485
0.173017
0.183484
0.177236
-0.066423
-0.076387
0.036855
0.073759
0.172989
-0.061744
-0.052689
0.193369
-0.043629
-0.040608
-0.080296
0.151949
0.190890
-0.079796
0.084342
0.030524
0.024204
0.086445
0.022113
-0.089828
-0.037585
0.200852
-0.099263
-0.022401
0.136832
0.202809
-0.091819
0.015849
0.210202
-0.105068
0.092756
0.099062
-0.013222
0.127743
-0.010194
0.005280
-0.110042
0.112508
0.109365
0.221908
0.214821
0.223969
-0.065460
0.176315
-0.042627
-0.032025
-0.023202
0.003299
0.053686
0.142469
0.133413
0.102296
0.153106
0.049943
-0.053602
-0.077159
0.029571
0.074605
0.152866
-0.035521
0.085278
0.019084
0.137762
-0.088389
0.199403
-0.023351
0.095790
0.128676
-0.097935
-0.011261
0.079059
0.180534
0.099995
0.004286
0.215768
0.138242
0.112513
0.125201
-0.027861
-0.005134
-0.015794
0.062545
0.131955
0.139070
0.100861
0.147907
0.151938
0.068945
0.158562
0.046771
-0.021981
-0.041449
-0.028688
-0.048062
0.005287
-0.037428
0.036649
0.062255
0.162534
-0.052025
0.166752
-0.056205
0.170988
0.041792
-0.060353
0.068323
0.175219
-0.064468
-0.070694
0.181457
-0.074474
0.187534
-0.078380
0.169983
-0.058717
0.163981
-0.049663
0.175970
-0.064749
0.034784
0.075842
0.191448
0.157967
0.181944
-0.070773
-0.041528
0.187908
-0.076789
-0.084164
0.080110
0.028417
0.195257
0.087382
0.148928
0.023259
-0.034558
0.193865
-0.082798
0.088544
0.020028
-0.087951
0.198993
-0.093582
-0.028494
0.142885
-0.097364
0.204562
-0.019347
0.133803
-0.088809
0.199823
-0.094835
0.205799
0.013760
0.094859
-0.100890
0.208311
-0.103102
0.009569
0.212091
0.101163
0.124712
-0.107033
-0.007180
0.215924
0.003036
0.118652
0.105364
-0.106976
0.110494
0.211805
-0.001469
-0.107938
-0.111058
0.219883
0.218813
0.220896
-0.053750
0.164282
0.009042
0.173908
0.095948
0.088308
-0.068754
0.185886
-0.080728
0.197769
0.208890
-0.092753
0.010701
0.188295
0.162018
-0.098794
-0.103870
0.128330
0.043315
-0.018533
0.159963
0.155353
-0.049473
-0.044839
0.148912
0.144697
-0.038441
-0.034204
0.168392
-0.057771
0.038350
0.078889
-0.062673
0.083165
0.191948
0.025381
-0.080918
0.146840
0.140787
0.131706
0.203739
-0.094081
-0.090275
0.122615
0.104195
-0.099894
0.205072
0.201276
-0.005384
0.002067
0.212790
0.213708
0.130882
0.135600
-0.020841
0.090177
-0.025284
0.046768
0.012960
0.045804
0.178413
0.151008
-0.040527
0.066342
0.072194
-0.067513
-0.071375
0.060663
0.068929
0.172185
0.174207
-0.061461
-0.063415
-0.056749
0.119919
0.140410
-0.075232
-0.011185
-0.029988
0.055186
0.184421
0.182488
0.058251
0.076742
0.031711
0.179887
0.155964
-0.044519
0.168023
-0.047678
0.027493
-0.079069
-0.074735
-0.032507
0.149851
0.195666
0.197530
-0.084630
-0.086509
0.016985
0.191821
0.089468
0.093691
-0.038525
0.021180
0.134741
-0.050644
-0.026389
-0.086732
-0.017271
-0.020317
-0.014238
-0.095984
0.125647
0.209733
0.097891
0.102095
0.116554
0.212744
-0.008312
0.113524
0.216768
0.006463
-0.000120
-0.105888
0.108395
-0.104872
0.075290
0.179509
-0.059234
0.042601
-0.031321
-0.042058
-0.018267
-0.048340
0.152552
0.141869
0.127924
-0.072246
0.028735
-0.033435
0.153799
0.192385
0.018162
-0.081342
0.138689
-0.018263
0.096728
0.129612
-0.090815
0.105127
0.052500
0.018257
0.056237
-0.006507
0.133534
-0.023354
0.069521
0.175697
0.114702
-0.006492
0.086190
0.079718
-0.075846
0.147766
0.123550
0.012800
-0.094731
0.003350
0.081865
0.125040
0.050126
-0.015503
0.146891
0.157584
-0.036423
-0.047094
0.162132
-0.051625
-0.069481
0.137489
0.104806
0.001025
0.166421
-0.055848
0.069258
-0.027102
0.040364
-0.073176
0.025442
0.038882
-0.045453
-0.054527
-0.065625
0.148545
-0.038071
0.186384
-0.059510
0.062384
0.170175
0.182828
0.158926
0.164953
0.176838
0.036066
0.033903
0.190147
0.081017
0.171537
-0.029428
0.193826
-0.071743
-0.082775
0.016042
0.024493
-0.039448
0.143806
0.091565
-0.060771
-0.064601
0.188854
-0.077731
0.194262
0.198020
0.090385
-0.083219
-0.086990
-0.024299
-0.015256
0.022343
0.194796
-0.083732
-0.092174
0.132650
-0.059691
0.203168
0.100928
0.014897
-0.089740
0.200749
-0.012307
0.206731
0.206964
0.210682
0.119585
0.008589
-0.101864
0.210827
0.111426
-0.095769
0.211678
0.214758
0.106295
-0.001004
-0.002704
-0.102797
-0.101827
0.170948
0.062996
-0.056318
-0.012641
0.015552
0.122371
-0.043653
-0.078097
0.021472
0.171866
0.189151
0.089182
-0.066690
0.183834
0.198697
-0.016270
-0.078655
0.130542
0.203779
0.162979
-0.087666
0.208639
-0.093692
0.097899
-0.052433
0.185081
0.015123
0.029030
0.143339
-0.033286
-0.048229
-0.043494
0.158712
0.153984
0.159958
-0.079520
-0.027359
0.094593
0.141704
0.199930
0.011865
0.107226
-0.099745
0.045706
0.146802
-0.036352
0.073014
0.052225
-0.021516
0.131041
0.045775
-0.054960
0.165528
0.169947
0.004814
0.177577
-0.057543
-0.068465
-0.066328
-0.070436
0.139446
-0.029147
0.135035
0.030825
0.035522
-0.024742
0.156762
-0.060614
-0.057448
0.120233
-0.011243
0.150441
-0.039969
0.071695
0.077555
0.190517
0.181400
0.058135
0.177825
0.040225
-0.077671
-0.074036
0.165879
-0.030435
-0.062610
0.092470
0.144745
0.026617
0.150750
-0.069695
0.084090
0.081856
0.173420
0.066063
0.196133
0.186809
-0.036440
0.186890
-0.042442
-0.085095
-0.088898
0.020268
0.013961
0.093380
-0.081658
0.192744
0.098820
0.135668
0.204673
-0.021280
0.126578
-0.013338
0.103022
-0.072675
0.009752
0.005514
0.207673
0.207701
0.209679
0.117489
0.120522
0.109327
0.114456
-0.092771
-0.009399
-0.096733
-0.100751
-0.051556
-0.003772
0.001157
0.176479
0.160838
-0.033660
-0.025130
0.065957
0.014018
0.144123
0.135643
0.157689
-0.064678
0.181809
-0.076599
-0.028375
-0.014353
-0.085674
0.101843
-0.065844
0.008845
0.078303
0.145683
0.167028
0.150208
-0.039714
0.106058
0.124486
0.118422
-0.091597
-0.097678
-0.052471
0.117169
0.072918
0.130546
0.124554
-0.020617
-0.015212
-0.008420
0.172860
0.057198
0.057533
0.187357
0.017248
0.139284
0.139616
0.192909
0.133564
0.110259
0.002432
-0.004760
-0.046572
-0.069182
-0.072692
-0.076287
0.106459
0.088739
-0.063865
0.046994
0.040061
-0.002052
0.156011
-0.045533
-0.054108
-0.050323
-0.050213
0.160718
0.168331
0.037922
0.033197
0.145962
-0.035488
0.025976
-0.040708
-0.037364
0.080526
-0.055647
0.023548
0.027927
0.084937
-0.063674
-0.058002
0.072279
0.183267
0.180845
-0.025255
0.174850
0.019375
0.168806
0.095458
0.168681
0.191035
0.151685
-0.061666
-0.081846
-0.079969
0.087048
0.201844
-0.075657
0.189775
0.091283
0.013044
0.127512
0.196721
-0.022239
-0.019236
-0.034372
0.188679
-0.067640
-0.084656
0.201679
-0.087627
0.195716
0.097638
0.007647
0.205628
0.204614
0.205733
-0.010444
-0.090678
-0.001891
0.206618
0.115390
0.112358
-0.096711
-0.098730
0.162899
-0.028689
0.038412
0.144638
-0.034182
0.081281
-0.051892
0.164222
-0.012049
-0.031628
0.117779
0.141859
-0.041620
0.020639
0.092156
-0.073100
-0.062635
0.184116
0.012146
0.131469
0.190693
-0.082511
-0.050704
0.098477
-0.085592
0.101567
0.034668
-0.043736
-0.048205
0.154210
0.158634
0.162410
-0.035305
-0.026219
0.030173
0.163824
0.180077
0.169816
-0.076750
0.187839
-0.073633
0.125418
0.004589
0.196645
0.202626
-0.095632
0.006261
-0.031680
0.142043
0.037884
0.128011
0.133427
-0.017749
0.076116
-0.022896
-0.041150
0.151618
0.043498
0.174585
0.164551
0.064423
0.035239
0.047748
0.062174
0.022746
-0.008849
0.082620
0.147975
0.025852
-0.037500
-0.053648
-0.051990
0.160644
0.183711
-0.074503
0.185511
0.178837
0.081332
0.069562
0.016374
0.178281
0.137304
0.172849
0.088026
-0.059784
-0.070872
-0.070612
0.142630
0.010962
0.198681
0.202630
-0.020219
0.136575
0.094277
-0.083754
-0.061694
-0.058633
0.154653
0.103942
0.170487
-0.017267
0.006718
0.194813
-0.031366
-0.089599
-0.011466
0.099739
0.121451
-0.088604
-0.094641
0.116324
0.184763
-0.093607
-0.079585
0.201568
0.203593
0.108158
-0.002785
0.000258
0.113292
-0.007572
0.148678
-0.049531
-0.067435
-0.026730
-0.030981
0.052819
0.000807
0.140813
0.112256
-0.046033
0.156525
0.078742
0.132460
0.173355
-0.049877
0.154327
0.066257
-0.008591
0.031745
0.161509
0.095118
0.146607
0.176822
-0.063133
-0.018260
0.193617
-0.074528
0.104867
-0.043815
-0.037381
0.147841
0.005830
0.199563
-0.083530
-0.086484
-0.026138
0.136916
0.039418
0.169859
0.132984
0.127760
0.122467
0.158278
0.162411
0.085950
-0.047776
-0.022689
-0.066152
-0.029196
-0.080558
0.140544
0.134483
-0.012462
0.119353
-0.005715
0.155594
-0.029805
0.140287
-0.017698
0.014064
0.112668
0.066367
0.051793
0.078702
0.074584
-0.048126
0.043158
-0.049986
0.042282
0.031023
0.032413
0.083447
-0.004170
0.044220
0.145137
-0.038299
0.022830
-0.034791
0.035337
-0.044550
0.027352
-0.056725
-0.053627
-0.069559
0.180528
0.090984
-0.032333
0.018536
0.175819
0.096340
0.175112
-0.055275
0.166754
-0.074889
0.165795
-0.078638
0.185960
-0.068598
-0.065588
-0.058787
0.089940
-0.023190
0.014284
0.181860
0.187724
-0.033005
0.143477
0.106980
0.114223
-0.071307
0.128438
0.003671
-0.000644
-0.082576
-0.084487
0.122393
0.199628
0.200649
0.010068
0.072958
0.189742
-0.008594
0.193670
0.198568
-0.092578
0.109088
0.100627
0.200593
0.111192
-0.091616
0.149622
-0.090517
0.179758
0.182291
-0.059700
0.056224
0.108527
0.074043
-0.041769
0.152258
0.035608
0.130468
-0.014275
0.081903
0.170185
-0.039294
0.149816
-0.027289
0.118399
0.137986
0.083354
-0.045464
0.019933
-0.066510
-0.033489
-0.057676
0.147549
0.179121
-0.073592
0.174775
0.132389
0.011304
0.101443
-0.079410
0.144623
-0.034159
0.107895
0.002760
0.184687
0.123325
0.188642
0.196538
0.178771
-0.063595
-0.080523
0.197570
0.117250
0.112124
-0.087497
0.100789
-0.011269
0.148988
-0.038529
0.125400
0.077454
0.127843
-0.020078
-0.060569
-0.045713
0.160334
0.171543
-0.046346
0.040907
0.058355
-0.048069
0.061164
0.134837
0.156403
0.025101
0.032025
0.029396
0.167665
-0.036866
-0.067905
-0.048667
0.164410
0.000857
-0.004433
0.176863
0.015539
-0.051784
-0.024271
-0.064445
-0.030152
0.170792
-0.051141
0.113404
0.173814
0.139518
-0.029025
0.161495
-0.028270
0.092731
0.087929
-0.069924
0.065537
0.007981
-0.075505
-0.024156
0.180960
-0.056981
0.143584
0.191662
0.167536
0.137489
-0.077515
0.195586
-0.021193
0.197578
0.129372
0.102738
-0.081400
-0.015346
-0.003682
-0.086532
0.007102
0.191628
0.097207
0.001534
0.138399
0.069967
-0.071568
-0.006667
-0.009577
-0.089555
-0.088502
0.182703
0.152588
0.084112
0.158544
0.142763
-0.032309
0.048609
0.044378
-0.039598
0.130791
0.007545
0.022536
0.150364
-0.039894
0.123906
0.077095
0.033620
-0.015780
0.042225
-0.019663
0.084793
-0.047004
-0.031780
-0.020200
0.142241
-0.008451
0.039061
0.113989
-0.043810
0.095813
-0.031144
0.175959
-0.070534
0.130294
-0.019242
0.031882
-0.076357
-0.072463
-0.078475
0.159416
0.004494
0.186614
0.060869
-0.041165
0.148283
-0.037800
0.167010
0.069905
0.173830
0.134239
0.141484
-0.010525
0.105742
0.135395
0.049685
0.188561
0.115149
-0.004576
-0.085446
-0.084486
0.075996
0.177309
-0.017075
0.028870
-0.045221
0.039016
0.168474
0.146130
-0.035689
-0.044921
0.153613
0.156144
0.090068
0.052347
0.130951
-0.034754
-0.023648
0.160062
0.022087
-0.063226
-0.060452
-0.057632
-0.025541
0.163119
0.171944
-0.046945
0.017764
0.136009
0.099274
0.171805
0.074265
0.004972
0.141130
-0.030633
-0.004834
0.165836
-0.068211
-0.052560
0.162944
0.103600
-0.060601
0.020439
0.013447
0.151688
0.144518
0.186608
-0.055908
0.194534
0.000634
-0.027133
0.185664
-0.071754
-0.016335
0.120278
-0.083411
0.109997
0.182799
-0.001537
0.009199
0.195578
-0.077426
0.098037
0.153530
0.150515
0.126344
0.058420
0.190542
-0.066550
0.194596
0.177701
0.106860
-0.064811
0.047797
-0.042524
-0.054750
0.128969
0.124759
0.086467
0.091940
0.026650
-0.013415
0.120983
0.079937
0.040714
0.126431
-0.062458
0.074740
-0.043213
0.165220
-0.042812
0.149269
-0.024918
-0.005123
0.128512
0.135574
0.068262
-0.042173
0.019278
-0.060416
0.160302
0.148437
0.098733
0.172716
-0.058634
0.181596
0.010478
-0.017312
0.104385
0.004105
-0.038764
-0.054715
-0.032169
0.048100
0.094658
0.090598
0.169212
0.174165
-0.040914
-0.063461
0.036449
0.040968
0.133300
0.125306
0.108728
0.124257
0.185504
0.142397
0.183632
-0.074376
0.118170
0.192597
0.117523
0.080012
0.143069
-0.032610
0.001203
0.158193
0.065945
0.093402
0.024640
0.137247
0.140463
-0.026784
-0.030002
-0.021487
0.045033
-0.061803
-0.023018
-0.037796
0.014777
0.132070
0.146003
-0.035507
-0.048447
-0.066908
0.001924
-0.002433
0.053575
0.030515
0.168750
-0.068681
0.108753
0.012530
0.034231
0.180657
-0.072453
0.138402
-0.054191
-0.052739
-0.043268
0.192534
-0.082436
0.054268
-0.075448
-0.007565
0.189579
-0.022158
0.164574
-0.028104
0.191538
-0.081456
0.127275
-0.069500
0.177818
0.193553
0.113042
-0.013432
0.008379
0.100114
-0.078361
-0.061559
0.086924
0.073190
0.132472
0.156477
0.175568
-0.049841
0.086461
-0.010633
-0.014577
0.030296
0.122853
0.026697
0.082711
0.035859
-0.059697
-0.018136
-0.042952
0.154433
0.082307
-0.021310
0.044607
0.114264
0.088034
0.133662
0.048433
0.171045
-0.007804
-0.056613
-0.063903
-0.069438
0.007577
0.131224
0.065741
0.001072
0.181605
0.155495
0.008861
-0.073382
-0.011469
-0.017870
-0.034702
0.053732
0.021607
0.122470
-0.073345
-0.020215
-0.005450
-0.079445
0.116058
0.189523
0.125193
0.172414
-0.047810
0.087525
0.073506
-0.039846
0.163978
0.152291
0.023657
0.162827
0.096516
0.130245
-0.057581
-0.023199
0.060541
-0.040736
-0.041281
0.167501
-0.044470
0.017111
0.103243
0.138896
-0.028425
0.102215
0.025791
-0.061865
0.126567
0.044170
0.120249
0.166769
0.109634
0.076743
0.133747
-0.049863
-0.001537
-0.055623
0.012650
0.106568
0.187590
0.183558
0.145415
-0.029484
-0.065147
-0.036743
0.147445
0.139962
0.139335
0.187497
0.121216
-0.025100
0.110895
-0.021336
-0.080392
-0.000249
0.160078
0.136281
0.006269
0.037319
-0.053067
-0.014393
0.188562
0.172836
0.170729
-0.067471
-0.064499
0.151446
0.100928
0.076738
0.079103
0.190577
0.179690
0.175643
-0.065680
0.169796
0.089068
-0.012348
-0.044990
0.157383
-0.029102
0.037636
-0.056778
-0.058954
0.029219
0.027795
0.032935
0.151612
-0.014447
0.144373
-0.033884
0.027328
-0.038863
0.146845
-0.001921
-0.019593
0.126162
0.110163
-0.040818
0.149387
0.167952
0.099358
0.161792
0.170660
-0.060997
0.178567
-0.018270
0.163807
-0.036346
-0.057443
-0.051842
0.107443
0.037626
0.096149
-0.012420
0.122552
0.068641
0.052567
0.003309
0.158962
-0.053710
0.119062
0.185607
0.182524
0.186567
0.143316
-0.003302
-0.077416
-0.062494
0.024030
0.016462
0.033463
0.142398
-0.031892
0.002323
0.129952
0.131887
0.058344
-0.019669
0.153884
0.165921
0.169273
0.069610
0.103703
0.093451
0.117629
0.019506
0.158346
-0.040672
0.079420
0.014108
0.009710
0.005478
0.034429
0.157213
-0.060561
0.135226
0.138314
-0.027837
-0.062214
-0.024772
-0.033198
0.143750
-0.050694
-0.045864
-0.008488
0.018824
0.122171
-0.076341
0.111768
-0.067533
-0.051460
-0.001058
-0.075337
0.113952
0.178601
0.140271
0.134213
0.051171
0.044361
-0.026098
-0.023109
-0.059538
0.184583
-0.054717
0.089657
0.128193
0.154389
-0.071363
0.102996
0.174709
0.101604
0.164796
-0.070403
0.161578
-0.040429
0.085502
-0.015726
-0.043096
-0.030440
-0.019528
-0.012450
-0.009896
0.031284
0.081028
0.076541
0.149374
0.141735
-0.031243
-0.037222
0.146962
-0.037834
-0.029650
0.043164
0.128662
0.074270
0.016288
-0.038431
0.102210
0.156711
0.141181
0.132138
-0.054667
0.006847
-0.017770
0.044734
-0.066472
0.090252
0.152899
0.157114
0.008734
0.058890
0.113837
-0.038147
0.092361
0.131885
-0.009435
0.000272
-0.004098
-0.068367
-0.070406
0.123085
0.114820
0.183610
0.176647
0.166203
0.161454
-0.074476
0.084842
0.152322
-0.004966
-0.015930
-0.027250
0.030878
0.137758
0.140171
0.064385
0.073376
0.001896
0.128223
-0.017716
0.161328
0.059333
0.032121
-0.037792
0.096863
0.124253
0.016713
0.040798
-0.009495
0.136849
-0.026368
0.013453
-0.021208
0.105113
-0.056221
-0.013872
0.154699
-0.057581
-0.048881
-0.045889
0.149892
0.011917
-0.047213
-0.050249
0.119463
-0.062722
0.109527
-0.058971
0.184554
0.105448
0.173606
0.176656
0.146337
-0.034577
0.167591
0.091786
-0.024079
-0.027160
0.145119
-0.057563
0.137240
-0.015337
-0.042055
0.129133
0.155285
0.119995
0.160849
-0.065426
0.169797
-0.021184
0.103794
-0.006309
0.004712
0.116948
0.182654
0.167736
0.021214
0.180521
-0.059272
0.056454
0.159841
0.025241
-0.032888
0.035012
-0.053306
0.079042
0.029290
-0.038612
0.028632
-0.002038
0.019819
0.106671
0.013282
-0.054723
0.155079
0.163158
-0.052701
0.168631
-0.025083
0.004001
-0.049006
-0.038922
0.130047
-0.016290
0.175541
0.076627
0.099494
0.150401
0.123810
0.116274
0.041471
0.021063
0.147245
-0.034048
0.147487
0.037723
0.108153
-0.052249
-0.063417
-0.044085
0.112608
0.180653
0.164548
-0.058064
0.135130
0.009019
0.126374
-0.014097
-0.010912
0.159459
0.120739
-0.015876
-0.035824
0.069879
0.063315
0.007225
0.050542
0.065260
-0.035897
0.082959
0.130265
0.017999
0.041041
-0.017797
-0.054548
-0.022839
-0.025505
0.133332
0.136018
0.105854
-0.010266
-0.007139
0.002608
-0.041184
0.120875