# vtk DataFile Version 2.0
Test
ASCII
DATASET POLYDATA
POINTS 5510 float
0.000000 0.000000 0.000000
0.080000 0.000000 0.000000
0.080000 0.160000 0.000000
0.000000 0.160000 0.000000
0.035000 0.076250 0.000000
0.046500 0.083750 0.000000
0.002000 0.000000 0.000000
0.004000 0.000000 0.000000
0.006000 0.000000 0.000000
0.008000 0.000000 0.000000
0.010000 0.000000 0.000000
0.012000 0.000000 0.000000
0.014000 0.000000 0.000000
0.016000 0.000000 0.000000
0.018000 0.000000 0.000000
0.020000 0.000000 0.000000
0.022000 0.000000 0.000000
0.024000 0.000000 0.000000
0.026000 0.000000 0.000000
0.028000 0.000000 0.000000
0.030000 0.000000 0.000000
0.032000 0.000000 0.000000
0.034000 0.000000 0.000000
0.036000 0.000000 0.000000
0.038000 0.000000 0.000000
0.040000 0.000000 0.000000
0.042000 0.000000 0.000000
0.044000 0.000000 0.000000
0.046000 0.000000 0.000000
0.048000 0.000000 0.000000
0.050000 0.000000 0.000000
0.052000 0.000000 0.000000
0.054000 0.000000 0.000000
0.056000 0.000000 0.000000
0.058000 0.000000 0.000000
0.060000 0.000000 0.000000
0.062000 0.000000 0.000000
0.064000 0.000000 0.000000
0.066000 0.000000 0.000000
0.068000 0.000000 0.000000
0.070000 0.000000 0.000000
0.072000 0.000000 0.000000
0.074000 0.000000 0.000000
0.076000 0.000000 0.000000
0.078000 0.000000 0.000000
0.080000 0.002000 0.000000
0.080000 0.004000 0.000000
0.080000 0.006000 0.000000
0.080000 0.008000 0.000000
0.080000 0.010000 0.000000
0.080000 0.012000 0.000000
0.080000 0.014000 0.000000
0.080000 0.016000 0.000000
0.080000 0.018000 0.000000
0.080000 0.020000 0.000000
0.080000 0.022000 0.000000
0.080000 0.024000 0.000000
0.080000 0.026000 0.000000
0.080000 0.028000 0.000000
0.080000 0.030000 0.000000
0.080000 0.032000 0.000000
0.080000 0.034000 0.000000
0.080000 0.036000 0.000000
0.080000 0.038000 0.000000
0.080000 0.040000 0.000000
0.080000 0.042000 0.000000
0.080000 0.044000 0.000000
0.080000 0.046000 0.000000
0.080000 0.048000 0.000000
0.080000 0.050000 0.000000
0.080000 0.052000 0.000000
0.080000 0.054000 0.000000
0.080000 0.056000 0.000000
0.080000 0.058000 0.000000
0.080000 0.060000 0.000000
0.080000 0.062000 0.000000
0.080000 0.064000 0.000000
0.080000 0.066000 0.000000
0.080000 0.068000 0.000000
0.080000 0.070000 0.000000
0.080000 0.072000 0.000000
0.080000 0.074000 0.000000
0.080000 0.076000 0.000000
0.080000 0.078000 0.000000
0.080000 0.080000 0.000000
0.080000 0.082000 0.000000
0.080000 0.084000 0.000000
0.080000 0.086000 0.000000
0.080000 0.088000 0.000000
0.080000 0.090000 0.000000
0.080000 0.092000 0.000000
0.080000 0.094000 0.000000
0.080000 0.096000 0.000000
0.080000 0.098000 0.000000
0.080000 0.100000 0.000000
0.080000 0.102000 0.000000
0.080000 0.104000 0.000000
0.080000 0.106000 0.000000
0.080000 0.108000 0.000000
0.080000 0.110000 0.000000
0.080000 0.112000 0.000000
0.080000 0.114000 0.000000
0.080000 0.116000 0.000000
0.080000 0.118000 0.000000
0.080000 0.120000 0.000000
0.080000 0.122000 0.000000
0.080000 0.124000 0.000000
0.080000 0.126000 0.000000
0.080000 0.128000 0.000000
0.080000 0.130000 0.000000
0.080000 0.132000 0.000000
0.080000 0.134000 0.000000
0.080000 0.136000 0.000000
0.080000 0.138000 0.000000
0.080000 0.140000 0.000000
0.080000 0.142000 0.000000
0.080000 0.144000 0.000000
0.080000 0.146000 0.000000
0.080000 0.148000 0.000000
0.080000 0.150000 0.000000
0.080000 0.152000 0.000000
0.080000 0.154000 0.000000
0.080000 0.156000 0.000000
0.080000 0.158000 0.000000
0.078000 0.160000 0.000000
0.076000 0.160000 0.000000
0.074000 0.160000 0.000000
0.072000 0.160000 0.000000
0.070000 0.160000 0.000000
0.068000 0.160000 0.000000
0.066000 0.160000 0.000000
0.064000 0.160000 0.000000
0.062000 0.160000 0.000000
0.060000 0.160000 0.000000
0.058000 0.160000 0.000000
0.056000 0.160000 0.000000
0.054000 0.160000 0.000000
0.052000 0.160000 0.000000
0.050000 0.160000 0.000000
0.048000 0.160000 0.000000
0.046000 0.160000 0.000000
0.044000 0.160000 0.000000
0.042000 0.160000 0.000000
0.040000 0.160000 0.000000
0.038000 0.160000 0.000000
0.036000 0.160000 0.000000
0.034000 0.160000 0.000000
0.032000 0.160000 0.000000
0.030000 0.160000 0.000000
0.028000 0.160000 0.000000
0.026000 0.160000 0.000000
0.024000 0.160000 0.000000
0.022000 0.160000 0.000000
0.020000 0.160000 0.000000
0.018000 0.160000 0.000000
0.016000 0.160000 0.000000
0.014000 0.160000 0.000000
0.012000 0.160000 0.000000
0.010000 0.160000 0.000000
0.008000 0.160000 0.000000
0.006000 0.160000 0.000000
0.004000 0.160000 0.000000
0.002000 0.160000 0.000000
0.000000 0.158000 0.000000
0.000000 0.156000 0.000000
0.000000 0.154000 0.000000
0.000000 0.152000 0.000000
0.000000 0.150000 0.000000
0.000000 0.148000 0.000000
0.000000 0.146000 0.000000
0.000000 0.144000 0.000000
0.000000 0.142000 0.000000
0.000000 0.140000 0.000000
0.000000 0.138000 0.000000
0.000000 0.136000 0.000000
0.000000 0.134000 0.000000
0.000000 0.132000 0.000000
0.000000 0.130000 0.000000
0.000000 0.128000 0.000000
0.000000 0.126000 0.000000
0.000000 0.124000 0.000000
0.000000 0.122000 0.000000
0.000000 0.120000 0.000000
0.000000 0.118000 0.000000
0.000000 0.116000 0.000000
0.000000 0.114000 0.000000
0.000000 0.112000 0.000000
0.000000 0.110000 0.000000
0.000000 0.108000 0.000000
0.000000 0.106000 0.000000
0.000000 0.104000 0.000000
0.000000 0.102000 0.000000
0.000000 0.100000 0.000000
0.000000 0.098000 0.000000
0.000000 0.096000 0.000000
0.000000 0.094000 0.000000
0.000000 0.092000 0.000000
0.000000 0.090000 0.000000
0.000000 0.088000 0.000000
0.000000 0.086000 0.000000
0.000000 0.084000 0.000000
0.000000 0.082000 0.000000
0.000000 0.080000 0.000000
0.000000 0.078000 0.000000
0.000000 0.076000 0.000000
0.000000 0.074000 0.000000
0.000000 0.072000 0.000000
0.000000 0.070000 0.000000
0.000000 0.068000 0.000000
0.000000 0.066000 0.000000
0.000000 0.064000 0.000000
0.000000 0.062000 0.000000
0.000000 0.060000 0.000000
0.000000 0.058000 0.000000
0.000000 0.056000 0.000000
0.000000 0.054000 0.000000
0.000000 0.052000 0.000000
0.000000 0.050000 0.000000
0.000000 0.048000 0.000000
0.000000 0.046000 0.000000
0.000000 0.044000 0.000000
0.000000 0.042000 0.000000
0.000000 0.040000 0.000000
0.000000 0.038000 0.000000
0.000000 0.036000 0.000000
0.000000 0.034000 0.000000
0.000000 0.032000 0.000000
0.000000 0.030000 0.000000
0.000000 0.028000 0.000000
0.000000 0.026000 0.000000
0.000000 0.024000 0.000000
0.000000 0.022000 0.000000
0.000000 0.020000 0.000000
0.000000 0.018000 0.000000
0.000000 0.016000 0.000000
0.000000 0.014000 0.000000
0.000000 0.012000 0.000000
0.000000 0.010000 0.000000
0.000000 0.008000 0.000000
0.000000 0.006000 0.000000
0.000000 0.004000 0.000000
0.000000 0.002000 0.000000
0.035411 0.076518 0.000000
0.035821 0.076786 0.000000
0.036232 0.077054 0.000000
0.036643 0.077321 0.000000
0.037054 0.077589 0.000000
0.037464 0.077857 0.000000
0.037875 0.078125 0.000000
0.038286 0.078393 0.000000
0.038696 0.078661 0.000000
0.039107 0.078929 0.000000
0.039518 0.079196 0.000000
0.039929 0.079464 0.000000
0.040339 0.079732 0.000000
0.040750 0.080000 0.000000
0.041161 0.080268 0.000000
0.041571 0.080536 0.000000
0.041982 0.080804 0.000000
0.042393 0.081071 0.000000
0.042804 0.081339 0.000000
0.043214 0.081607 0.000000
0.043625 0.081875 0.000000
0.044036 0.082143 0.000000
0.044446 0.082411 0.000000
0.044857 0.082679 0.000000
0.045268 0.082946 0.000000
0.045679 0.083214 0.000000
0.046089 0.083482 0.000000
0.040000 0.002000 0.000000
0.040001 0.158005 0.000000
0.002000 0.116000 0.000000
0.078000 0.048000 0.000000
0.002000 0.106000 0.000000
0.078000 0.058000 0.000000
0.001986 0.042173 0.000000
0.078015 0.117826 0.000000
0.001985 0.094174 0.000000
0.001985 0.084174 0.000000
0.001914 0.056074 0.000000
0.002000 0.072000 0.000000
0.078015 0.065826 0.000000
0.078016 0.075826 0.000000
0.078000 0.088000 0.000000
0.078000 0.104000 0.000000
0.078003 0.029997 0.000000
0.001998 0.130002 0.000000
0.002000 0.032000 0.000000
0.078013 0.128003 0.000000
0.056000 0.158000 0.000000
0.026000 0.002000 0.000000
0.060000 0.002000 0.000000
0.020000 0.158000 0.000000
0.002000 0.020000 0.000000
0.078000 0.142000 0.000000
0.002000 0.146000 0.000000
0.078000 0.020000 0.000000
0.016000 0.002000 0.000000
0.068000 0.002000 0.000000
0.066000 0.158000 0.000000
0.002000 0.014000 0.000000
0.008000 0.158000 0.000000
0.010000 0.002000 0.000000
0.078000 0.148000 0.000000
0.078000 0.008000 0.000000
0.078005 0.037995 0.000000
0.051991 0.001990 0.000000
0.028000 0.158000 0.000000
0.002000 0.008000 0.000000
0.078000 0.094000 0.000000
0.078000 0.110000 0.000000
0.001983 0.066159 0.000000
0.002000 0.050000 0.000000
0.046000 0.158000 0.000000
0.078000 0.134000 0.000000
0.002000 0.140000 0.000000
0.006000 0.002000 0.000000
0.002000 0.154000 0.000000
0.074000 0.002000 0.000000
0.078000 0.152000 0.000000
0.074000 0.158000 0.000000
0.078000 0.080000 0.000000
0.078000 0.070000 0.000000
0.078000 0.122000 0.000000
0.002000 0.090000 0.000000
0.002000 0.080000 0.000000
0.002000 0.038000 0.000000
0.002000 0.102000 0.000000
0.002000 0.112000 0.000000
0.036000 0.002000 0.000000
0.078000 0.042000 0.000000
0.032000 0.002000 0.000000
0.047987 0.001989 0.000000
0.032008 0.158010 0.000000
0.002000 0.028000 0.000000
0.002000 0.126000 0.000000
0.060000 0.158000 0.000000
0.022000 0.002000 0.000000
0.002000 0.136000 0.000000
0.078000 0.024000 0.000000
0.012000 0.158000 0.000000
0.078000 0.158000 0.000000
0.001947 0.003947 0.000000
0.002000 0.158000 0.000000
0.078000 0.012000 0.000000
0.078000 0.096000 0.000000
0.078000 0.098000 0.000000
0.078000 0.082000 0.000000
0.078111 0.099889 0.000000
0.078035 0.083965 0.000000
0.078000 0.090000 0.000000
0.078000 0.106000 0.000000
0.078000 0.072000 0.000000
0.078000 0.112000 0.000000
0.078043 0.061976 0.000000
0.078000 0.114000 0.000000
0.002000 0.064000 0.000000
0.002000 0.062000 0.000000
0.002000 0.088000 0.000000
0.002000 0.078000 0.000000
0.002000 0.060000 0.000000
0.001966 0.076034 0.000000
0.002000 0.070000 0.000000
0.002000 0.054000 0.000000
0.001957 0.098024 0.000000
0.002000 0.048000 0.000000
0.002000 0.046000 0.000000
[...]
POINT_DATA 5510
SCALARS UX float 1
LOOKUP_TABLE default
-0.009277
0.014308
0.000000
-0.023112
-0.006021
-0.002406
-0.008685
-0.008093
-0.007500
-0.006908
-0.006316
-0.005724
-0.005132
-0.004541
-0.003950
-0.003360
-0.002770
-0.002180
-0.001591
-0.001003
-0.000415
0.000172
0.000759
0.001346
0.001932
0.002518
0.003104
0.003690
0.004276
0.004862
0.005448
0.006035
0.006621
0.007209
0.007797
0.008385
0.008974
0.009564
0.010155
0.010746
0.011338
0.011931
0.012524
0.013118
0.013713
0.014141
0.013976
0.013811
0.013646
0.013483
0.013319
0.013157
0.012995
0.012833
0.012673
0.012512
0.012353
0.012195
0.012038
0.011883
0.011728
0.011575
0.011423
0.011273
0.011124
0.010977
0.010830
0.010684
0.010539
0.010394
0.010250
0.010105
0.009959
0.009812
0.009663
0.009512
0.009358
0.009203
0.009044
0.008882
0.008719
0.008549
0.008376
0.008198
0.008015
0.007828
0.007635
0.007433
0.007224
0.007010
0.006786
0.006556
0.006323
0.006085
0.005846
0.005610
0.005380
0.005152
0.004935
0.004726
0.004525
0.004327
0.004140
0.003957
0.003778
0.003603
0.003430
0.003261
0.003094
0.002927
0.002763
0.002599
0.002435
0.002273
0.002111
0.001949
0.001787
0.001626
0.001465
0.001306
0.001148
0.000989
0.000813
0.000546
-0.000004
-0.000624
-0.001238
-0.001845
-0.002446
-0.003044
-0.003640
-0.004235
-0.004829
-0.005422
-0.006013
-0.006604
-0.007194
-0.007784
-0.008373
-0.008961
-0.009549
-0.010136
-0.010723
-0.011310
-0.011896
-0.012482
-0.013069
-0.013655
-0.014242
-0.014829
-0.015416
-0.016004
-0.016593
-0.017181
-0.017771
-0.018362
-0.018953
-0.019545
-0.020138
-0.020731
-0.021325
-0.021920
-0.022516
-0.022945
-0.022779
-0.022614
-0.022450
-0.022286
-0.022123
-0.021961
-0.021800
-0.021639
-0.021479
-0.021320
-0.021162
-0.021005
-0.020849
-0.020694
-0.020541
-0.020389
-0.020237
-0.020088
-0.019939
-0.019791
-0.019645
-0.019498
-0.019352
-0.019207
-0.019061
-0.018914
-0.018766
-0.018617
-0.018466
-0.018312
-0.018157
-0.018000
-0.017839
-0.017675
-0.017511
-0.017340
-0.017166
-0.016988
-0.016805
-0.016620
-0.016427
-0.016227
-0.016021
-0.015812
-0.015592
-0.015368
-0.015139
-0.014908
-0.014673
-0.014441
-0.014213
-0.013987
-0.013771
-0.013560
-0.013352
-0.013158
-0.012969
-0.012782
-0.012600
-0.012424
-0.012248
-0.012078
-0.011909
-0.011741
-0.011575
-0.011409
-0.011245
-0.011082
-0.010918
-0.010754
-0.010591
-0.010428
-0.010264
-0.010100
-0.009936
-0.009772
-0.009607
-0.009442
-0.005878
-0.005737
-0.005542
-0.005352
-0.005202
-0.005094
-0.004975
-0.004845
-0.004758
-0.004631
-0.004522
-0.004434
-0.004315
-0.004196
-0.004053
-0.003917
-0.003783
-0.003645
-0.003522
-0.003432
-0.003335
-0.003240
-0.003127
-0.003020
-0.002888
-0.002739
-0.002595
0.002354
-0.011145
-0.019044
0.009938
-0.018320
0.009220
-0.012194
0.003368
-0.017435
-0.016607
-0.013631
-0.015436
0.008638
0.007818
0.006638
0.004760
0.011282
-0.020094
-0.011308
0.002497
-0.006439
-0.001756
0.008220
-0.017017
-0.010323
0.001353
-0.021364
0.012074
-0.004707
0.010580
-0.003476
-0.009835
-0.020564
-0.006482
0.000869
0.013051
0.010672
0.005869
-0.014665
-0.009344
0.005956
0.004109
-0.014792
-0.012943
-0.009384
0.002002
-0.020881
-0.007666
-0.022018
0.012358
0.000546
-0.001094
0.007438
0.008303
0.002998
-0.017096
-0.016227
-0.011818
-0.018027
-0.018754
0.001181
0.010374
0.000007
0.004695
-0.013490
-0.010977
-0.019787
-0.005256
-0.002935
-0.020562
0.011753
-0.019379
0.000006
-0.009027
-0.022348
0.012723
0.005716
0.005474
0.007249
0.005279
0.007065
0.006417
0.004535
0.008138
0.003908
0.008939
0.003716
-0.014535
-0.014299
-0.016930
-0.016039
-0.014061
-0.015857
-0.015219
-0.013372
-0.017741
-0.012741
-0.012546
0.009509
0.010235
0.009795
-0.018609
-0.019337
0.002828
-0.011646
0.003526
-0.012318
-0.010559
0.010975
-0.008796
-0.008208
-0.019636
-0.000580
0.007044
-0.015840
-0.010813
0.002332
0.001839
-0.010649
0.001677
-0.020405
-0.007619
0.011595
-0.021202
-0.004664
-0.003525
0.009399
-0.018196
0.001191
0.012398
-0.021690
-0.010161
-0.009671
-0.002880
-0.005298
-0.002285
0.000385
-0.021753
-0.008297
-0.008940
0.013380
0.011764
0.013546
-0.018171
0.009354
-0.016533
-0.015677
-0.014862
-0.013488
-0.012349
0.006891
0.006065
0.004707
0.007741
0.003335
-0.010973
-0.019043
0.001897
-0.011229
-0.000160
-0.007459
-0.010381
0.001083
-0.003100
-0.019963
0.011155
-0.005092
-0.009567
-0.004872
-0.020767
-0.002723
0.004162
0.009671
-0.009242
-0.000053
0.012192
0.006524
0.004894
0.005370
-0.015313
-0.013720
-0.014184
-0.011973
0.006227
0.006885
0.005036
0.007660
0.007988
0.004354
0.008499
0.003548
-0.015035
-0.016777
-0.015678
-0.017294
-0.013846
-0.016449
-0.013172
-0.012375
0.008789
-0.017588
0.009088
-0.017892
0.009379
0.003217
-0.018187
-0.012039
0.009665
-0.018477
-0.018923
0.010092
-0.019199
0.010528
-0.019491
0.002936
-0.011728
0.001765
-0.009969
0.004108
-0.012901
0.002668
-0.011484
0.010824
0.000593
0.005281
-0.014075
-0.008628
0.006455
-0.015250
-0.019939
-0.011145
0.002167
0.011127
-0.010218
-0.001168
0.001407
-0.007029
0.007631
-0.016427
-0.010487
0.001516
-0.020248
0.011437
-0.020721
-0.005848
-0.002346
-0.021041
0.011913
-0.004070
-0.004116
-0.017606
0.008809
-0.018787
0.009989
0.001030
-0.009998
-0.019971
0.012236
-0.021527
0.000708
0.012560
-0.009508
-0.005890
-0.021853
-0.001689
0.012887
0.000210
-0.007074
-0.009180
-0.021158
-0.008423
0.011172
-0.000514
-0.021587
-0.022182
0.013215
0.012786
0.012951
-0.017358
0.008553
-0.012957
0.003942
0.004130
-0.009789
-0.013921
0.006297
-0.016264
0.008644
0.011964
-0.018621
0.000435
0.010237
0.001619
-0.019805
-0.021257
0.005653
0.002972
-0.014460
0.008280
0.007923
-0.017079
-0.016719
0.007425
0.007086
-0.016213
-0.015873
0.008846
-0.017655
0.002620
-0.010889
-0.012735
-0.010549
0.010527
0.001573
-0.019345
-0.001333
-0.002511
-0.004281
0.009824
-0.020444
-0.020122
-0.006055
-0.008915
-0.020930
0.011639
0.011315
-0.001542
-0.000223
0.012291
0.012026
0.005844
0.006289
-0.014645
0.004465
-0.015080
0.003186
-0.013245
-0.012585
0.009535
0.007588
-0.016378
-0.011801
-0.011419
-0.018332
-0.018610
0.003723
0.003949
0.009082
0.009218
-0.017895
-0.018032
-0.011582
0.005154
0.006709
-0.018898
-0.013966
-0.015497
0.003534
0.009936
0.009797
-0.012174
-0.011061
0.002071
0.005116
0.000441
-0.009209
0.002790
-0.009821
0.001737
-0.019196
-0.015090
-0.006873
-0.000748
0.010838
0.010996
-0.019649
-0.019806
0.000921
0.007468
-0.010057
-0.009729
-0.008044
0.001246
-0.003689
-0.010398
-0.005683
-0.017441
-0.003908
-0.004501
-0.003315
-0.020605
-0.005463
0.011006
-0.009404
-0.009079
-0.007239
0.011599
-0.002132
-0.007831
0.012620
0.000110
-0.000395
-0.021422
-0.008588
-0.020992
-0.010838
0.009226
-0.017408
0.002573
-0.015331
-0.016191
-0.014129
-0.010186
0.007403
0.006567
0.005276
-0.018325
0.001486
-0.007296
0.000258
0.010244
0.000655
-0.019054
-0.002677
-0.004341
-0.009135
-0.004445
-0.019847
-0.008486
-0.012027
-0.012728
0.003201
-0.001979
0.005818
-0.014632
-0.011245
0.008995
0.004604
-0.013436
-0.009958
-0.010478
-0.018606
-0.000913
-0.005628
0.000597
-0.020171
-0.000485
0.003868
0.005094
0.002990
-0.013916
0.007259
0.008091
-0.016046
-0.016888
0.008407
-0.017210
-0.018466
0.006168
0.004311
-0.013179
0.008700
-0.017508
-0.011646
-0.014953
0.002756
-0.018741
-0.012987
-0.012667
-0.009625
-0.011386
-0.013312
0.007086
-0.015874
0.010086
-0.017757
-0.011619
0.008945
0.005695
0.001019
0.002193
0.004518
0.002424
0.002249
0.010384
-0.010719
0.008667
-0.006274
0.010684
-0.014505
-0.019495
0.000489
0.001147
-0.008464
-0.001923
-0.009895
-0.017485
-0.017789
0.006882
-0.015677
0.010403
0.010718
-0.009629
-0.019211
-0.019525
-0.005520
-0.003748
0.000980
0.008056
-0.016853
-0.020283
-0.003853
-0.012157
0.011477
-0.008811
0.000759
-0.018030
0.009233
-0.003158
0.010414
0.011801
0.011433
-0.006647
0.000273
-0.021093
0.012128
-0.007996
-0.019213
0.011861
0.012456
-0.008752
-0.000814
-0.000963
-0.020827
-0.020398
0.003365
0.003399
-0.016849
-0.013401
-0.012433
0.004617
-0.009510
-0.018466
0.000562
0.003780
0.009657
-0.009371
-0.013758
0.006133
0.009068
-0.004178
-0.016100
-0.004020
0.011206
0.008115
-0.017866
0.011268
-0.019048
0.003813
-0.016922
0.009650
0.000062
-0.012531
0.006673
-0.015534
-0.016623
-0.016294
0.007819
0.007500
0.001455
-0.018905
-0.006115
-0.009303
-0.002090
0.010881
0.000167
-0.008323
-0.020233
-0.012170
0.006963
-0.015753
-0.011012
0.002727
-0.014445
0.005561
0.002770
-0.017099
0.008278
0.008588
-0.012718
0.009098
-0.017281
-0.018064
-0.017910
-0.018186
0.006344
-0.015125
0.005905
0.001652
0.002052
-0.014715
0.000835
-0.012572
-0.011956
0.004803
-0.013615
0.007222
-0.016012
0.003617
-0.010654
0.010091
0.009366
-0.011806
0.004950
0.002409
-0.018754
-0.018461
0.002609
-0.006712
-0.017612
-0.009468
-0.001499
0.001315
-0.000332
-0.014346
-0.010126
-0.010305
0.008791
-0.011438
0.010560
0.006720
-0.007879
0.009794
-0.009043
-0.019367
-0.019686
0.000819
0.000329
-0.009042
-0.016688
0.007892
-0.008974
-0.003265
0.010249
-0.004931
-0.005036
-0.003589
-0.008649
-0.014928
0.000003
-0.000322
0.010841
0.011533
0.011697
-0.006811
-0.006219
-0.008159
-0.007403
-0.020009
-0.002568
-0.020335
-0.020662
-0.010811
-0.001396
-0.000649
0.008656
0.007614
-0.015237
-0.014526
-0.011095
-0.012127
0.006452
0.005766
0.001252
-0.013605
0.005975
-0.015939
-0.006552
-0.004018
-0.019093
-0.008383
-0.017521
-0.000423
-0.010265
-0.001077
0.008029
0.006946
-0.015734
-0.008057
-0.005200
-0.006383
-0.019577
-0.020068
-0.011222
0.004347
0.003346
0.005284
0.004776
-0.014107
-0.013583
-0.013159
0.008452
0.002876
-0.011515
0.009513
0.000231
0.006065
-0.002255
0.009968
-0.003431
-0.007731
-0.000914
-0.001825
-0.010078
-0.017753
-0.018028
-0.018319
0.004073
0.003610
-0.017384
0.002455
0.002036
-0.012919
0.007644
-0.016442
-0.016693
-0.016427
-0.016762
0.007956
0.008468
0.002230
0.001854
0.006567
-0.015349
-0.012204
-0.008940
-0.008297
-0.010078
-0.011841
0.000727
0.001082
-0.009715
-0.013169
-0.016938
-0.010725
0.009509
0.005544
-0.005946
0.004366
0.000398
0.003183
-0.008882
0.008111
0.009814
0.000086
-0.017211
-0.018776
-0.018621
-0.009545
0.011043
-0.015512
0.007305
-0.009205
-0.000098
-0.004610
0.010288
-0.005357
-0.004767
-0.007716
0.009938
-0.014185
-0.017276
0.009657
-0.019253
0.008479
-0.008710
-0.000158
0.010676
0.010940
0.011369
-0.003001
-0.018457
-0.001239
0.011104
-0.006975
-0.007567
-0.019640
-0.020498
0.002031
-0.014827
-0.012330
0.006769
-0.015555
-0.009699
-0.016197
0.007476
-0.013097
-0.014805
0.004079
0.005987
-0.009350
0.000155
-0.008789
-0.017739
-0.013446
0.008926
-0.000520
-0.003596
0.007728
-0.018502
-0.011113
-0.008295
-0.017701
0.003622
0.001704
-0.015974
-0.016284
0.007175
0.007467
0.007683
-0.008134
-0.006369
0.001283
0.002446
0.008928
0.003617
-0.018034
0.009226
-0.015357
-0.004774
-0.000751
0.008903
0.010084
-0.019904
-0.012318
-0.015062
0.006260
0.001903
0.005012
0.005516
-0.013793
-0.010490
-0.014276
-0.015769
0.006974
0.002288
0.008532
0.007849
0.003102
-0.012030
0.002215
-0.011268
-0.011900
-0.012889
-0.009906
0.006730
0.000915
-0.015518
-0.016307
-0.016517
0.001827
0.009215
-0.018174
0.009361
0.005389
0.003098
-0.010898
-0.000185
0.008791
0.005883
0.004213
-0.009131
-0.017061
-0.017881
-0.014766
-0.001669
-0.000259
0.010450
0.010777
-0.005193
-0.002845
-0.008620
-0.018935
-0.013021
-0.012423
0.000664
-0.008221
0.008229
-0.004605
-0.000588
0.010127
-0.007134
-0.019414
-0.003431
-0.008546
-0.005792
-0.018292
-0.019475
-0.006547
0.006556
-0.019740
-0.016523
0.010347
0.010511
-0.007894
-0.001666
-0.001077
-0.007139
-0.002412
-0.000496
-0.010652
-0.017619
-0.014647
-0.015087
-0.011657
-0.012469
0.006180
0.004200
-0.016127
0.007324
0.003402
0.005497
0.008082
-0.015760
0.006823
-0.010764
-0.012603
-0.011373
0.002231
-0.008213
-0.000660
0.005233
-0.016985
-0.005030
0.009701
-0.015775
-0.007793
-0.015627
-0.015261
0.006470
-0.001010
0.010185
-0.017539
-0.018822
-0.014339
0.005617
0.001683
0.007891
0.005279
0.004802
0.004449
0.007093
0.007357
-0.009313
-0.010545
-0.014065
-0.017191
-0.006949
-0.018343
-0.001834
-0.003010
-0.003858
-0.005956
-0.002254
0.001081
-0.014650
0.005873
-0.013578
-0.011799
0.003844
0.002800
0.002325
-0.009979
-0.010288
-0.015941
0.001892
-0.016067
-0.011495
-0.011754
0.001462
-0.009508
-0.012664
-0.011853
0.006213
-0.008702
0.000342
-0.015016
0.001391
-0.009920
0.000731
-0.012288
-0.011684
-0.017454
0.008637
0.003313
-0.007557
-0.000013
0.004796
-0.008462
0.008214
-0.016403
0.003021
-0.017881
0.007558
-0.018188
0.009072
-0.014612
-0.014023
-0.016665
-0.008992
-0.005778
-0.000349
0.009066
0.007141
-0.014877
0.006096
-0.007629
-0.006711
-0.017595
-0.004186
-0.001178
-0.001505
-0.017109
-0.018662
-0.005364
0.009491
0.010613
-0.000681
-0.010332
0.009382
-0.002844
0.008315
0.009759
-0.019311
-0.007465
-0.008125
0.009921
-0.007302
-0.018883
-0.000076
-0.019147
0.005812
0.008777
-0.012870
-0.011210
0.003742
0.002988
-0.015501
0.006700
0.001722
0.005126
-0.013272
-0.009352
0.007506
-0.014978
0.006178
-0.014174
0.003864
0.005441
0.002803
-0.010327
-0.000223
-0.016895
-0.008005
-0.012713
-0.000240
0.008200
-0.017451
0.005071
-0.003176
-0.000929
-0.007715
-0.017915
0.005909
-0.014697
-0.007204
-0.001603
0.008642
-0.004937
0.007563
0.009595
0.008498
-0.013873
-0.016948
0.010023
-0.006121
-0.006874
-0.018558
0.003225
-0.012806
0.006503
-0.015299
0.004556
-0.009788
0.004643
-0.013721
-0.016808
-0.015437
0.007219
0.007967
-0.015824
-0.011216
0.002577
-0.015614
-0.011050
0.005412
0.006966
0.000529
0.001179
0.000905
0.003436
-0.008648
-0.017326
-0.010952
0.002799
-0.012182
-0.012369
0.008349
-0.000590
-0.011559
-0.014171
-0.017060
-0.007366
0.004050
-0.015806
0.003591
0.004642
0.005535
-0.014308
0.006953
-0.014542
-0.008429
-0.008850
-0.017158
0.002473
-0.000843
-0.017605
-0.006196
0.008346
-0.016523
-0.001245
0.009541
0.007672
-0.002427
-0.016359
0.009861
-0.005613
0.009326
-0.003762
-0.007960
-0.018073
-0.004443
-0.002094
-0.018127
-0.001262
0.008152
-0.008047
-0.001340
0.005707
-0.010546
-0.015193
-0.002685
-0.003273
-0.018720
-0.018984
0.006391
0.000501
-0.009150
0.001656
0.005754
-0.014538
-0.011435
0.001777
-0.009190
0.005052
-0.011909
-0.011583
0.006582
-0.015380
0.004473
-0.010046
0.001262
-0.013401
0.001945
-0.013778
-0.008797
-0.015224
-0.014235
-0.013592
0.005448
-0.012351
-0.010896
0.003352
-0.010235
-0.007838
-0.007785
0.007619
-0.016877
-0.003342
-0.005449
0.000787
-0.017330
-0.015612
-0.016789
0.002062
-0.011763
0.007404
-0.010729
-0.015109
0.006111
-0.014911
0.007363
-0.010252
0.007787
0.005112
-0.001413
-0.003698
-0.007375
-0.002593
-0.010989
0.008954
-0.006285
-0.002517
-0.018394
-0.017968
-0.009806
0.008056
-0.013286
0.000608
-0.015492
0.001411
0.007407
0.005985
-0.014783
-0.015069
0.006511
0.006608
-0.008653
0.002058
0.004856
-0.008469
-0.013866
0.006878
-0.000030
-0.016643
-0.016465
-0.016264
-0.014029
0.002781
0.007640
-0.010848
-0.000407
0.005252
-0.007886
0.004488
0.002612
-0.001427
0.005641
-0.014414
-0.012115
0.003316
-0.017026
-0.015878
0.007016
-0.007544
-0.013286
-0.011328
-0.000757
0.006314
-0.000826
0.008797
-0.016126
0.009435
-0.001765
-0.006779
0.006975
-0.017305
-0.004867
-0.005531
-0.018233
-0.007041
0.008490
-0.001930
-0.001097
0.009170
-0.017756
-0.007644
0.000918
0.000336
-0.004350
0.002285
0.009114
-0.014451
0.008738
0.005648
0.003365
-0.016762
0.001865
-0.009760
-0.012139
0.004660
0.004286
-0.008918
0.003020
0.000365
-0.012993
0.004010
-0.009495
0.001472
0.004918
-0.016994
-0.010561
-0.015277
0.006791
-0.014608
0.005847
-0.013722
-0.011894
0.004409
0.004990
0.002155
-0.010145
-0.000581
-0.016122
0.002464
0.000170
-0.007273
0.004908
-0.013141
0.008061
-0.001331
-0.005286
-0.007139
-0.001841
-0.014648
-0.015730
-0.008179
0.001578
0.002740
-0.008343
0.007121
0.007481
-0.009675
-0.016333
0.001177
0.001268
-0.002760
0.004194
-0.006793
-0.004514
0.008370
-0.000999
0.006815
-0.017174
-0.005697
0.008583
0.003549
-0.009301
0.005443
-0.014237
-0.011805
0.006725
-0.010490
-0.008056
0.000200
0.005090
0.005306
-0.013864
-0.014088
-0.013659
-0.010819
-0.016553
-0.013569
-0.009071
-0.000974
0.004687
0.005645
-0.014449
-0.015286
-0.016597
-0.002012
-0.002353
0.001826
-0.011087
0.003890
-0.016732
0.003138
-0.011472
0.001003
0.006228
-0.017026
-0.002010
-0.015993
-0.011983
-0.014953
0.009275
-0.017806
-0.010988
-0.016194
-0.003106
0.007987
-0.006028
0.007121
-0.007196
0.008850
-0.017374
-0.003928
-0.015028
0.007765
0.009009
-0.006451
-0.004283
-0.001500
-0.007478
-0.017487
-0.013714
-0.008605
-0.010026
0.004962
0.001493
0.007921
-0.011415
0.002598
-0.012508
-0.013019
0.000683
0.004141
0.000169
-0.008972
0.000914
-0.016478
-0.013341
-0.015049
0.006507
-0.008848
-0.013200
-0.010469
0.003113
0.002291
0.004580
0.001315
0.006907
-0.012071
-0.012982
-0.016034
-0.016450
-0.001894
-0.002923
-0.010195
-0.002420
0.006656
0.006222
-0.011312
-0.016030
-0.004121
-0.013156
-0.008694
-0.010569
-0.000334
0.003885
-0.016748
-0.005864
-0.002937
-0.017221
-0.005864
0.008690
-0.004091
0.007348
-0.011254
-0.008267
-0.009717
-0.009692
0.006812
0.006045
-0.000192
0.002962
-0.007474
0.004542
-0.015932
-0.013347
0.001995
-0.014810
-0.014521
0.006981
-0.014718
-0.000771
0.002952
0.005201
-0.013976
-0.007313
-0.010897
-0.016216
0.004229
0.001391
0.003734
0.003731
0.002904
0.002327
0.004821
-0.015363
-0.011700
-0.012549
-0.001149
-0.006965
0.007835
0.008217
-0.000416
-0.013787
-0.016462
-0.014476
0.005706
0.005001
-0.001592
0.008530
-0.005105
-0.006608
-0.006620
-0.013427
-0.017647
-0.002184
0.006482
-0.002183
-0.001669
0.001530
-0.015598
-0.004703
0.008265
0.007041
0.007223
-0.014871
-0.014288
0.000751
-0.007080
-0.009446
-0.009268
0.008424
0.007911
0.005483
-0.016165
0.004333
-0.008413
-0.012609
-0.010698
0.001902
-0.007611
0.001012
-0.015943
-0.016027
0.000283
0.000192
0.000598
0.006122
-0.012861
0.005542
-0.014339
-0.000132
-0.014020
0.005382
-0.011475
-0.012830
0.003984
0.002681
-0.010085
0.000589
0.006332
-0.006921
0.003003
0.004745
-0.015478
0.007483
-0.005699
0.006386
-0.014199
-0.015572
-0.015205
-0.006550
0.000745
0.002472
-0.004543
0.003729
0.001854
0.001464
-0.002239
0.006456
-0.012411
-0.005280
0.007684
0.007792
0.008110
-0.000586
-0.002769
-0.017063
-0.014135
-0.000341
-0.001126
0.000473
0.005124
-0.013923
-0.011527
0.004278
0.004442
-0.010537
-0.013284
0.006118
0.006546
0.006774
-0.009984
0.002688
-0.007785
0.003306
-0.000790
0.002313
-0.014159
0.002119
-0.001328
-0.001713
-0.002064
-0.010694
0.006349
-0.015789
0.004683
0.004879
-0.013659
-0.015910
-0.013455
-0.013984
0.005187
-0.011819
-0.014790
-0.003530
-0.010993
-0.004677
-0.016611
-0.006204
-0.016303
-0.015475
-0.002588
-0.016902
-0.006031
0.006064
-0.001175
-0.002346
-0.010353
0.001115
-0.007026
-0.006438
-0.013555
0.007243
-0.015407
-0.008075
-0.003510
0.001325
-0.016595
-0.006916
0.007186
-0.006716
0.003594
-0.015448
0.006573
-0.014548
-0.008445
-0.012939
-0.010555
-0.008051
-0.013038
-0.012476
-0.012246
0.000486
-0.008842
-0.009215
0.005669
0.005149
-0.013943
-0.009187
0.005195
-0.013680
-0.013484
-0.010201
0.003950
0.001696
-0.001363
-0.009822
-0.006371
0.002244
-0.000763
-0.002510
-0.012835
-0.002268
-0.012662
0.000864
-0.015876
-0.007742
0.005723
0.005940
-0.010984
-0.010080
0.002852
-0.014092
0.002091
0.004207
-0.012005
-0.002816
-0.003168
-0.015288
-0.016172
-0.004260
-0.005619
0.007529
0.005920
0.006206
0.005902
-0.016485
-0.008354
0.001161
-0.011656
-0.012736
-0.013375
0.000159
0.004591
0.004683
-0.009978
-0.009453
-0.011280
0.004135
-0.012883
0.006131
0.001646
-0.010455
-0.014272
-0.007208
0.003819
-0.010785
0.000938
-0.003970
0.004789
-0.013561
-0.001662
-0.012950
-0.006745
-0.015512
-0.012557
0.005851
-0.015230
-0.011697
-0.011108
0.005544
-0.001519
-0.014859
-0.015079
0.003406
-0.015596
-0.006388
-0.015677
0.007952
0.002494
0.005323
0.007335
-0.000001
-0.014050
0.006653
-0.007880
-0.006849
-0.007452
0.005244
-0.013405
-0.001761
-0.005119
-0.014239
-0.003091
0.001721
-0.004858
0.006222
-0.014709
0.006469
-0.006277
-0.006522
-0.003350
-0.002450
-0.005449
0.007103
0.004170
-0.000687
0.007636
-0.015356
-0.009924
0.002860
-0.000316
-0.008589
0.000539
-0.015318
-0.009000
0.000038
-0.009656
-0.000262
-0.011259
-0.010442
0.002295
-0.001881
-0.014687
0.002148
0.005639
-0.012684
0.004587
-0.007260
-0.002816
-0.014687
-0.013721