# vtk DataFile Version 2.0
Test
ASCII
DATASET POLYDATA
POINTS 5510 float
0.000000 0.000000 0.000000
0.080000 0.000000 0.000000
0.080000 0.160000 0.000000
0.000000 0.160000 0.000000
0.035000 0.076250 0.000000
0.046500 0.083750 0.000000
0.002000 0.000000 0.000000
0.004000 0.000000 0.000000
0.006000 0.000000 0.000000
0.008000 0.000000 0.000000
0.010000 0.000000 0.000000
0.012000 0.000000 0.000000
0.014000 0.000000 0.000000
0.016000 0.000000 0.000000
0.018000 0.000000 0.000000
0.020000 0.000000 0.000000
0.022000 0.000000 0.000000
0.024000 0.000000 0.000000
0.026000 0.000000 0.000000
0.028000 0.000000 0.000000
0.030000 0.000000 0.000000
0.032000 0.000000 0.000000
0.034000 0.000000 0.000000
0.036000 0.000000 0.000000
0.038000 0.000000 0.000000
0.040000 0.000000 0.000000
0.042000 0.000000 0.000000
0.044000 0.000000 0.000000
0.046000 0.000000 0.000000
0.048000 0.000000 0.000000
0.050000 0.000000 0.000000
0.052000 0.000000 0.000000
0.054000 0.000000 0.000000
0.056000 0.000000 0.000000
0.058000 0.000000 0.000000
0.060000 0.000000 0.000000
0.062000 0.000000 0.000000
0.064000 0.000000 0.000000
0.066000 0.000000 0.000000
0.068000 0.000000 0.000000
0.070000 0.000000 0.000000
0.072000 0.000000 0.000000
0.074000 0.000000 0.000000
0.076000 0.000000 0.000000
0.078000 0.000000 0.000000
0.080000 0.002000 0.000000
0.080000 0.004000 0.000000
0.080000 0.006000 0.000000
0.080000 0.008000 0.000000
0.080000 0.010000 0.000000
0.080000 0.012000 0.000000
0.080000 0.014000 0.000000
0.080000 0.016000 0.000000
0.080000 0.018000 0.000000
0.080000 0.020000 0.000000
0.080000 0.022000 0.000000
0.080000 0.024000 0.000000
0.080000 0.026000 0.000000
0.080000 0.028000 0.000000
0.080000 0.030000 0.000000
0.080000 0.032000 0.000000
0.080000 0.034000 0.000000
0.080000 0.036000 0.000000
0.080000 0.038000 0.000000
0.080000 0.040000 0.000000
0.080000 0.042000 0.000000
0.080000 0.044000 0.000000
0.080000 0.046000 0.000000
0.080000 0.048000 0.000000
0.080000 0.050000 0.000000
0.080000 0.052000 0.000000
0.080000 0.054000 0.000000
0.080000 0.056000 0.000000
0.080000 0.058000 0.000000
0.080000 0.060000 0.000000
0.080000 0.062000 0.000000
0.080000 0.064000 0.000000
0.080000 0.066000 0.000000
0.080000 0.068000 0.000000
0.080000 0.070000 0.000000
0.080000 0.072000 0.000000
0.080000 0.074000 0.000000
0.080000 0.076000 0.000000
0.080000 0.078000 0.000000
0.080000 0.080000 0.000000
0.080000 0.082000 0.000000
0.080000 0.084000 0.000000
0.080000 0.086000 0.000000
0.080000 0.088000 0.000000
0.080000 0.090000 0.000000
0.080000 0.092000 0.000000
0.080000 0.094000 0.000000
0.080000 0.096000 0.000000
0.080000 0.098000 0.000000
0.080000 0.100000 0.000000
0.080000 0.102000 0.000000
0.080000 0.104000 0.000000
0.080000 0.106000 0.000000
0.080000 0.108000 0.000000
0.080000 0.110000 0.000000
0.080000 0.112000 0.000000
0.080000 0.114000 0.000000
0.080000 0.116000 0.000000
0.080000 0.118000 0.000000
0.080000 0.120000 0.000000
0.080000 0.122000 0.000000
0.080000 0.124000 0.000000
0.080000 0.126000 0.000000
0.080000 0.128000 0.000000
0.080000 0.130000 0.000000
0.080000 0.132000 0.000000
0.080000 0.134000 0.000000
0.080000 0.136000 0.000000
0.080000 0.138000 0.000000
0.080000 0.140000 0.000000
0.080000 0.142000 0.000000
0.080000 0.144000 0.000000
0.080000 0.146000 0.000000
0.080000 0.148000 0.000000
0.080000 0.150000 0.000000
0.080000 0.152000 0.000000
0.080000 0.154000 0.000000
0.080000 0.156000 0.000000
0.080000 0.158000 0.000000
0.078000 0.160000 0.000000
0.076000 0.160000 0.000000
0.074000 0.160000 0.000000
0.072000 0.160000 0.000000
0.070000 0.160000 0.000000
0.068000 0.160000 0.000000
0.066000 0.160000 0.000000
0.064000 0.160000 0.000000
0.062000 0.160000 0.000000
0.060000 0.160000 0.000000
0.058000 0.160000 0.000000
0.056000 0.160000 0.000000
0.054000 0.160000 0.000000
0.052000 0.160000 0.000000
0.050000 0.160000 0.000000
0.048000 0.160000 0.000000
0.046000 0.160000 0.000000
0.044000 0.160000 0.000000
0.042000 0.160000 0.000000
0.040000 0.160000 0.000000
0.038000 0.160000 0.000000
0.036000 0.160000 0.000000
0.034000 0.160000 0.000000
0.032000 0.160000 0.000000
0.030000 0.160000 0.000000
0.028000 0.160000 0.000000
0.026000 0.160000 0.000000
0.024000 0.160000 0.000000
0.022000 0.160000 0.000000
0.020000 0.160000 0.000000
0.018000 0.160000 0.000000
0.016000 0.160000 0.000000
0.014000 0.160000 0.000000
0.012000 0.160000 0.000000
0.010000 0.160000 0.000000
0.008000 0.160000 0.000000
0.006000 0.160000 0.000000
0.004000 0.160000 0.000000
0.002000 0.160000 0.000000
0.000000 0.158000 0.000000
0.000000 0.156000 0.000000
0.000000 0.154000 0.000000
0.000000 0.152000 0.000000
0.000000 0.150000 0.000000
0.000000 0.148000 0.000000
0.000000 0.146000 0.000000
0.000000 0.144000 0.000000
0.000000 0.142000 0.000000
0.000000 0.140000 0.000000
0.000000 0.138000 0.000000
0.000000 0.136000 0.000000
0.000000 0.134000 0.000000
0.000000 0.132000 0.000000
0.000000 0.130000 0.000000
0.000000 0.128000 0.000000
0.000000 0.126000 0.000000
0.000000 0.124000 0.000000
0.000000 0.122000 0.000000
0.000000 0.120000 0.000000
0.000000 0.118000 0.000000
0.000000 0.116000 0.000000
0.000000 0.114000 0.000000
0.000000 0.112000 0.000000
0.000000 0.110000 0.000000
0.000000 0.108000 0.000000
0.000000 0.106000 0.000000
0.000000 0.104000 0.000000
0.000000 0.102000 0.000000
0.000000 0.100000 0.000000
0.000000 0.098000 0.000000
0.000000 0.096000 0.000000
0.000000 0.094000 0.000000
0.000000 0.092000 0.000000
0.000000 0.090000 0.000000
0.000000 0.088000 0.000000
0.000000 0.086000 0.000000
0.000000 0.084000 0.000000
0.000000 0.082000 0.000000
0.000000 0.080000 0.000000
0.000000 0.078000 0.000000
0.000000 0.076000 0.000000
0.000000 0.074000 0.000000
0.000000 0.072000 0.000000
0.000000 0.070000 0.000000
0.000000 0.068000 0.000000
0.000000 0.066000 0.000000
0.000000 0.064000 0.000000
0.000000 0.062000 0.000000
0.000000 0.060000 0.000000
0.000000 0.058000 0.000000
0.000000 0.056000 0.000000
0.000000 0.054000 0.000000
0.000000 0.052000 0.000000
0.000000 0.050000 0.000000
0.000000 0.048000 0.000000
0.000000 0.046000 0.000000
0.000000 0.044000 0.000000
0.000000 0.042000 0.000000
0.000000 0.040000 0.000000
0.000000 0.038000 0.000000
0.000000 0.036000 0.000000
0.000000 0.034000 0.000000
0.000000 0.032000 0.000000
0.000000 0.030000 0.000000
0.000000 0.028000 0.000000
0.000000 0.026000 0.000000
0.000000 0.024000 0.000000
0.000000 0.022000 0.000000
0.000000 0.020000 0.000000
0.000000 0.018000 0.000000
0.000000 0.016000 0.000000
0.000000 0.014000 0.000000
0.000000 0.012000 0.000000
0.000000 0.010000 0.000000
0.000000 0.008000 0.000000
0.000000 0.006000 0.000000
0.000000 0.004000 0.000000
0.000000 0.002000 0.000000
0.035411 0.076518 0.000000
0.035821 0.076786 0.000000
0.036232 0.077054 0.000000
0.036643 0.077321 0.000000
0.037054 0.077589 0.000000
0.037464 0.077857 0.000000
0.037875 0.078125 0.000000
0.038286 0.078393 0.000000
0.038696 0.078661 0.000000
0.039107 0.078929 0.000000
0.039518 0.079196 0.000000
0.039929 0.079464 0.000000
0.040339 0.079732 0.000000
0.040750 0.080000 0.000000
0.041161 0.080268 0.000000
0.041571 0.080536 0.000000
0.041982 0.080804 0.000000
0.042393 0.081071 0.000000
0.042804 0.081339 0.000000
0.043214 0.081607 0.000000
0.043625 0.081875 0.000000
0.044036 0.082143 0.000000
0.044446 0.082411 0.000000
0.044857 0.082679 0.000000
0.045268 0.082946 0.000000
0.045679 0.083214 0.000000
0.046089 0.083482 0.000000
0.040000 0.002000 0.000000
0.040001 0.158005 0.000000
0.002000 0.116000 0.000000
0.078000 0.048000 0.000000
0.002000 0.106000 0.000000
0.078000 0.058000 0.000000
0.001986 0.042173 0.000000
0.078015 0.117826 0.000000
0.001985 0.094174 0.000000
0.001985 0.084174 0.000000
0.001914 0.056074 0.000000
0.002000 0.072000 0.000000
0.078015 0.065826 0.000000
0.078016 0.075826 0.000000
0.078000 0.088000 0.000000
0.078000 0.104000 0.000000
0.078003 0.029997 0.000000
0.001998 0.130002 0.000000
0.002000 0.032000 0.000000
0.078013 0.128003 0.000000
0.056000 0.158000 0.000000
0.026000 0.002000 0.000000
0.060000 0.002000 0.000000
0.020000 0.158000 0.000000
0.002000 0.020000 0.000000
0.078000 0.142000 0.000000
0.002000 0.146000 0.000000
0.078000 0.020000 0.000000
0.016000 0.002000 0.000000
0.068000 0.002000 0.000000
0.066000 0.158000 0.000000
0.002000 0.014000 0.000000
0.008000 0.158000 0.000000
0.010000 0.002000 0.000000
0.078000 0.148000 0.000000
0.078000 0.008000 0.000000
0.078005 0.037995 0.000000
0.051991 0.001990 0.000000
0.028000 0.158000 0.000000
0.002000 0.008000 0.000000
0.078000 0.094000 0.000000
0.078000 0.110000 0.000000
0.001983 0.066159 0.000000
0.002000 0.050000 0.000000
0.046000 0.158000 0.000000
0.078000 0.134000 0.000000
0.002000 0.140000 0.000000
0.006000 0.002000 0.000000
0.002000 0.154000 0.000000
0.074000 0.002000 0.000000
0.078000 0.152000 0.000000
0.074000 0.158000 0.000000
0.078000 0.080000 0.000000
0.078000 0.070000 0.000000
0.078000 0.122000 0.000000
0.002000 0.090000 0.000000
0.002000 0.080000 0.000000
0.002000 0.038000 0.000000
0.002000 0.102000 0.000000
0.002000 0.112000 0.000000
0.036000 0.002000 0.000000
0.078000 0.042000 0.000000
0.032000 0.002000 0.000000
0.047987 0.001989 0.000000
0.032008 0.158010 0.000000
0.002000 0.028000 0.000000
0.002000 0.126000 0.000000
0.060000 0.158000 0.000000
0.022000 0.002000 0.000000
0.002000 0.136000 0.000000
0.078000 0.024000 0.000000
0.012000 0.158000 0.000000
0.078000 0.158000 0.000000
0.001947 0.003947 0.000000
0.002000 0.158000 0.000000
0.078000 0.012000 0.000000
0.078000 0.096000 0.000000
0.078000 0.098000 0.000000
0.078000 0.082000 0.000000
0.078111 0.099889 0.000000
0.078035 0.083965 0.000000
0.078000 0.090000 0.000000
0.078000 0.106000 0.000000
0.078000 0.072000 0.000000
0.078000 0.112000 0.000000
0.078043 0.061976 0.000000
0.078000 0.114000 0.000000
0.002000 0.064000 0.000000
0.002000 0.062000 0.000000
0.002000 0.088000 0.000000
0.002000 0.078000 0.000000
0.002000 0.060000 0.000000
0.001966 0.076034 0.000000
0.002000 0.070000 0.000000
0.002000 0.054000 0.000000
0.001957 0.098024 0.000000
0.002000 0.048000 0.000000
0.002000 0.046000 0.000000
[...]
POINT_DATA 5510
SCALARS UX float 1
LOOKUP_TABLE default
-0.007541
0.022964
0.000001
-0.029902
-0.005408
-0.001041
-0.006777
-0.006011
-0.005246
-0.004480
-0.003715
-0.002949
-0.002183
-0.001418
-0.000653
0.000111
0.000875
0.001638
0.002400
0.003162
0.003923
0.004683
0.005443
0.006202
0.006960
0.007719
0.008477
0.009234
0.009992
0.010750
0.011507
0.012266
0.013024
0.013783
0.014543
0.015303
0.016065
0.016827
0.017591
0.018355
0.019121
0.019887
0.020655
0.021424
0.022194
0.022693
0.022423
0.022155
0.021887
0.021621
0.021355
0.021091
0.020828
0.020565
0.020304
0.020043
0.019785
0.019527
0.019272
0.019018
0.018766
0.018515
0.018266
0.018019
0.017773
0.017527
0.017282
0.017038
0.016794
0.016550
0.016305
0.016058
0.015809
0.015557
0.015303
0.015046
0.014787
0.014525
0.014259
0.013990
0.013721
0.013445
0.013166
0.012884
0.012596
0.012305
0.012007
0.011700
0.011384
0.011062
0.010723
0.010374
0.010019
0.009653
0.009279
0.008909
0.008544
0.008182
0.007836
0.007502
0.007181
0.006864
0.006565
0.006271
0.005983
0.005702
0.005423
0.005150
0.004879
0.004609
0.004341
0.004074
0.003808
0.003542
0.003277
0.003012
0.002747
0.002484
0.002222
0.001960
0.001701
0.001440
0.001152
0.000744
-0.000006
-0.000804
-0.001598
-0.002385
-0.003162
-0.003937
-0.004709
-0.005480
-0.006249
-0.007017
-0.007783
-0.008548
-0.009312
-0.010076
-0.010839
-0.011600
-0.012360
-0.013120
-0.013880
-0.014639
-0.015397
-0.016156
-0.016914
-0.017672
-0.018431
-0.019189
-0.019949
-0.020708
-0.021468
-0.022229
-0.022992
-0.023755
-0.024519
-0.025285
-0.026052
-0.026819
-0.027589
-0.028359
-0.029130
-0.029630
-0.029360
-0.029090
-0.028824
-0.028558
-0.028293
-0.028029
-0.027767
-0.027506
-0.027246
-0.026987
-0.026730
-0.026473
-0.026219
-0.025966
-0.025715
-0.025466
-0.025217
-0.024970
-0.024724
-0.024479
-0.024234
-0.023989
-0.023743
-0.023498
-0.023250
-0.023001
-0.022750
-0.022496
-0.022240
-0.021981
-0.021720
-0.021456
-0.021189
-0.020919
-0.020648
-0.020371
-0.020092
-0.019810
-0.019522
-0.019232
-0.018935
-0.018629
-0.018316
-0.017999
-0.017666
-0.017324
-0.016974
-0.016619
-0.016253
-0.015888
-0.015527
-0.015168
-0.014822
-0.014486
-0.014153
-0.013843
-0.013539
-0.013240
-0.012948
-0.012663
-0.012380
-0.012104
-0.011831
-0.011560
-0.011290
-0.011020
-0.010753
-0.010486
-0.010219
-0.009953
-0.009686
-0.009419
-0.009152
-0.008885
-0.008617
-0.008349
-0.008080
-0.007811
-0.005236
-0.005066
-0.004830
-0.004601
-0.004420
-0.004289
-0.004146
-0.003989
-0.003885
-0.003731
-0.003599
-0.003492
-0.003348
-0.003204
-0.003033
-0.002869
-0.002706
-0.002541
-0.002391
-0.002280
-0.002161
-0.002047
-0.001910
-0.001781
-0.001621
-0.001440
-0.001267
0.007451
-0.014371
-0.023455
0.016017
-0.022234
0.014794
-0.012480
0.005512
-0.020732
-0.019374
-0.014769
-0.017560
0.013800
0.012449
0.010628
0.007733
0.018238
-0.025186
-0.011055
0.004107
-0.008278
0.002131
0.015035
-0.021961
-0.009451
0.002242
-0.027254
0.019528
-0.001688
0.018085
-0.004441
-0.008653
-0.026548
-0.003985
0.001450
0.021115
0.017238
0.011996
-0.018922
-0.007852
0.009598
0.006698
-0.016583
-0.013679
-0.012092
0.003302
-0.026468
-0.005516
-0.028318
0.020383
0.000921
-0.001359
0.011850
0.013242
0.004918
-0.020170
-0.018774
-0.011877
-0.021735
-0.022969
0.005933
0.016745
0.004414
0.010479
-0.017403
-0.010516
-0.024684
-0.006746
0.000605
-0.025950
0.019005
-0.025014
0.000047
-0.007329
-0.028857
0.020583
0.009233
0.008857
0.011557
0.008544
0.011273
0.010295
0.007376
0.012971
0.006377
0.014308
0.006070
-0.016193
-0.015826
-0.019898
-0.018482
-0.015456
-0.018199
-0.017233
-0.014365
-0.021244
-0.013356
-0.013046
0.015289
0.016512
0.015775
-0.022725
-0.023943
0.004644
-0.011600
0.008967
-0.015888
-0.013612
0.017736
-0.011331
-0.010569
-0.024436
0.003654
0.013515
-0.020440
-0.010249
0.003839
0.003037
-0.009983
0.002772
-0.025694
-0.009806
0.018748
-0.026992
-0.005979
-0.000159
0.016558
-0.023485
0.001978
0.020054
-0.027785
-0.009185
-0.008386
-0.003669
-0.002454
-0.002899
0.000656
-0.028086
-0.006326
-0.007151
0.021651
0.019616
0.021921
-0.022212
0.015258
-0.019440
-0.018061
-0.016817
-0.014711
-0.012902
0.011140
0.009886
0.007788
0.012513
0.005633
-0.014093
-0.023667
0.003331
-0.011113
0.004142
-0.009544
-0.009746
0.002004
0.000336
-0.025173
0.018229
-0.006479
-0.008418
-0.001958
-0.026481
-0.003412
0.006949
0.015778
-0.007886
0.000144
0.020113
0.010572
0.008107
0.008836
-0.017496
-0.015077
-0.015790
-0.012303
0.010006
0.010997
0.008166
0.012195
0.012720
0.007083
0.013563
0.005796
-0.016950
-0.019645
-0.017924
-0.020493
-0.015112
-0.019118
-0.014042
-0.012769
0.014052
-0.020986
0.014562
-0.021501
0.015061
0.005266
-0.022003
-0.012230
0.015550
-0.022498
-0.023249
0.016273
-0.023711
0.016998
-0.024196
0.008204
-0.015125
0.006689
-0.012849
0.009720
-0.016642
0.004383
-0.011337
0.017487
0.005172
0.011236
-0.018160
-0.011057
0.012754
-0.019679
-0.024934
-0.010788
0.003571
0.017985
-0.009480
0.002893
0.002532
-0.009043
0.014274
-0.021199
-0.009718
0.002508
-0.025438
0.018491
-0.026209
-0.007513
0.001368
-0.026730
0.019266
-0.005210
-0.000923
-0.022722
0.015796
-0.024249
0.017321
0.001714
-0.008919
-0.025781
0.019790
-0.027519
0.001187
0.020317
-0.008119
-0.003219
-0.028051
-0.002128
0.020848
0.000371
-0.004750
-0.007584
-0.027316
-0.006550
0.018850
-0.000613
-0.027815
-0.028586
0.021383
0.020882
0.021152
-0.020824
0.013884
-0.014024
0.009451
0.007050
-0.008980
-0.017906
0.012494
-0.020933
0.015527
0.019545
-0.023979
0.000944
0.016726
0.006445
-0.025510
-0.027279
0.009249
0.005049
-0.016193
0.013398
0.012808
-0.020331
-0.019737
0.011988
0.011444
-0.018911
-0.018364
0.014377
-0.021321
0.004479
-0.010566
-0.016373
-0.010017
0.017205
0.002802
-0.024161
0.002623
0.001098
-0.001193
0.017051
-0.025955
-0.025432
-0.003488
-0.007354
-0.026746
0.019017
0.018490
-0.001887
-0.000134
0.020078
0.019844
0.009548
0.010214
-0.016484
0.007400
-0.017139
0.005389
-0.014324
-0.013265
0.015542
0.012256
-0.019180
-0.012017
-0.011413
-0.022476
-0.022945
0.006246
0.006607
0.014792
0.015023
-0.021741
-0.021974
-0.014882
0.008501
0.010860
-0.023425
-0.015453
-0.017782
0.005947
0.016231
0.015997
-0.012620
-0.010842
0.003609
0.010968
0.004920
-0.011810
0.007961
-0.012602
0.003069
-0.023918
-0.019416
-0.008785
0.003382
0.017713
0.017970
-0.024660
-0.024916
0.001738
0.014008
-0.009217
-0.008683
-0.010301
0.002270
-0.000427
-0.013349
-0.007244
-0.022454
-0.004945
-0.005713
-0.004178
-0.026217
-0.002723
0.018580
-0.008153
-0.007620
-0.005019
0.019346
-0.002648
-0.005785
0.020613
0.000413
-0.000414
-0.027546
-0.006819
-0.027045
-0.010660
0.015258
-0.021121
0.004579
-0.017660
-0.019052
-0.015825
-0.013021
0.012131
0.010767
0.008822
-0.022685
0.002852
-0.009277
0.004629
0.016943
0.001505
-0.023888
0.000828
-0.005450
-0.007915
-0.001461
-0.025181
-0.006854
-0.012539
-0.013665
0.005576
-0.002398
0.009622
-0.016574
-0.011304
0.014845
0.007787
-0.014763
-0.009252
-0.010087
-0.023151
0.003113
-0.002991
0.001209
-0.025709
-0.000358
0.006624
0.008527
0.005237
-0.015490
0.011724
0.013088
-0.018645
-0.020020
0.013632
-0.020569
-0.022707
0.010157
0.007342
-0.014370
0.014135
-0.021077
-0.011760
-0.017076
0.004705
-0.023165
-0.013913
-0.013423
-0.012295
-0.014573
-0.017118
0.011613
-0.018535
0.016479
-0.021507
-0.011900
0.014559
0.011716
0.005668
0.007188
0.010195
0.004174
0.003894
0.016969
-0.010292
0.014316
-0.008009
0.017461
-0.018660
-0.024409
0.001235
0.002307
-0.010789
0.001859
-0.008953
-0.021271
-0.021767
0.013251
-0.020174
0.017201
0.017716
-0.008719
-0.024145
-0.024658
-0.006977
-0.004683
0.002034
0.014767
-0.021693
-0.025693
-0.000694
-0.015624
0.018752
-0.007385
0.001474
-0.023216
0.016288
-0.003920
0.017815
0.019280
0.019076
-0.004254
0.000679
-0.027012
0.019811
-0.006053
-0.024744
0.019575
0.020344
-0.007086
-0.000899
-0.001142
-0.026776
-0.026277
0.008704
0.005897
-0.020395
-0.014836
-0.013339
0.007925
-0.012091
-0.023126
0.001548
0.009186
0.016181
-0.008493
-0.017640
0.012228
0.016019
-0.005186
-0.020666
-0.000966
0.018509
0.013358
-0.022948
0.018808
-0.024475
0.006691
-0.020300
0.015964
0.000738
-0.013343
0.010945
-0.017962
-0.019792
-0.019227
0.012853
0.012300
0.006179
-0.023643
-0.007747
-0.008187
0.001588
0.017980
0.000708
-0.006588
-0.026008
-0.012771
0.011405
-0.018330
-0.010936
0.004966
-0.016297
0.009246
0.004894
-0.020602
0.013643
0.014164
-0.013784
0.015036
-0.020911
-0.022234
-0.021974
-0.022454
0.010427
-0.017346
0.009775
0.003118
0.003747
-0.016721
0.005376
-0.016107
-0.015310
0.008099
-0.015049
0.011843
-0.018767
0.006238
-0.010368
0.016690
0.015493
-0.012198
0.010699
0.004317
-0.023395
-0.022912
0.007672
-0.008521
-0.021488
-0.008456
0.002353
0.002577
0.003864
-0.018399
-0.009522
-0.009810
0.014528
-0.011612
0.017457
0.012985
-0.010033
0.016203
-0.011541
-0.024399
-0.024919
0.001773
0.000973
-0.007960
-0.021425
0.014499
-0.007652
0.000067
0.017545
-0.006214
-0.002226
-0.004424
-0.007121
-0.019152
0.000441
-0.000091
0.018311
0.019041
0.019308
-0.004522
-0.003756
-0.006321
-0.005288
-0.025445
-0.003159
-0.025975
-0.026508
-0.013829
-0.001647
-0.000628
0.014520
0.012727
-0.017662
-0.016534
-0.011227
-0.012991
0.010743
0.009649
0.005861
-0.017387
0.011968
-0.020402
-0.008259
-0.004925
-0.024150
-0.006888
-0.021541
-0.000055
-0.009916
0.002845
0.013437
0.011542
-0.018462
-0.006355
-0.002493
-0.004024
-0.024939
-0.025739
-0.014307
0.007521
0.005929
0.008927
0.008166
-0.015895
-0.015121
-0.014473
0.014141
0.005212
-0.011868
0.015942
0.001011
0.010121
0.001320
0.016690
-0.000204
-0.005822
-0.000857
-0.002147
-0.012826
-0.021944
-0.022403
-0.022883
0.007076
0.006371
-0.021304
0.004564
0.003901
-0.014097
0.012545
-0.019477
-0.020130
-0.019678
-0.020030
0.013089
0.013967
0.004036
0.003437
0.010948
-0.017863
-0.012981
-0.011353
-0.010519
-0.009622
-0.015107
0.001813
0.002382
-0.009044
-0.016878
-0.020565
-0.010641
0.015730
0.011466
-0.007474
0.009943
0.001281
0.008414
-0.007698
0.013595
0.016437
0.004351
-0.021019
-0.023633
-0.023380
-0.008771
0.018244
-0.019906
0.013741
-0.008225
0.000476
-0.001730
0.017212
-0.006711
-0.005948
-0.009767
0.016440
-0.018136
-0.022185
0.016781
-0.024412
0.015258
-0.007420
0.000176
0.018042
0.018273
0.018775
-0.003664
-0.023711
-0.001391
0.018540
-0.004790
-0.005555
-0.025240
-0.026241
0.006923
-0.017008
-0.013027
0.011103
-0.018023
-0.009181
-0.019502
0.012722
-0.014483
-0.017112
0.007219
0.010149
-0.011830
0.001074
-0.007740
-0.022131
-0.017126
0.015180
-0.000015
-0.000472
0.014232
-0.023385
-0.014111
-0.006938
-0.022679
0.006495
0.003333
-0.018900
-0.019431
0.011966
0.012474
0.012869
-0.010253
-0.007968
0.002692
0.007406
0.014976
0.008921
-0.022618
0.015676
-0.019650
-0.001997
-0.000590
0.015750
0.017276
-0.025472
-0.013293
-0.017388
0.010448
0.003675
0.008537
0.009291
-0.015441
-0.010247
-0.016173
-0.018565
0.011635
0.004291
0.014303
0.013139
0.005563
-0.012699
0.004302
-0.011504
-0.012646
-0.014169
-0.009348
0.011211
0.002114
-0.018132
-0.019698
-0.019848
0.006605
0.015453
-0.022644
0.015693
0.011211
0.005702
-0.010914
0.000526
0.014747
0.009843
0.009691
-0.008283
-0.020775
-0.022159
-0.018886
0.002078
0.000213
0.017476
0.018008
-0.006445
0.000555
-0.007468
-0.023892
-0.016632
-0.015860
0.005099
-0.006622
0.013799
-0.005684
-0.000323
0.016949
-0.009013
-0.024674
-0.004166
-0.007154
-0.003259
-0.023442
-0.024972
-0.004291
0.012719
-0.025205
-0.021157
0.017507
0.017774
-0.006089
-0.001887
-0.001125
-0.005057
-0.002904
0.003598
-0.013569
-0.021719
-0.016731
-0.017384
-0.012097
-0.013532
0.010309
0.007283
-0.019167
0.012228
0.006044
0.009232
0.013776
-0.018946
0.011596
-0.010844
-0.013838
-0.011947
0.007074
-0.006994
0.003331
0.010954
-0.020852
-0.006180
0.016452
-0.020134
-0.006124
-0.018536
-0.017856
0.010930
-0.000815
0.017242
-0.022413
-0.023908
-0.016375
0.009540
0.003491
0.013412
0.009017
0.008299
0.007741
0.012056
0.012517
-0.008568
-0.013376
-0.015937
-0.021215
-0.008719
-0.023125
0.001810
0.000286
-0.004665
-0.003527
-0.002646
0.005585
-0.016866
0.009958
-0.015208
-0.012602
0.006873
0.005226
0.004495
-0.009590
-0.010082
-0.019062
0.003838
-0.019279
-0.012005
-0.012405
0.002979
-0.008884
-0.013830
-0.012410
0.010537
-0.010992
0.001368
-0.017478
0.003020
-0.012567
0.001978
-0.015630
-0.014849
-0.021659
0.014703
0.006038
-0.009507
0.000803
0.010444
-0.007209
0.013998
-0.019873
0.008149
-0.022368
0.012878
-0.022871
0.015423
-0.018632
-0.017872
-0.020311
-0.008052
-0.007202
0.000260
0.015207
0.013474
-0.017251
0.010337
-0.005857
-0.004559
-0.021892
-0.001236
-0.001087
-0.001622
-0.021914
-0.023646
-0.002760
0.016511
0.017741
-0.000278
-0.010181
0.015932
-0.003407
0.014990
0.016746
-0.024705
-0.005590
-0.006664
0.017011
-0.005323
-0.024206
0.004087
-0.024437
0.011701
0.014936
-0.016382
-0.011532
0.006702
0.005513
-0.018309
0.011374
0.003390
0.008753
-0.014749
-0.008782
0.013028
-0.017643
0.010708
-0.016248
0.006984
0.009397
0.005367
-0.013041
0.000637
-0.020935
-0.010035
-0.016124
0.003820
0.014187
-0.021863
0.010690
0.000018
-0.000491
-0.006188
-0.022625
0.010192
-0.017112
-0.005362
-0.001582
0.014919
-0.002263
0.013964
0.016480
0.014472
-0.017623
-0.021651
0.016977
-0.003795
-0.004825
-0.023675
0.006015
-0.014139
0.011018
-0.017948
0.007948
-0.009433
0.008129
-0.015458
-0.020544
-0.018418
0.012280
0.013570
-0.018858
-0.011684
0.004879
-0.018711
-0.011272
0.009234
0.011839
0.001665
0.002657
0.002251
0.008631
-0.010871
-0.021443
-0.013849
0.007808
-0.013194
-0.013490
0.014223
0.000055
-0.014634
-0.016116
-0.020995
-0.009206
0.009425
-0.019052
0.006586
0.010190
0.009565
-0.016468
0.012044
-0.016685
-0.007328
-0.007985
-0.021379
0.004831
-0.000542
-0.022116
-0.007691
0.014429
-0.020077
0.002573
0.016190
0.013076
0.001042
-0.020889
0.016714
-0.006935
0.016242
-0.000741
-0.006396
-0.022884
-0.005421
-0.002384
-0.023174
-0.001029
0.014725
-0.006726
-0.001353
0.009699
-0.010507
-0.019384
-0.003148
-0.003908
-0.023941
-0.024172
0.012450
0.004833
-0.008471
0.006330
0.009944
-0.016860
-0.011875
0.003734
-0.011569
0.008684
-0.012792
-0.012271
0.011164
-0.018096
0.007808
-0.009728
0.002812
-0.014944
0.003871
-0.015503
-0.008065
-0.018247
-0.016515
-0.015324
0.009595
-0.013551
-0.011320
0.006317
-0.012869
-0.006561
-0.009696
0.013435
-0.021120
-0.000252
-0.006669
0.002231
-0.021868
-0.019868
-0.021389
0.006800
-0.012654
0.013702
-0.010905
-0.017866
0.010570
-0.017505
0.012727
-0.010179
0.013499
0.008885
0.002300
-0.004403
-0.005638
0.000772
-0.011338
0.015431
-0.004062
-0.002877
-0.023409
-0.022913
-0.009502
0.013949
-0.014868
0.001910
-0.018455
0.003183
0.012842
0.010339
-0.017273
-0.017989
0.011230
0.011443
-0.007682
0.004193
0.008477
-0.010585
-0.015762
0.011901
0.000936
-0.020508
-0.020184
-0.019836
-0.016017
0.007731
0.013253
-0.013661
0.000346
0.009110
-0.006465
0.009936
0.005067
-0.001299
0.009750
-0.016653
-0.013204
0.008422
-0.021157
-0.019193
0.012176
-0.005912
-0.016865
-0.011985
-0.000214
0.010935
0.003061
0.015174
-0.019609
0.016217
-0.001847
-0.008445
0.013204
-0.021621
-0.005916
-0.003032
-0.023145
-0.005096
0.014669
-0.002116
-0.000762
0.015985
-0.022365
-0.006257
0.005320
0.004566
-0.001503
0.004536
0.015693
-0.018369
0.015481
0.011434
0.006239
-0.020712
0.003895
-0.012306
-0.015383
0.008189
0.007630
-0.008122
0.005697
0.001555
-0.014415
0.007211
-0.009018
0.003302
0.008378
-0.020829
-0.010379
-0.018136
0.012049
-0.017405
0.010329
-0.015662
-0.012958
0.007897
0.008811
0.004474
-0.012699
0.000224
-0.019834
0.007267
0.004296
-0.005830
0.010423
-0.016622
0.014167
-0.000958
-0.006405
-0.005444
-0.001780
-0.017268
-0.019141
-0.010159
0.003570
0.005384
-0.007327
0.012587
0.013204
-0.012143
-0.020208
0.002833
0.003078
0.000502
0.007549
-0.004885
-0.001769
0.014675
0.002782
0.012942
-0.021612
-0.003302
0.015226
0.006610
-0.008806
0.009626
-0.016555
-0.012748
0.011657
-0.010541
-0.006899
0.001291
0.008993
0.009366
-0.015896
-0.016278
-0.015449
-0.011178
-0.020343
-0.015417
-0.011361
-0.000391
0.008338
0.009972
-0.016911
-0.018379
-0.020653
-0.002057
-0.002609
0.003943
-0.011617
0.009163
-0.020880
0.005997
-0.012226
0.002560
0.012185
-0.021368
0.001527
-0.019390
-0.015127
-0.017792
0.015955
-0.022649
-0.011293
-0.020621
-0.003638
0.014456
-0.007419
0.012361
-0.008932
0.015461
-0.022145
-0.001011
-0.019115
0.013678
0.015722
-0.004332
-0.005160
-0.001230
-0.005990
-0.022126
-0.017362
-0.007767
-0.009835
0.008652
0.006063
0.013723
-0.014393
0.005148
-0.013792
-0.014485
0.002051
0.007412
0.001348
-0.008341
0.002526
-0.020159
-0.014970
-0.017881
0.011261
-0.008224
-0.014948
-0.010767
0.006046
0.004794
0.008292
0.003269
0.012460
-0.013222
-0.016363
-0.019924
-0.020621
-0.001688
0.000236
-0.010208
-0.002532
0.012681
0.011001
-0.012071
-0.020354
-0.004897
-0.014757
-0.010820
-0.010802
0.000589
0.007116
-0.021116
-0.007154
-0.003365
-0.021892
-0.003572
0.015199
-0.001276
0.012980
-0.014131
-0.007381
-0.009482
-0.012113
0.012010
0.010672
0.000830
0.007910
-0.006141
0.008108
-0.019494
-0.015187
0.004217
-0.017528
-0.017244
0.012358
-0.017596
-0.000073
0.005714
0.009183
-0.016088
-0.005723
-0.011429
-0.020006
0.007629
0.003282
0.006883
0.008905
0.005735
0.004748
0.008553
-0.018525
-0.012669
-0.015858
-0.000670
-0.005163
0.014205
0.014423
0.003538
-0.015937
-0.020425
-0.016995
0.010099
0.009019
0.002015
0.014936
-0.002535
-0.008171
-0.004606
-0.015192
-0.022388
-0.002334
0.011482
0.001250
-0.001503
0.003248
-0.018924
-0.005651
0.014706
0.012686
0.012768
-0.018857
-0.018105
0.005049
-0.005529
-0.009080
-0.008803
0.014965
0.013920
0.011167
-0.020146
0.009682
-0.007469
-0.013960
-0.013414
0.006539
-0.009417
0.002698
-0.019464
-0.019662
0.001580
0.001421
0.002073
0.010726
-0.014308
0.009790
-0.016721
0.001057
-0.016604
0.009726
-0.012416
-0.014478
0.007346
0.005483
-0.012573
0.004785
0.011716
-0.005427
0.007908
0.010158
-0.019206
0.013420
-0.006888
0.011564
-0.016683
-0.019123
-0.018458
-0.004680
0.002397
0.005077
-0.005390
0.006945
0.004118
0.003506
-0.002242
0.011404
-0.015625
-0.002816
0.013954
0.013929
0.014450
0.003264
-0.003093
-0.021634
-0.017851
0.000689
-0.000480
0.001959
0.009257
-0.016190
-0.012408
0.007810
0.008068
-0.010713
-0.014969
0.010819
0.011834
0.012236
-0.009886
0.005408
-0.006607
0.006336
0.000012
0.007020
-0.016834
0.004520
-0.000799
-0.001401
-0.001960
-0.011117
0.011212
-0.019506
0.008471
0.008816
-0.015727
-0.019713
-0.015371
-0.016314
0.009383
-0.014861
-0.017738
-0.004133
-0.011602
-0.002035
-0.021104
-0.004122
-0.020379
-0.018719
-0.002804
-0.021369
-0.003842
0.011917
0.002501
0.000985
-0.010570
0.002968
-0.008659
-0.007897
-0.017103
0.013440
-0.018812
-0.007083
-0.000523
0.005791
-0.020863
-0.005263
0.012927
-0.005110
0.008671
-0.019602
0.011648
-0.017234
-0.007659
-0.014440
-0.013175
-0.009944
-0.014698
-0.013816
-0.013479
0.001885
-0.008268
-0.008832
0.010143
0.009255
-0.016182
-0.011458
0.009530
-0.016199
-0.015624
-0.010459
0.007406
0.003976
-0.000740
-0.012186
-0.004716
0.006873
0.002980
0.000718
-0.016119
-0.002120
-0.014221
0.002685
-0.019880
-0.006703
0.010356
0.010778
-0.011686
-0.010166
0.005739
-0.016648
0.004590
0.007817
-0.013199
-0.002991
-0.003556
-0.019340
-0.020371
-0.001548
-0.003363
0.013700
0.011676
0.011500
0.010953
-0.020887
-0.007589
0.005524
-0.012684
-0.014227
-0.015400
0.001518
0.008484
0.008688
-0.009977
-0.009191
-0.012125
0.007587
-0.014456
0.011180
0.003792
-0.010851
-0.016824
-0.005842
0.007099
-0.011373
0.002694
-0.004648
0.008655
-0.015556
-0.001184
-0.014677
-0.004990
-0.018998
-0.013954
0.010572
-0.018782
-0.014650
-0.013889
0.010031
-0.001099
-0.017873
-0.018249
0.006497
-0.019412
-0.004416
-0.019309
0.014191
0.005204
0.010905
0.013174
0.004020
-0.016445
0.012028
-0.006782
-0.008377
-0.009158
0.009503
-0.016854
0.001742
-0.006136
-0.016981
-0.000035
0.006253
-0.002324
0.011250
-0.018593
0.011947
-0.007635
-0.004807
-0.003846
-0.002407
-0.003088
0.013204
0.009415
0.000197
0.013671
-0.018996
-0.010009
0.007668
0.000770
-0.010627
0.002087
-0.018648
-0.008511
0.001323
-0.012018
0.000975
-0.012170
-0.010938
0.004986
-0.001423
-0.018080
0.006699
0.010765
-0.015869
0.009899
-0.008857
-0.002829
-0.017785
-0.016293
0.000445
-0.006619
0.012670
-0.008524
-0.005168
0.009741
0.006835