# vtk DataFile Version 2.0
Test
ASCII
DATASET POLYDATA
POINTS 5510 float
0.000000 0.000000 0.000000
0.080000 0.000000 0.000000
0.080000 0.160000 0.000000
0.000000 0.160000 0.000000
0.035000 0.076250 0.000000
0.046500 0.083750 0.000000
0.002000 0.000000 0.000000
0.004000 0.000000 0.000000
0.006000 0.000000 0.000000
0.008000 0.000000 0.000000
0.010000 0.000000 0.000000
0.012000 0.000000 0.000000
0.014000 0.000000 0.000000
0.016000 0.000000 0.000000
0.018000 0.000000 0.000000
0.020000 0.000000 0.000000
0.022000 0.000000 0.000000
0.024000 0.000000 0.000000
0.026000 0.000000 0.000000
0.028000 0.000000 0.000000
0.030000 0.000000 0.000000
0.032000 0.000000 0.000000
0.034000 0.000000 0.000000
0.036000 0.000000 0.000000
0.038000 0.000000 0.000000
0.040000 0.000000 0.000000
0.042000 0.000000 0.000000
0.044000 0.000000 0.000000
0.046000 0.000000 0.000000
0.048000 0.000000 0.000000
0.050000 0.000000 0.000000
0.052000 0.000000 0.000000
0.054000 0.000000 0.000000
0.056000 0.000000 0.000000
0.058000 0.000000 0.000000
0.060000 0.000000 0.000000
0.062000 0.000000 0.000000
0.064000 0.000000 0.000000
0.066000 0.000000 0.000000
0.068000 0.000000 0.000000
0.070000 0.000000 0.000000
0.072000 0.000000 0.000000
0.074000 0.000000 0.000000
0.076000 0.000000 0.000000
0.078000 0.000000 0.000000
0.080000 0.002000 0.000000
0.080000 0.004000 0.000000
0.080000 0.006000 0.000000
0.080000 0.008000 0.000000
0.080000 0.010000 0.000000
0.080000 0.012000 0.000000
0.080000 0.014000 0.000000
0.080000 0.016000 0.000000
0.080000 0.018000 0.000000
0.080000 0.020000 0.000000
0.080000 0.022000 0.000000
0.080000 0.024000 0.000000
0.080000 0.026000 0.000000
0.080000 0.028000 0.000000
0.080000 0.030000 0.000000
0.080000 0.032000 0.000000
0.080000 0.034000 0.000000
0.080000 0.036000 0.000000
0.080000 0.038000 0.000000
0.080000 0.040000 0.000000
0.080000 0.042000 0.000000
0.080000 0.044000 0.000000
0.080000 0.046000 0.000000
0.080000 0.048000 0.000000
0.080000 0.050000 0.000000
0.080000 0.052000 0.000000
0.080000 0.054000 0.000000
0.080000 0.056000 0.000000
0.080000 0.058000 0.000000
0.080000 0.060000 0.000000
0.080000 0.062000 0.000000
0.080000 0.064000 0.000000
0.080000 0.066000 0.000000
0.080000 0.068000 0.000000
0.080000 0.070000 0.000000
0.080000 0.072000 0.000000
0.080000 0.074000 0.000000
0.080000 0.076000 0.000000
0.080000 0.078000 0.000000
0.080000 0.080000 0.000000
0.080000 0.082000 0.000000
0.080000 0.084000 0.000000
0.080000 0.086000 0.000000
0.080000 0.088000 0.000000
0.080000 0.090000 0.000000
0.080000 0.092000 0.000000
0.080000 0.094000 0.000000
0.080000 0.096000 0.000000
0.080000 0.098000 0.000000
0.080000 0.100000 0.000000
0.080000 0.102000 0.000000
0.080000 0.104000 0.000000
0.080000 0.106000 0.000000
0.080000 0.108000 0.000000
0.080000 0.110000 0.000000
0.080000 0.112000 0.000000
0.080000 0.114000 0.000000
0.080000 0.116000 0.000000
0.080000 0.118000 0.000000
0.080000 0.120000 0.000000
0.080000 0.122000 0.000000
0.080000 0.124000 0.000000
0.080000 0.126000 0.000000
0.080000 0.128000 0.000000
0.080000 0.130000 0.000000
0.080000 0.132000 0.000000
0.080000 0.134000 0.000000
0.080000 0.136000 0.000000
0.080000 0.138000 0.000000
0.080000 0.140000 0.000000
0.080000 0.142000 0.000000
0.080000 0.144000 0.000000
0.080000 0.146000 0.000000
0.080000 0.148000 0.000000
0.080000 0.150000 0.000000
0.080000 0.152000 0.000000
0.080000 0.154000 0.000000
0.080000 0.156000 0.000000
0.080000 0.158000 0.000000
0.078000 0.160000 0.000000
0.076000 0.160000 0.000000
0.074000 0.160000 0.000000
0.072000 0.160000 0.000000
0.070000 0.160000 0.000000
0.068000 0.160000 0.000000
0.066000 0.160000 0.000000
0.064000 0.160000 0.000000
0.062000 0.160000 0.000000
0.060000 0.160000 0.000000
0.058000 0.160000 0.000000
0.056000 0.160000 0.000000
0.054000 0.160000 0.000000
0.052000 0.160000 0.000000
0.050000 0.160000 0.000000
0.048000 0.160000 0.000000
0.046000 0.160000 0.000000
0.044000 0.160000 0.000000
0.042000 0.160000 0.000000
0.040000 0.160000 0.000000
0.038000 0.160000 0.000000
0.036000 0.160000 0.000000
0.034000 0.160000 0.000000
0.032000 0.160000 0.000000
0.030000 0.160000 0.000000
0.028000 0.160000 0.000000
0.026000 0.160000 0.000000
0.024000 0.160000 0.000000
0.022000 0.160000 0.000000
0.020000 0.160000 0.000000
0.018000 0.160000 0.000000
0.016000 0.160000 0.000000
0.014000 0.160000 0.000000
0.012000 0.160000 0.000000
0.010000 0.160000 0.000000
0.008000 0.160000 0.000000
0.006000 0.160000 0.000000
0.004000 0.160000 0.000000
0.002000 0.160000 0.000000
0.000000 0.158000 0.000000
0.000000 0.156000 0.000000
0.000000 0.154000 0.000000
0.000000 0.152000 0.000000
0.000000 0.150000 0.000000
0.000000 0.148000 0.000000
0.000000 0.146000 0.000000
0.000000 0.144000 0.000000
0.000000 0.142000 0.000000
0.000000 0.140000 0.000000
0.000000 0.138000 0.000000
0.000000 0.136000 0.000000
0.000000 0.134000 0.000000
0.000000 0.132000 0.000000
0.000000 0.130000 0.000000
0.000000 0.128000 0.000000
0.000000 0.126000 0.000000
0.000000 0.124000 0.000000
0.000000 0.122000 0.000000
0.000000 0.120000 0.000000
0.000000 0.118000 0.000000
0.000000 0.116000 0.000000
0.000000 0.114000 0.000000
0.000000 0.112000 0.000000
0.000000 0.110000 0.000000
0.000000 0.108000 0.000000
0.000000 0.106000 0.000000
0.000000 0.104000 0.000000
0.000000 0.102000 0.000000
0.000000 0.100000 0.000000
0.000000 0.098000 0.000000
0.000000 0.096000 0.000000
0.000000 0.094000 0.000000
0.000000 0.092000 0.000000
0.000000 0.090000 0.000000
0.000000 0.088000 0.000000
0.000000 0.086000 0.000000
0.000000 0.084000 0.000000
0.000000 0.082000 0.000000
0.000000 0.080000 0.000000
0.000000 0.078000 0.000000
0.000000 0.076000 0.000000
0.000000 0.074000 0.000000
0.000000 0.072000 0.000000
0.000000 0.070000 0.000000
0.000000 0.068000 0.000000
0.000000 0.066000 0.000000
0.000000 0.064000 0.000000
0.000000 0.062000 0.000000
0.000000 0.060000 0.000000
0.000000 0.058000 0.000000
0.000000 0.056000 0.000000
0.000000 0.054000 0.000000
0.000000 0.052000 0.000000
0.000000 0.050000 0.000000
0.000000 0.048000 0.000000
0.000000 0.046000 0.000000
0.000000 0.044000 0.000000
0.000000 0.042000 0.000000
0.000000 0.040000 0.000000
0.000000 0.038000 0.000000
0.000000 0.036000 0.000000
0.000000 0.034000 0.000000
0.000000 0.032000 0.000000
0.000000 0.030000 0.000000
0.000000 0.028000 0.000000
0.000000 0.026000 0.000000
0.000000 0.024000 0.000000
0.000000 0.022000 0.000000
0.000000 0.020000 0.000000
0.000000 0.018000 0.000000
0.000000 0.016000 0.000000
0.000000 0.014000 0.000000
0.000000 0.012000 0.000000
0.000000 0.010000 0.000000
0.000000 0.008000 0.000000
0.000000 0.006000 0.000000
0.000000 0.004000 0.000000
0.000000 0.002000 0.000000
0.035411 0.076518 0.000000
0.035821 0.076786 0.000000
0.036232 0.077054 0.000000
0.036643 0.077321 0.000000
0.037054 0.077589 0.000000
0.037464 0.077857 0.000000
0.037875 0.078125 0.000000
0.038286 0.078393 0.000000
0.038696 0.078661 0.000000
0.039107 0.078929 0.000000
0.039518 0.079196 0.000000
0.039929 0.079464 0.000000
0.040339 0.079732 0.000000
0.040750 0.080000 0.000000
0.041161 0.080268 0.000000
0.041571 0.080536 0.000000
0.041982 0.080804 0.000000
0.042393 0.081071 0.000000
0.042804 0.081339 0.000000
0.043214 0.081607 0.000000
0.043625 0.081875 0.000000
0.044036 0.082143 0.000000
0.044446 0.082411 0.000000
0.044857 0.082679 0.000000
0.045268 0.082946 0.000000
0.045679 0.083214 0.000000
0.046089 0.083482 0.000000
0.040000 0.002000 0.000000
0.040001 0.158005 0.000000
0.002000 0.116000 0.000000
0.078000 0.048000 0.000000
0.002000 0.106000 0.000000
0.078000 0.058000 0.000000
0.001986 0.042173 0.000000
0.078015 0.117826 0.000000
0.001985 0.094174 0.000000
0.001985 0.084174 0.000000
0.001914 0.056074 0.000000
0.002000 0.072000 0.000000
0.078015 0.065826 0.000000
0.078016 0.075826 0.000000
0.078000 0.088000 0.000000
0.078000 0.104000 0.000000
0.078003 0.029997 0.000000
0.001998 0.130002 0.000000
0.002000 0.032000 0.000000
0.078013 0.128003 0.000000
0.056000 0.158000 0.000000
0.026000 0.002000 0.000000
0.060000 0.002000 0.000000
0.020000 0.158000 0.000000
0.002000 0.020000 0.000000
0.078000 0.142000 0.000000
0.002000 0.146000 0.000000
0.078000 0.020000 0.000000
0.016000 0.002000 0.000000
0.068000 0.002000 0.000000
0.066000 0.158000 0.000000
0.002000 0.014000 0.000000
0.008000 0.158000 0.000000
0.010000 0.002000 0.000000
0.078000 0.148000 0.000000
0.078000 0.008000 0.000000
0.078005 0.037995 0.000000
0.051991 0.001990 0.000000
0.028000 0.158000 0.000000
0.002000 0.008000 0.000000
0.078000 0.094000 0.000000
0.078000 0.110000 0.000000
0.001983 0.066159 0.000000
0.002000 0.050000 0.000000
0.046000 0.158000 0.000000
0.078000 0.134000 0.000000
0.002000 0.140000 0.000000
0.006000 0.002000 0.000000
0.002000 0.154000 0.000000
0.074000 0.002000 0.000000
0.078000 0.152000 0.000000
0.074000 0.158000 0.000000
0.078000 0.080000 0.000000
0.078000 0.070000 0.000000
0.078000 0.122000 0.000000
0.002000 0.090000 0.000000
0.002000 0.080000 0.000000
0.002000 0.038000 0.000000
0.002000 0.102000 0.000000
0.002000 0.112000 0.000000
0.036000 0.002000 0.000000
0.078000 0.042000 0.000000
0.032000 0.002000 0.000000
0.047987 0.001989 0.000000
0.032008 0.158010 0.000000
0.002000 0.028000 0.000000
0.002000 0.126000 0.000000
0.060000 0.158000 0.000000
0.022000 0.002000 0.000000
0.002000 0.136000 0.000000
0.078000 0.024000 0.000000
0.012000 0.158000 0.000000
0.078000 0.158000 0.000000
0.001947 0.003947 0.000000
0.002000 0.158000 0.000000
0.078000 0.012000 0.000000
0.078000 0.096000 0.000000
0.078000 0.098000 0.000000
0.078000 0.082000 0.000000
0.078111 0.099889 0.000000
0.078035 0.083965 0.000000
0.078000 0.090000 0.000000
0.078000 0.106000 0.000000
0.078000 0.072000 0.000000
0.078000 0.112000 0.000000
0.078043 0.061976 0.000000
0.078000 0.114000 0.000000
0.002000 0.064000 0.000000
0.002000 0.062000 0.000000
0.002000 0.088000 0.000000
0.002000 0.078000 0.000000
0.002000 0.060000 0.000000
0.001966 0.076034 0.000000
0.002000 0.070000 0.000000
0.002000 0.054000 0.000000
0.001957 0.098024 0.000000
0.002000 0.048000 0.000000
0.002000 0.046000 0.000000
[...]
POINT_DATA 5510
SCALARS UX float 1
LOOKUP_TABLE default
0.133109
0.270065
0.000008
-0.151315
0.051742
0.070925
0.136711
0.140346
0.144002
0.147682
0.151374
0.155075
0.158776
0.162478
0.166170
0.169849
0.173510
0.177146
0.180765
0.184371
0.187972
0.191572
0.195176
0.198782
0.202393
0.206002
0.209607
0.213199
0.216764
0.220295
0.223783
0.227222
0.230629
0.233985
0.237280
0.240500
0.243615
0.246696
0.249712
0.252708
0.255661
0.258576
0.261459
0.264319
0.267191
0.268189
0.266329
0.264478
0.262560
0.260736
0.258812
0.256921
0.254978
0.253079
0.251138
0.249200
0.247336
0.245451
0.243469
0.241428
0.239304
0.237083
0.234761
0.232343
0.229835
0.227253
0.224696
0.222102
0.219499
0.216891
0.214275
0.211696
0.209175
0.206704
0.204287
0.201920
0.199564
0.197211
0.194862
0.192486
0.190116
0.187668
0.185195
0.182690
0.180147
0.177594
0.174968
0.172298
0.169542
0.166590
0.162891
0.158638
0.153947
0.147303
0.137546
0.127531
0.116785
0.105880
0.095388
0.085713
0.077205
0.068937
0.063453
0.058504
0.054514
0.051377
0.048345
0.045770
0.043223
0.040662
0.038084
0.035519
0.032940
0.030356
0.027773
0.025196
0.022616
0.020070
0.017529
0.014984
0.012454
0.009853
0.007076
0.003859
-0.000072
-0.003409
-0.007003
-0.010628
-0.014198
-0.017776
-0.021373
-0.024955
-0.028513
-0.032066
-0.035607
-0.039151
-0.042712
-0.046298
-0.049890
-0.053605
-0.057379
-0.061189
-0.065067
-0.069006
-0.072971
-0.076976
-0.081014
-0.085078
-0.089143
-0.093220
-0.097308
-0.101408
-0.105521
-0.109650
-0.113796
-0.117949
-0.122108
-0.126264
-0.130414
-0.134565
-0.138722
-0.142902
-0.147094
-0.148357
-0.145493
-0.142577
-0.139844
-0.137111
-0.134423
-0.131879
-0.129373
-0.126873
-0.124429
-0.122035
-0.119682
-0.117386
-0.115029
-0.112617
-0.110134
-0.107545
-0.105030
-0.102446
-0.099855
-0.097215
-0.094566
-0.091864
-0.089125
-0.086400
-0.083588
-0.080771
-0.077962
-0.075174
-0.072405
-0.069662
-0.066917
-0.064177
-0.061455
-0.058737
-0.056005
-0.053312
-0.050629
-0.047954
-0.045288
-0.042604
-0.039941
-0.037247
-0.034480
-0.031665
-0.028046
-0.023859
-0.018769
-0.012855
-0.004539
0.003966
0.012841
0.021427
0.030510
0.039429
0.048263
0.056313
0.063571
0.070359
0.076398
0.081288
0.085778
0.088732
0.091536
0.094230
0.096849
0.099476
0.102045
0.104620
0.107209
0.109801
0.112398
0.114998
0.117601
0.120209
0.122816
0.125419
0.128007
0.130580
0.052357
0.053001
0.053876
0.054733
0.055458
0.056037
0.056649
0.057332
0.057856
0.058550
0.059179
0.059730
0.060395
0.061075
0.061832
0.062569
0.063347
0.064094
0.064815
0.065506
0.066167
0.066772
0.067434
0.068064
0.068760
0.069488
0.070147
0.203384
-0.066160
-0.091373
0.215925
-0.077794
0.202899
0.075169
0.054671
-0.061211
-0.047481
0.018395
-0.030723
0.193535
0.181702
0.165565
0.107372
0.237031
-0.108379
0.095155
0.039874
-0.036586
0.178132
0.238177
-0.106625
0.110802
0.021682
-0.126995
0.246918
0.159808
0.250594
-0.018848
0.118593
-0.131513
0.148745
0.013961
0.259292
0.228457
0.224724
-0.090235
0.126412
0.153137
0.078452
-0.019115
0.045382
-0.054666
0.032072
-0.119583
0.141425
-0.138127
0.259476
0.008807
-0.004799
0.176516
0.188628
0.047777
-0.055406
-0.041794
0.086074
-0.072123
-0.086146
0.196166
0.223598
0.188958
0.217718
-0.082107
0.100463
-0.103778
-0.029503
0.170850
-0.114933
0.242873
-0.123213
0.000828
0.131586
-0.144011
0.255151
0.147228
0.138360
0.173945
0.129468
0.171367
0.161919
0.096931
0.186259
0.070326
0.198122
0.063821
-0.013148
-0.005676
-0.052664
-0.039086
0.002363
-0.036450
-0.027301
0.027615
-0.066596
0.054020
0.061989
0.208018
0.221094
0.213298
-0.083394
-0.096426
0.045062
0.089451
0.210590
-0.074065
-0.062263
0.232930
-0.050949
-0.047302
-0.101331
0.185358
0.231548
-0.098402
0.103051
0.037293
0.029475
0.105622
0.026875
-0.112731
-0.043696
0.240951
-0.124505
-0.025959
0.167178
0.244498
-0.114903
0.019101
0.250998
-0.132476
0.113395
0.121197
-0.015279
0.156116
-0.011759
0.006212
-0.139821
0.137699
0.133958
0.263278
0.256554
0.265248
-0.083068
0.212357
-0.052128
-0.038428
-0.026643
0.008919
0.052164
0.172989
0.161303
0.119858
0.184816
0.064695
-0.063409
-0.097584
0.036525
0.089897
0.186332
-0.041163
0.103994
0.023409
0.168179
-0.110224
0.238539
-0.026946
0.116983
0.157154
-0.122365
-0.012933
0.097900
0.217572
0.122193
0.005173
0.257379
0.167926
0.130359
0.147055
-0.033068
0.000683
-0.013332
0.067263
0.158305
0.168830
0.119515
0.179439
0.184019
0.088335
0.191384
0.058934
-0.023888
-0.050066
-0.033902
-0.058628
0.010356
-0.044956
0.036076
0.068896
0.195780
-0.063848
0.200547
-0.069413
0.205550
0.051497
-0.075056
0.080270
0.210762
-0.080703
-0.089088
0.218570
-0.093967
0.226108
-0.098923
0.206981
-0.070094
0.199767
-0.058447
0.214159
-0.078061
0.042513
0.092332
0.230747
0.192557
0.221239
-0.086166
-0.048375
0.228147
-0.094307
-0.106110
0.097809
0.034687
0.235012
0.106594
0.181748
0.028639
-0.040134
0.234890
-0.102504
0.108200
0.024284
-0.110581
0.238992
-0.117219
-0.033045
0.174500
-0.122018
0.244854
-0.022408
0.163497
-0.110756
0.241399
-0.119056
0.247588
0.016526
0.115990
-0.127364
0.248919
-0.129703
0.011400
0.253033
0.123807
0.152426
-0.135244
-0.008262
0.257212
0.003540
0.145077
0.129014
-0.135663
0.135215
0.253595
-0.001683
-0.136749
-0.141014
0.261290
0.260317
0.262369
-0.067030
0.197425
0.014943
0.211580
0.112507
0.107515
-0.083319
0.225702
-0.099535
0.238990
0.249327
-0.116016
0.013002
0.226646
0.197311
-0.124303
-0.130812
0.152553
0.054529
-0.018448
0.192445
0.187316
-0.061150
-0.055033
0.180223
0.175534
-0.046674
-0.041212
0.202407
-0.072521
0.047485
0.095882
-0.075244
0.101357
0.230571
0.031297
-0.101880
0.179115
0.171834
0.160834
0.245310
-0.117229
-0.112438
0.149797
0.127411
-0.125108
0.244943
0.240595
-0.006137
0.002502
0.253862
0.255194
0.157122
0.164483
-0.022730
0.108515
-0.029628
0.059831
0.017548
0.043763
0.214930
0.182521
-0.049382
0.074687
0.085948
-0.085679
-0.090546
0.078643
0.087955
0.207143
0.209694
-0.077630
-0.080288
-0.067454
0.139550
0.170560
-0.095299
-0.006760
-0.035828
0.071620
0.222241
0.219950
0.059708
0.092988
0.039180
0.218686
0.190042
-0.052008
0.204530
-0.055901
0.033927
-0.099793
-0.091383
-0.037619
0.182723
0.234499
0.236472
-0.105962
-0.108063
0.020789
0.232439
0.109169
0.114392
-0.044762
0.026040
0.164519
-0.059648
-0.030473
-0.107757
-0.019896
-0.023427
-0.016381
-0.119683
0.153474
0.251428
0.119588
0.124803
0.142480
0.254420
-0.009519
0.138841
0.258213
0.007808
-0.000089
-0.133748
0.132623
-0.132586
0.089966
0.216209
-0.075488
0.054029
-0.037892
-0.052021
-0.018983
-0.056771
0.183749
0.172092
0.152960
-0.091663
0.035917
-0.038634
0.187342
0.230089
0.022603
-0.101371
0.169162
-0.020928
0.117979
0.158185
-0.112493
0.128416
0.050632
0.022699
0.073045
-0.007370
0.161994
-0.027270
0.079031
0.211684
0.132232
-0.000654
0.104855
0.096463
-0.095576
0.180095
0.150841
0.015585
-0.117804
0.004212
0.099545
0.147564
0.065172
-0.013839
0.177982
0.189778
-0.044080
-0.058024
0.194911
-0.064127
-0.088198
0.167048
0.121275
0.007467
0.199986
-0.069907
0.080525
-0.032396
0.050249
-0.092785
0.027008
0.037599
-0.053182
-0.064623
-0.079149
0.179322
-0.046734
0.224505
-0.074965
0.065586
0.204626
0.222141
0.193594
0.200838
0.215073
0.044557
0.041880
0.228662
0.098636
0.206552
-0.034011
0.232557
-0.087341
-0.103934
0.019929
0.030602
-0.045855
0.175472
0.111765
-0.077633
-0.082524
0.229094
-0.095451
0.232170
0.236491
0.110095
-0.103429
-0.107771
-0.027922
-0.017453
0.027889
0.235740
-0.103646
-0.114787
0.161866
-0.071313
0.242751
0.123193
0.018187
-0.111879
0.242201
-0.014050
0.248395
0.247080
0.252181
0.146133
0.010404
-0.127898
0.251580
0.136241
-0.120156
0.252922
0.256059
0.130018
-0.001045
-0.003060
-0.129520
-0.128445
0.208039
0.081069
-0.072447
-0.009702
0.021757
0.144029
-0.051031
-0.096830
0.027207
0.209045
0.225832
0.108324
-0.080512
0.223152
0.239748
-0.018501
-0.096601
0.159194
0.243371
0.195832
-0.108893
0.249826
-0.117122
0.113800
-0.066213
0.222354
0.019143
0.030559
0.173692
-0.040395
-0.060429
-0.053953
0.190704
0.185323
0.194744
-0.099428
-0.031485
0.115331
0.172800
0.238741
0.014701
0.131026
-0.125370
0.044485
0.177456
-0.044459
0.086009
0.067869
-0.024529
0.158255
0.058846
-0.069697
0.198984
0.204531
0.012116
0.213953
-0.073225
-0.087279
-0.084673
-0.089592
0.169355
-0.035082
0.164013
0.038517
0.044317
-0.029252
0.190900
-0.072497
-0.068380
0.139971
-0.007079
0.181373
-0.049272
0.089885
0.093438
0.228092
0.218356
0.058459
0.216126
0.050619
-0.097497
-0.093632
0.201870
-0.035090
-0.080063
0.112696
0.176463
0.033266
0.183679
-0.084515
0.102191
0.099304
0.208914
0.072358
0.234288
0.226565
-0.042221
0.224266
-0.049489
-0.105545
-0.110081
0.025266
0.017323
0.113605
-0.100686
0.233225
0.120580
0.165514
0.246073
-0.024418
0.154507
-0.015127
0.125796
-0.088512
0.012078
0.006847
0.249147
0.248191
0.250569
0.143524
0.147182
0.133639
0.139876
-0.115115
-0.010698
-0.120675
-0.126500
-0.060816
-0.004232
0.001551
0.212272
0.193331
-0.041491
-0.030107
0.071136
0.021663
0.174056
0.164779
0.191935
-0.077851
0.220610
-0.093749
-0.032579
-0.016168
-0.105540
0.124170
-0.084163
0.011231
0.093753
0.177460
0.201078
0.180754
-0.049535
0.129423
0.151877
0.144560
-0.113495
-0.122310
-0.062058
0.135851
0.090496
0.158092
0.147906
-0.023726
-0.014443
-0.003144
0.208206
0.074063
0.057689
0.223837
0.021843
0.168875
0.170142
0.230221
0.162843
0.134656
0.003290
-0.005284
-0.054651
-0.087758
-0.091311
-0.094938
0.122605
0.104939
-0.081896
0.060872
0.050658
0.005039
0.187595
-0.056711
-0.069494
-0.064332
-0.063159
0.193087
0.202506
0.047454
0.041431
0.175982
-0.043997
0.029793
-0.047399
-0.043324
0.096973
-0.066121
0.029830
0.035293
0.102885
-0.076521
-0.074706
0.083074
0.220411
0.219678
-0.028920
0.212602
0.024544
0.205383
0.116212
0.203142
0.227998
0.184697
-0.079335
-0.100971
-0.098859
0.105608
0.241003
-0.092535
0.229918
0.110970
0.016509
0.155533
0.234822
-0.025406
-0.021924
-0.039726
0.226142
-0.081759
-0.104781
0.242919
-0.108056
0.236491
0.118928
0.009471
0.246733
0.244882
0.245775
-0.011804
-0.113009
-0.001979
0.247379
0.140909
0.137268
-0.121244
-0.123546
0.198285
-0.034892
0.037931
0.175084
-0.041643
0.097467
-0.067346
0.197721
-0.009434
-0.039401
0.137438
0.171130
-0.048598
0.026536
0.111790
-0.090507
-0.075229
0.219584
0.015748
0.160184
0.230666
-0.101229
-0.059953
0.119773
-0.105921
0.117147
0.043501
-0.055186
-0.061394
0.185284
0.190603
0.195319
-0.040883
-0.029981
0.038037
0.199323
0.216122
0.206506
-0.094388
0.223979
-0.089753
0.152895
0.005941
0.237207
0.243609
-0.119295
0.014825
-0.038906
0.171783
0.047707
0.154165
0.162108
-0.018971
0.090393
-0.027101
-0.051677
0.182271
0.055663
0.210174
0.197984
0.082153
0.036670
0.062017
0.064687
0.028843
-0.003949
0.099831
0.178199
0.032710
-0.046679
-0.069646
-0.066691
0.195495
0.219931
-0.093123
0.221838
0.217162
0.097731
0.077828
0.021130
0.214223
0.166708
0.210110
0.106499
-0.077004
-0.089476
-0.085709
0.173777
0.013882
0.237317
0.242369
-0.022945
0.166475
0.114475
-0.103204
-0.073945
-0.069969
0.188275
0.126785
0.205359
-0.019524
0.008582
0.232532
-0.036136
-0.110710
-0.012855
0.121546
0.148214
-0.110010
-0.118195
0.141939
0.223996
-0.116356
-0.097786
0.241644
0.244221
0.132038
-0.002893
0.000625
0.138293
-0.008506
0.181073
-0.058359
-0.085903
-0.032303
-0.037807
0.051876
0.009134
0.170511
0.129052
-0.058400
0.188035
0.095697
0.160774
0.208098
-0.065263
0.185453
0.071304
-0.004050
0.037032
0.196464
0.115269
0.178460
0.214623
-0.080769
-0.020566
0.231230
-0.090923
0.127772
-0.056393
-0.047150
0.177763
0.007765
0.239042
-0.103011
-0.106502
-0.032025
0.165928
0.049817
0.204414
0.161517
0.154347
0.144896
0.190357
0.195503
0.103810
-0.056265
-0.027176
-0.083737
-0.033521
-0.098800
0.171127
0.163816
-0.013864
0.145586
-0.006265
0.189336
-0.036969
0.169472
-0.019627
0.022914
0.130161
0.083874
0.067362
0.093774
0.086661
-0.062269
0.055411
-0.064810
0.043804
0.035022
0.040769
0.100437
0.002844
0.044003
0.174652
-0.044518
0.029268
-0.043765
0.044389
-0.052231
0.034807
-0.067605
-0.063654
-0.086996
0.215614
0.106988
-0.037288
0.023877
0.213626
0.117084
0.209932
-0.071740
0.202839
-0.092364
0.199624
-0.096527
0.221724
-0.083045
-0.079085
-0.076004
0.108989
-0.026413
0.018468
0.217985
0.227348
-0.041340
0.172852
0.130414
0.139313
-0.088705
0.156532
0.005070
-0.000268
-0.101828
-0.103797
0.149249
0.240429
0.239836
0.013111
0.083596
0.226321
-0.009566
0.233958
0.238452
-0.115164
0.133047
0.122468
0.241064
0.135674
-0.114097
0.182110
-0.112157
0.218015
0.217531
-0.071427
0.056557
0.124689
0.091032
-0.053483
0.182929
0.044698
0.158259
-0.013522
0.098037
0.203780
-0.051157
0.180085
-0.034245
0.139279
0.166580
0.099854
-0.053521
0.025910
-0.082772
-0.038734
-0.068933
0.179511
0.213377
-0.090089
0.212026
0.161158
0.015045
0.123283
-0.097117
0.173864
-0.043691
0.131389
0.004232
0.220125
0.150257
0.228061
0.235786
0.213751
-0.076565
-0.098974
0.236430
0.142952
0.136687
-0.108137
0.116508
-0.008844
0.179072
-0.048888
0.150578
0.091342
0.154807
-0.023672
-0.078027
-0.059896
0.192930
0.206208
-0.059814
0.043988
0.075387
-0.062979
0.063068
0.163611
0.188020
0.032072
0.040370
0.037261
0.203838
-0.042872
-0.085418
-0.057526
0.199947
0.009862
0.002708
0.211753
0.020417
-0.061451
-0.029493
-0.082054
-0.034686
0.207557
-0.066925
0.131656
0.211112
0.168174
-0.036616
0.194390
-0.034847
0.112242
0.106069
-0.086132
0.083161
0.010466
-0.092299
-0.027500
0.215537
-0.073827
0.174802
0.228718
0.201677
0.167439
-0.094935
0.233816
-0.023998
0.237854
0.157527
0.125110
-0.099715
-0.017186
-0.003778
-0.107046
0.009708
0.231364
0.117922
0.002417
0.167451
0.078024
-0.086981
-0.007214
-0.010553
-0.111103
-0.109322
0.221382
0.185701
0.101024
0.192896
0.171716
-0.041190
0.049010
0.057362
-0.046244
0.158790
0.017513
0.029987
0.180663
-0.050819
0.147842
0.091104
0.042248
-0.016266
0.053909
-0.022807
0.101902
-0.062097
-0.041315
-0.024259
0.170991
-0.004601
0.043792
0.133158
-0.051632
0.115908
-0.035983
0.209346
-0.086041
0.158504
-0.021649
0.039949
-0.093166
-0.088193
-0.096161
0.193878
0.014918
0.225443
0.063067
-0.053747
0.178195
-0.048933
0.200695
0.077551
0.207584
0.162565
0.172147
-0.011492
0.128688
0.164781
0.051439
0.225136
0.140318
-0.004636
-0.105242
-0.104145
0.088710
0.211325
-0.019442
0.036583
-0.058989
0.049283
0.202093
0.175607
-0.045896
-0.059481
0.184725
0.187912
0.108822
0.068354
0.158869
-0.040402
-0.029252
0.192680
0.028539
-0.079719
-0.077226
-0.074407
-0.031852
0.198319
0.205601
-0.055540
0.023215
0.164429
0.120543
0.208577
0.091419
0.007011
0.169904
-0.038895
0.001801
0.201557
-0.084416
-0.068646
0.196039
0.125998
-0.072690
0.029436
0.017766
0.182392
0.175828
0.222578
-0.072535
0.233118
0.001570
-0.031054
0.224731
-0.088065
-0.018235
0.146593
-0.102426
0.134024
0.217769
-0.001128
0.012370
0.235250
-0.094621
0.118724
0.186771
0.183114
0.153887
0.075560
0.227765
-0.080420
0.234607
0.215390
0.123110
-0.081173
0.062146
-0.049873
-0.065204
0.156453
0.150247
0.104099
0.107974
0.033991
-0.012761
0.143757
0.095186
0.051906
0.151214
-0.080128
0.087884
-0.056484
0.197561
-0.057199
0.179600
-0.031719
0.000542
0.155707
0.163555
0.086079
-0.049777
0.025188
-0.075822
0.194855
0.180519
0.119420
0.209397
-0.070296
0.216478
0.014304
-0.019334
0.126774
0.006246
-0.051317
-0.070653
-0.037374
0.062991
0.110684
0.109305
0.201808
0.207215
-0.048034
-0.078571
0.045747
0.052513
0.162129
0.151338
0.132250
0.151250
0.221701
0.173165
0.222114
-0.090662
0.143944
0.232023
0.138727
0.095236
0.171988
-0.042687
0.010725
0.190441
0.070570
0.112848
0.031608
0.165328
0.168924
-0.034343
-0.038893
-0.026264
0.048430
-0.078467
-0.029076
-0.044170
0.019686
0.159755
0.175554
-0.046728
-0.063825
-0.082037
0.003491
-0.001970
0.070431
0.037301
0.204993
-0.083945
0.126129
0.023037
0.042833
0.218757
-0.088306
0.168414
-0.070519
-0.062806
-0.057331
0.230435
-0.101281
0.055331
-0.092128
-0.008081
0.228719
-0.025111
0.197864
-0.032278
0.229874
-0.100127
0.154872
-0.084293
0.211632
0.232576
0.137673
-0.014856
0.011653
0.121360
-0.095770
-0.074055
0.104632
0.083622
0.160598
0.190333
0.209423
-0.059162
0.103003
-0.008766
-0.015233
0.038177
0.146996
0.033908
0.099112
0.044921
-0.076675
-0.021326
-0.056675
0.185780
0.098557
-0.027412
0.048990
0.134147
0.104617
0.161106
0.063960
0.203261
-0.004525
-0.067881
-0.078070
-0.084469
0.010871
0.159504
0.070192
0.002709
0.219476
0.187163
0.020366
-0.089427
-0.012453
-0.021512
-0.040517
0.056105
0.027968
0.147045
-0.089335
-0.022804
-0.005458
-0.097361
0.141288
0.227150
0.152239
0.205218
-0.056795
0.105509
0.083832
-0.046888
0.196629
0.183312
0.030361
0.197863
0.116642
0.157736
-0.073368
-0.030111
0.078461
-0.053940
-0.055275
0.199972
-0.059150
0.022562
0.119369
0.167149
-0.036674
0.124028
0.034527
-0.077078
0.153180
0.057257
0.143318
0.202509
0.127570
0.094086
0.161556
-0.065424
0.006561
-0.066455
0.017031
0.129529
0.226101
0.219080
0.176840
-0.039082
-0.080226
-0.048639
0.177364
0.168312
0.169440
0.224398
0.147601
-0.028642
0.134976
-0.026712
-0.098480
0.000761
0.192317
0.165735
0.008983
0.046963
-0.068913
-0.015884
0.226657
0.205495
0.203378
-0.081724
-0.077858
0.184175
0.122180
0.089679
0.093695
0.229357
0.214003
0.212744
-0.080043
0.206028
0.107347
-0.012211
-0.053280
0.191353
-0.033617
0.047359
-0.072876
-0.074573
0.036579
0.035029
0.041015
0.182413
-0.015695
0.173556
-0.044431
0.034114
-0.052583
0.176804
0.005246
-0.025816
0.152559
0.128438
-0.048266
0.181613
0.199475
0.120128
0.196480
0.206753
-0.074346
0.213030
-0.020506
0.195141
-0.048800
-0.071706
-0.066818
0.130417
0.047625
0.112143
-0.013484
0.147408
0.086736
0.069815
0.005521
0.191178
-0.064198
0.144887
0.223448
0.218426
0.223950
0.174220
-0.002779
-0.094632
-0.075407
0.030569
0.021752
0.041644
0.171297
-0.042588
0.012298
0.157006
0.159151
0.060693
-0.024301
0.185260
0.197399
0.201130
0.076664
0.120187
0.112820
0.139588
0.025381
0.192422
-0.054653
0.096741
0.018920
0.013524
0.008244
0.041202
0.189204
-0.074615
0.162830
0.166379
-0.036809
-0.076282
-0.032385
-0.044499
0.172988
-0.060403
-0.060696
-0.008981
0.029218
0.148613
-0.093293
0.135880
-0.082188
-0.067189
0.000030
-0.091898
0.138635
0.216099
0.170505
0.163127
0.054468
0.058067
-0.029938
-0.026298
-0.071614
0.222787
-0.069441
0.108149
0.155846
0.187742
-0.086839
0.124795
0.207899
0.122911
0.199991
-0.085545
0.193888
-0.054053
0.102933
-0.018135
-0.051110
-0.035406
-0.024903
-0.013205
-0.008473
0.039007
0.096602
0.088985
0.179830
0.170451
-0.041455
-0.043638
0.176997
-0.051194
-0.040402
0.048227
0.155236
0.091938
0.021381
-0.045486
0.123649
0.190322
0.171564
0.160520
-0.065604
0.010047
-0.023226
0.059242
-0.080771
0.109040
0.183961
0.188362
0.020498
0.062042
0.133763
-0.051611
0.108294
0.158894
-0.008891
0.001922
-0.003536
-0.082974
-0.085639
0.149576
0.139531
0.220747
0.213536
0.197263
0.191803
-0.090847
0.102104
0.185169
-0.000325
-0.019459
-0.036861
0.038296
0.165779
0.168769
0.068534
0.083117
0.011468
0.155036
-0.022244
0.192338
0.077562
0.039951
-0.050825
0.117048
0.149900
0.027803
0.052574
-0.010021
0.164671
-0.034696
0.018023
-0.028175
0.127474
-0.070743
-0.016038
0.185978
-0.070659
-0.058319
-0.054584
0.180482
0.016246
-0.062116
-0.065192
0.142622
-0.076311
0.133054
-0.073091
0.221204
0.122332
0.210104
0.210464
0.177903
-0.046479
0.199201
0.110783
-0.027600
-0.031392
0.174702
-0.069279
0.166809
-0.016968
-0.056160
0.156871
0.188746
0.145868
0.192277
-0.079179
0.201880
-0.024052
0.125640
-0.006283
0.007425
0.142219
0.220211
0.203399
0.027274
0.215685
-0.072451
0.059664
0.193994
0.031779
-0.038489
0.043763
-0.068260
0.093334
0.036371
-0.045535
0.035397
0.003932
0.030450
0.123653
0.017629
-0.066977
0.188222
0.193562
-0.063338
0.204118
-0.029011
0.006531
-0.062983
-0.052283
0.157906
-0.018169
0.209668
0.088609
0.120329
0.180745
0.149223
0.137723
0.046818
0.026818
0.177252
-0.046504
0.179253
0.048138
0.131121
-0.065907
-0.076736
-0.052540
0.136741
0.217525
0.195244
-0.070700
0.164166
0.012697
0.152535
-0.017564
-0.011843
0.189526
0.144763
-0.020410
-0.042250
0.076734
0.067112
0.018363
0.067662
0.083502
-0.048894
0.099830
0.157060
0.023297
0.053415
-0.024127
-0.067732
-0.030574
-0.034568
0.160542
0.163718
0.128225
-0.010863
-0.007132
0.004824
-0.048929
0.146794
0.175223