# vtk DataFile Version 2.0
Test
ASCII
DATASET POLYDATA
POINTS 5510 float
0.000000 0.000000 0.000000
0.080000 0.000000 0.000000
0.080000 0.160000 0.000000
0.000000 0.160000 0.000000
0.035000 0.076250 0.000000
0.046500 0.083750 0.000000
0.002000 0.000000 0.000000
0.004000 0.000000 0.000000
0.006000 0.000000 0.000000
0.008000 0.000000 0.000000
0.010000 0.000000 0.000000
0.012000 0.000000 0.000000
0.014000 0.000000 0.000000
0.016000 0.000000 0.000000
0.018000 0.000000 0.000000
0.020000 0.000000 0.000000
0.022000 0.000000 0.000000
0.024000 0.000000 0.000000
0.026000 0.000000 0.000000
0.028000 0.000000 0.000000
0.030000 0.000000 0.000000
0.032000 0.000000 0.000000
0.034000 0.000000 0.000000
0.036000 0.000000 0.000000
0.038000 0.000000 0.000000
0.040000 0.000000 0.000000
0.042000 0.000000 0.000000
0.044000 0.000000 0.000000
0.046000 0.000000 0.000000
0.048000 0.000000 0.000000
0.050000 0.000000 0.000000
0.052000 0.000000 0.000000
0.054000 0.000000 0.000000
0.056000 0.000000 0.000000
0.058000 0.000000 0.000000
0.060000 0.000000 0.000000
0.062000 0.000000 0.000000
0.064000 0.000000 0.000000
0.066000 0.000000 0.000000
0.068000 0.000000 0.000000
0.070000 0.000000 0.000000
0.072000 0.000000 0.000000
0.074000 0.000000 0.000000
0.076000 0.000000 0.000000
0.078000 0.000000 0.000000
0.080000 0.002000 0.000000
0.080000 0.004000 0.000000
0.080000 0.006000 0.000000
0.080000 0.008000 0.000000
0.080000 0.010000 0.000000
0.080000 0.012000 0.000000
0.080000 0.014000 0.000000
0.080000 0.016000 0.000000
0.080000 0.018000 0.000000
0.080000 0.020000 0.000000
0.080000 0.022000 0.000000
0.080000 0.024000 0.000000
0.080000 0.026000 0.000000
0.080000 0.028000 0.000000
0.080000 0.030000 0.000000
0.080000 0.032000 0.000000
0.080000 0.034000 0.000000
0.080000 0.036000 0.000000
0.080000 0.038000 0.000000
0.080000 0.040000 0.000000
0.080000 0.042000 0.000000
0.080000 0.044000 0.000000
0.080000 0.046000 0.000000
0.080000 0.048000 0.000000
0.080000 0.050000 0.000000
0.080000 0.052000 0.000000
0.080000 0.054000 0.000000
0.080000 0.056000 0.000000
0.080000 0.058000 0.000000
0.080000 0.060000 0.000000
0.080000 0.062000 0.000000
0.080000 0.064000 0.000000
0.080000 0.066000 0.000000
0.080000 0.068000 0.000000
0.080000 0.070000 0.000000
0.080000 0.072000 0.000000
0.080000 0.074000 0.000000
0.080000 0.076000 0.000000
0.080000 0.078000 0.000000
0.080000 0.080000 0.000000
0.080000 0.082000 0.000000
0.080000 0.084000 0.000000
0.080000 0.086000 0.000000
0.080000 0.088000 0.000000
0.080000 0.090000 0.000000
0.080000 0.092000 0.000000
0.080000 0.094000 0.000000
0.080000 0.096000 0.000000
0.080000 0.098000 0.000000
0.080000 0.100000 0.000000
0.080000 0.102000 0.000000
0.080000 0.104000 0.000000
0.080000 0.106000 0.000000
0.080000 0.108000 0.000000
0.080000 0.110000 0.000000
0.080000 0.112000 0.000000
0.080000 0.114000 0.000000
0.080000 0.116000 0.000000
0.080000 0.118000 0.000000
0.080000 0.120000 0.000000
0.080000 0.122000 0.000000
0.080000 0.124000 0.000000
0.080000 0.126000 0.000000
0.080000 0.128000 0.000000
0.080000 0.130000 0.000000
0.080000 0.132000 0.000000
0.080000 0.134000 0.000000
0.080000 0.136000 0.000000
0.080000 0.138000 0.000000
0.080000 0.140000 0.000000
0.080000 0.142000 0.000000
0.080000 0.144000 0.000000
0.080000 0.146000 0.000000
0.080000 0.148000 0.000000
0.080000 0.150000 0.000000
0.080000 0.152000 0.000000
0.080000 0.154000 0.000000
0.080000 0.156000 0.000000
0.080000 0.158000 0.000000
0.078000 0.160000 0.000000
0.076000 0.160000 0.000000
0.074000 0.160000 0.000000
0.072000 0.160000 0.000000
0.070000 0.160000 0.000000
0.068000 0.160000 0.000000
0.066000 0.160000 0.000000
0.064000 0.160000 0.000000
0.062000 0.160000 0.000000
0.060000 0.160000 0.000000
0.058000 0.160000 0.000000
0.056000 0.160000 0.000000
0.054000 0.160000 0.000000
0.052000 0.160000 0.000000
0.050000 0.160000 0.000000
0.048000 0.160000 0.000000
0.046000 0.160000 0.000000
0.044000 0.160000 0.000000
0.042000 0.160000 0.000000
0.040000 0.160000 0.000000
0.038000 0.160000 0.000000
0.036000 0.160000 0.000000
0.034000 0.160000 0.000000
0.032000 0.160000 0.000000
0.030000 0.160000 0.000000
0.028000 0.160000 0.000000
0.026000 0.160000 0.000000
0.024000 0.160000 0.000000
0.022000 0.160000 0.000000
0.020000 0.160000 0.000000
0.018000 0.160000 0.000000
0.016000 0.160000 0.000000
0.014000 0.160000 0.000000
0.012000 0.160000 0.000000
0.010000 0.160000 0.000000
0.008000 0.160000 0.000000
0.006000 0.160000 0.000000
0.004000 0.160000 0.000000
0.002000 0.160000 0.000000
0.000000 0.158000 0.000000
0.000000 0.156000 0.000000
0.000000 0.154000 0.000000
0.000000 0.152000 0.000000
0.000000 0.150000 0.000000
0.000000 0.148000 0.000000
0.000000 0.146000 0.000000
0.000000 0.144000 0.000000
0.000000 0.142000 0.000000
0.000000 0.140000 0.000000
0.000000 0.138000 0.000000
0.000000 0.136000 0.000000
0.000000 0.134000 0.000000
0.000000 0.132000 0.000000
0.000000 0.130000 0.000000
0.000000 0.128000 0.000000
0.000000 0.126000 0.000000
0.000000 0.124000 0.000000
0.000000 0.122000 0.000000
0.000000 0.120000 0.000000
0.000000 0.118000 0.000000
0.000000 0.116000 0.000000
0.000000 0.114000 0.000000
0.000000 0.112000 0.000000
0.000000 0.110000 0.000000
0.000000 0.108000 0.000000
0.000000 0.106000 0.000000
0.000000 0.104000 0.000000
0.000000 0.102000 0.000000
0.000000 0.100000 0.000000
0.000000 0.098000 0.000000
0.000000 0.096000 0.000000
0.000000 0.094000 0.000000
0.000000 0.092000 0.000000
0.000000 0.090000 0.000000
0.000000 0.088000 0.000000
0.000000 0.086000 0.000000
0.000000 0.084000 0.000000
0.000000 0.082000 0.000000
0.000000 0.080000 0.000000
0.000000 0.078000 0.000000
0.000000 0.076000 0.000000
0.000000 0.074000 0.000000
0.000000 0.072000 0.000000
0.000000 0.070000 0.000000
0.000000 0.068000 0.000000
0.000000 0.066000 0.000000
0.000000 0.064000 0.000000
0.000000 0.062000 0.000000
0.000000 0.060000 0.000000
0.000000 0.058000 0.000000
0.000000 0.056000 0.000000
0.000000 0.054000 0.000000
0.000000 0.052000 0.000000
0.000000 0.050000 0.000000
0.000000 0.048000 0.000000
0.000000 0.046000 0.000000
0.000000 0.044000 0.000000
0.000000 0.042000 0.000000
0.000000 0.040000 0.000000
0.000000 0.038000 0.000000
0.000000 0.036000 0.000000
0.000000 0.034000 0.000000
0.000000 0.032000 0.000000
0.000000 0.030000 0.000000
0.000000 0.028000 0.000000
0.000000 0.026000 0.000000
0.000000 0.024000 0.000000
0.000000 0.022000 0.000000
0.000000 0.020000 0.000000
0.000000 0.018000 0.000000
0.000000 0.016000 0.000000
0.000000 0.014000 0.000000
0.000000 0.012000 0.000000
0.000000 0.010000 0.000000
0.000000 0.008000 0.000000
0.000000 0.006000 0.000000
0.000000 0.004000 0.000000
0.000000 0.002000 0.000000
0.035411 0.076518 0.000000
0.035821 0.076786 0.000000
0.036232 0.077054 0.000000
0.036643 0.077321 0.000000
0.037054 0.077589 0.000000
0.037464 0.077857 0.000000
0.037875 0.078125 0.000000
0.038286 0.078393 0.000000
0.038696 0.078661 0.000000
0.039107 0.078929 0.000000
0.039518 0.079196 0.000000
0.039929 0.079464 0.000000
0.040339 0.079732 0.000000
0.040750 0.080000 0.000000
0.041161 0.080268 0.000000
0.041571 0.080536 0.000000
0.041982 0.080804 0.000000
0.042393 0.081071 0.000000
0.042804 0.081339 0.000000
0.043214 0.081607 0.000000
0.043625 0.081875 0.000000
0.044036 0.082143 0.000000
0.044446 0.082411 0.000000
0.044857 0.082679 0.000000
0.045268 0.082946 0.000000
0.045679 0.083214 0.000000
0.046089 0.083482 0.000000
0.040000 0.002000 0.000000
0.040001 0.158005 0.000000
0.002000 0.116000 0.000000
0.078000 0.048000 0.000000
0.002000 0.106000 0.000000
0.078000 0.058000 0.000000
0.001986 0.042173 0.000000
0.078015 0.117826 0.000000
0.001985 0.094174 0.000000
0.001985 0.084174 0.000000
0.001914 0.056074 0.000000
0.002000 0.072000 0.000000
0.078015 0.065826 0.000000
0.078016 0.075826 0.000000
0.078000 0.088000 0.000000
0.078000 0.104000 0.000000
0.078003 0.029997 0.000000
0.001998 0.130002 0.000000
0.002000 0.032000 0.000000
0.078013 0.128003 0.000000
0.056000 0.158000 0.000000
0.026000 0.002000 0.000000
0.060000 0.002000 0.000000
0.020000 0.158000 0.000000
0.002000 0.020000 0.000000
0.078000 0.142000 0.000000
0.002000 0.146000 0.000000
0.078000 0.020000 0.000000
0.016000 0.002000 0.000000
0.068000 0.002000 0.000000
0.066000 0.158000 0.000000
0.002000 0.014000 0.000000
0.008000 0.158000 0.000000
0.010000 0.002000 0.000000
0.078000 0.148000 0.000000
0.078000 0.008000 0.000000
0.078005 0.037995 0.000000
0.051991 0.001990 0.000000
0.028000 0.158000 0.000000
0.002000 0.008000 0.000000
0.078000 0.094000 0.000000
0.078000 0.110000 0.000000
0.001983 0.066159 0.000000
0.002000 0.050000 0.000000
0.046000 0.158000 0.000000
0.078000 0.134000 0.000000
0.002000 0.140000 0.000000
0.006000 0.002000 0.000000
0.002000 0.154000 0.000000
0.074000 0.002000 0.000000
0.078000 0.152000 0.000000
0.074000 0.158000 0.000000
0.078000 0.080000 0.000000
0.078000 0.070000 0.000000
0.078000 0.122000 0.000000
0.002000 0.090000 0.000000
0.002000 0.080000 0.000000
0.002000 0.038000 0.000000
0.002000 0.102000 0.000000
0.002000 0.112000 0.000000
0.036000 0.002000 0.000000
0.078000 0.042000 0.000000
0.032000 0.002000 0.000000
0.047987 0.001989 0.000000
0.032008 0.158010 0.000000
0.002000 0.028000 0.000000
0.002000 0.126000 0.000000
0.060000 0.158000 0.000000
0.022000 0.002000 0.000000
0.002000 0.136000 0.000000
0.078000 0.024000 0.000000
0.012000 0.158000 0.000000
0.078000 0.158000 0.000000
0.001947 0.003947 0.000000
0.002000 0.158000 0.000000
0.078000 0.012000 0.000000
0.078000 0.096000 0.000000
0.078000 0.098000 0.000000
0.078000 0.082000 0.000000
0.078111 0.099889 0.000000
0.078035 0.083965 0.000000
0.078000 0.090000 0.000000
0.078000 0.106000 0.000000
0.078000 0.072000 0.000000
0.078000 0.112000 0.000000
0.078043 0.061976 0.000000
0.078000 0.114000 0.000000
0.002000 0.064000 0.000000
0.002000 0.062000 0.000000
0.002000 0.088000 0.000000
0.002000 0.078000 0.000000
0.002000 0.060000 0.000000
0.001966 0.076034 0.000000
0.002000 0.070000 0.000000
0.002000 0.054000 0.000000
0.001957 0.098024 0.000000
0.002000 0.048000 0.000000
0.002000 0.046000 0.000000
[...]
POINT_DATA 5510
SCALARS UX float 1
LOOKUP_TABLE default
0.050455
0.160100
0.000005
-0.107641
0.021096
0.032996
0.053207
0.055959
0.058711
0.061463
0.064217
0.066973
0.069730
0.072489
0.075250
0.078012
0.080775
0.083536
0.086295
0.089050
0.091798
0.094540
0.097277
0.100009
0.102735
0.105455
0.108168
0.110875
0.113578
0.116279
0.118976
0.121673
0.124370
0.127068
0.129768
0.132473
0.135185
0.137903
0.140632
0.143368
0.146115
0.148876
0.151657
0.154463
0.157272
0.158241
0.156419
0.154640
0.152861
0.151147
0.149433
0.147774
0.146114
0.144466
0.142823
0.141185
0.139566
0.137943
0.136309
0.134664
0.133004
0.131323
0.129618
0.127886
0.126125
0.124331
0.122547
0.120736
0.118909
0.117088
0.115227
0.113358
0.111485
0.109613
0.107740
0.105867
0.103995
0.102124
0.100251
0.098375
0.096497
0.094614
0.092729
0.090843
0.088952
0.087062
0.085167
0.083272
0.081379
0.079494
0.077586
0.075648
0.073669
0.071399
0.068194
0.064850
0.061119
0.057285
0.053722
0.050567
0.047821
0.045170
0.043073
0.041025
0.039079
0.037200
0.035326
0.033474
0.031621
0.029768
0.027916
0.026063
0.024211
0.022361
0.020515
0.018671
0.016829
0.014997
0.013165
0.011326
0.009493
0.007592
0.005531
0.003048
-0.000041
-0.002719
-0.005561
-0.008405
-0.011197
-0.013990
-0.016799
-0.019597
-0.022384
-0.025168
-0.027943
-0.030714
-0.033479
-0.036241
-0.039000
-0.041748
-0.044490
-0.047227
-0.049958
-0.052683
-0.055403
-0.058118
-0.060829
-0.063536
-0.066242
-0.068948
-0.071654
-0.074361
-0.077071
-0.079785
-0.082507
-0.085239
-0.087984
-0.090739
-0.093502
-0.096282
-0.099087
-0.101927
-0.104770
-0.105759
-0.103932
-0.102098
-0.100363
-0.098639
-0.096931
-0.095266
-0.093612
-0.091960
-0.090316
-0.088680
-0.087047
-0.085412
-0.083758
-0.082089
-0.080399
-0.078678
-0.076968
-0.075228
-0.073483
-0.071722
-0.069953
-0.068167
-0.066366
-0.064571
-0.062744
-0.060909
-0.059067
-0.057223
-0.055373
-0.053517
-0.051658
-0.049796
-0.047928
-0.046054
-0.044179
-0.042297
-0.040414
-0.038528
-0.036638
-0.034748
-0.032853
-0.030958
-0.029064
-0.027181
-0.025275
-0.023348
-0.021344
-0.019227
-0.016285
-0.013082
-0.009727
-0.006162
-0.002486
0.000955
0.004250
0.006660
0.008913
0.011089
0.013147
0.015103
0.017032
0.018887
0.020741
0.022596
0.024453
0.026309
0.028168
0.030026
0.031884
0.033744
0.035602
0.037460
0.039317
0.041174
0.043031
0.044887
0.046743
0.048599
0.021523
0.021981
0.022615
0.023222
0.023712
0.024077
0.024462
0.024886
0.025180
0.025604
0.025973
0.026281
0.026676
0.027072
0.027526
0.027963
0.028427
0.028865
0.029281
0.029657
0.030019
0.030344
0.030727
0.031093
0.031531
0.032009
0.032444
0.103618
-0.050846
-0.067151
0.116136
-0.058194
0.106883
0.013836
0.038338
-0.047262
-0.037876
-0.006268
-0.026359
0.099581
0.090186
0.078670
0.057126
0.131652
-0.079105
0.023515
0.028862
-0.028842
0.084432
0.130657
-0.077961
0.034642
0.015901
-0.092285
0.139843
0.070628
0.141531
-0.014933
0.040214
-0.094410
0.062360
0.010357
0.149986
0.124980
0.119856
-0.067126
0.045783
0.072904
0.047129
-0.020769
0.004737
-0.042636
0.023295
-0.087316
0.056855
-0.099200
0.149782
0.006618
-0.003880
0.086228
0.095647
0.034394
-0.043334
-0.033920
0.017952
-0.054512
-0.063625
0.098164
0.121498
0.092689
0.114452
-0.061710
0.027218
-0.075764
-0.023288
0.078910
-0.084033
0.136545
-0.088884
0.000644
0.049472
-0.102842
0.146529
0.070762
0.067931
0.084338
0.064961
0.082528
0.076774
0.053426
0.093767
0.044467
0.103220
0.042184
-0.018522
-0.015879
-0.041455
-0.032030
-0.012810
-0.030215
-0.024462
-0.002263
-0.050885
0.007457
0.009764
0.110618
0.119755
0.114308
-0.061824
-0.070628
0.032543
0.019817
0.109049
-0.056286
-0.048114
0.128360
-0.039889
-0.037135
-0.074059
0.089944
0.125255
-0.072540
0.029074
0.027011
0.021443
0.030930
0.019595
-0.082392
-0.034376
0.134918
-0.090630
-0.020507
0.076149
0.136078
-0.083403
0.014055
0.143165
-0.095710
0.036499
0.042070
-0.012136
0.067871
-0.009372
0.004711
-0.099998
0.054022
0.051162
0.153539
0.147018
0.155372
-0.060883
0.113367
-0.040648
-0.031297
-0.023679
-0.009564
0.008105
0.083605
0.075991
0.061249
0.092957
0.041599
-0.048978
-0.071183
0.026076
0.020712
0.090826
-0.032541
0.029985
0.016840
0.077051
-0.081023
0.133550
-0.021426
0.039255
0.068772
-0.089363
-0.010387
0.053185
0.117044
0.042968
0.003753
0.147934
0.079981
0.064782
0.070100
-0.027671
-0.012832
-0.017833
0.012570
0.075116
0.080818
0.061486
0.088440
0.091990
0.050463
0.097844
0.040241
-0.022811
-0.039675
-0.028502
-0.045526
-0.009615
-0.036127
0.001184
0.011823
0.101364
-0.049038
0.105098
-0.052748
0.108835
0.036668
-0.056435
0.015602
0.112547
-0.060091
-0.065611
0.117992
-0.068945
0.123279
-0.072379
0.106327
-0.053557
0.100887
-0.045371
0.111746
-0.058992
0.030745
0.021618
0.126684
0.095424
0.117152
-0.064413
-0.038018
0.122553
-0.069830
-0.077442
0.025351
0.025159
0.130008
0.031839
0.087189
0.020529
-0.031611
0.127953
-0.075248
0.032781
0.017751
-0.080751
0.133283
-0.085670
-0.026069
0.081672
-0.088971
0.138185
-0.017721
0.073388
-0.080677
0.133363
-0.086137
0.138798
0.012208
0.038357
-0.091644
0.141493
-0.093986
0.008502
0.144835
0.043927
0.065115
-0.097436
-0.006618
0.148228
0.002720
0.059607
0.047639
-0.097193
0.052247
0.144269
-0.001380
-0.098132
-0.100987
0.151740
0.150714
0.152563
-0.050505
0.102845
-0.006617
0.109922
0.058145
0.032748
-0.062642
0.120768
-0.073434
0.131548
0.141931
-0.084306
0.009426
0.123792
0.099146
-0.089791
-0.094553
0.072236
0.037485
-0.019929
0.099033
0.094946
-0.046716
-0.042608
0.089258
0.085552
-0.036949
-0.033214
0.106461
-0.054076
0.033630
0.024393
-0.057163
0.028130
0.126987
0.022398
-0.074478
0.085332
0.079810
0.071530
0.136975
-0.085998
-0.082673
0.063259
0.046680
-0.091074
0.138557
0.135203
-0.005011
0.001788
0.145379
0.146110
0.074038
0.077775
-0.021717
0.057126
-0.025460
0.039767
-0.005902
0.005113
0.115206
0.091106
-0.038793
0.014752
0.018770
-0.062701
-0.066105
0.046416
0.049653
0.109771
0.111534
-0.057343
-0.059073
-0.051822
0.067742
0.081829
-0.069495
-0.015540
-0.029518
0.044019
0.120414
0.118735
0.010299
0.022534
0.027946
0.115336
0.093647
-0.040741
0.104592
-0.043611
0.024254
-0.072858
-0.068029
-0.029789
0.088078
0.130256
0.131897
-0.077732
-0.079378
0.014984
0.126149
0.033678
0.037401
-0.035281
0.018691
0.074296
-0.046299
-0.024200
-0.078857
-0.015877
-0.018657
-0.013109
-0.087660
0.066015
0.142431
0.041110
0.044823
0.057752
0.145176
-0.007690
0.054999
0.148901
0.005678
-0.000159
-0.096325
0.050391
-0.095330
0.021503
0.115993
-0.055293
0.036569
-0.030607
-0.040086
-0.019481
-0.044247
0.092414
0.083015
0.071566
-0.066753
0.025222
-0.030688
0.091719
0.127273
0.015944
-0.074741
0.077952
-0.016833
0.040162
0.069679
-0.083040
0.047578
0.008333
-0.003230
0.043830
-0.006069
0.075915
-0.023692
0.017249
0.112700
0.064848
-0.012750
0.030889
0.025253
-0.069914
0.086226
0.064161
0.011283
-0.086456
0.002850
0.053419
0.069662
0.041087
-0.017424
0.087478
0.096923
-0.035167
-0.044606
0.100947
-0.048620
-0.064435
0.079230
0.061202
-0.009677
0.104729
-0.052367
0.016652
-0.026917
0.035239
-0.067688
-0.001648
0.002923
-0.041627
-0.049847
-0.059824
0.088872
-0.036559
0.122124
-0.055614
0.013056
0.108015
0.117998
0.096339
0.101811
0.112575
0.031715
0.029849
0.125411
0.026249
0.109068
-0.026975
0.128638
-0.065334
-0.076105
0.014072
0.021516
-0.036167
0.082564
0.035525
-0.056644
-0.060034
0.123458
-0.070731
0.128930
0.132250
0.034575
-0.076389
-0.079695
-0.022347
-0.014084
0.019627
0.128848
-0.076145
-0.084333
0.072447
-0.054475
0.136875
0.043869
0.013137
-0.081578
0.134256
-0.011384
0.139698
0.140229
0.143351
0.060505
0.007559
-0.092796
0.143644
0.053144
-0.087040
0.144315
0.147121
0.048535
-0.001009
-0.002541
-0.093504
-0.092553
0.107242
0.046644
-0.052626
-0.015211
-0.003450
0.067675
-0.040026
-0.071791
0.018752
0.108113
0.124336
0.033625
-0.060824
0.118956
0.132443
-0.015058
-0.071616
0.070585
0.137340
0.101611
-0.079760
0.141546
-0.085219
0.058070
-0.049272
0.120853
0.013171
0.000346
0.084295
-0.032345
-0.045547
-0.041356
0.097856
0.093679
0.097316
-0.073142
-0.025141
0.038279
0.080701
0.133939
0.010379
0.049432
-0.090720
0.006007
0.087340
-0.035044
0.019701
0.041478
-0.022130
0.073895
0.038703
-0.051510
0.103841
0.107696
-0.007474
0.114319
-0.053797
-0.063437
-0.061556
-0.065162
0.080906
-0.028695
0.077141
0.027034
0.031064
-0.024864
0.094414
-0.055344
-0.052487
0.067177
-0.014927
0.090544
-0.038234
0.049814
0.023396
0.125627
0.117639
0.010871
0.113511
0.034822
-0.071518
-0.068323
0.102687
-0.027950
-0.058266
0.036410
0.083473
0.023371
0.088944
-0.063534
0.029052
0.027105
0.110702
0.015108
0.130583
0.121653
-0.033427
0.122439
-0.038890
-0.078034
-0.081365
0.017800
0.012231
0.037307
-0.074327
0.127038
0.042008
0.075198
0.137877
-0.019589
0.066917
-0.012370
0.045718
-0.066221
0.008509
0.004763
0.140609
0.140803
0.142549
0.058651
0.061408
0.051288
0.055896
-0.084746
-0.008720
-0.088201
-0.091710
-0.047160
-0.003551
0.000910
0.113211
0.099627
-0.032604
-0.025133
0.015509
-0.003300
0.084919
0.077576
0.095293
-0.059049
0.117167
-0.069812
-0.026124
-0.013344
-0.078441
0.044757
-0.061016
0.007629
0.024207
0.084378
0.105017
0.090291
-0.037958
0.048477
0.065069
0.059553
-0.083608
-0.088911
-0.048017
0.065168
0.049630
0.073351
0.069052
-0.021245
-0.016983
-0.012965
0.110090
0.043622
0.011161
0.122753
0.015043
0.080693
0.078854
0.127658
0.073339
0.052187
0.001962
-0.004492
-0.042675
-0.063946
-0.067035
-0.070199
0.061196
0.054888
-0.059276
0.038877
0.034409
-0.010154
0.095472
-0.043160
-0.050676
-0.047331
-0.047304
0.099624
0.106285
0.033015
0.029084
0.086532
-0.034210
0.000141
-0.037353
-0.034314
0.026098
-0.050890
0.020566
0.024377
0.029917
-0.058105
-0.054102
0.019503
0.119268
0.116247
-0.023276
0.110816
0.016913
0.105341
0.039132
0.106440
0.126001
0.089837
-0.057334
-0.075086
-0.073438
0.031758
0.135630
-0.068910
0.124343
0.035468
0.011337
0.067825
0.131029
-0.020520
-0.017774
-0.031590
0.124010
-0.061724
-0.077037
0.135154
-0.080147
0.129736
0.041051
0.006649
0.138802
0.137996
0.139065
-0.009714
-0.082487
-0.001864
0.139763
0.056796
0.054042
-0.087959
-0.089943
0.099985
-0.028230
0.003498
0.085432
-0.033123
0.026881
-0.048629
0.102431
-0.014520
-0.030753
0.064843
0.082868
-0.038214
0.017898
0.036345
-0.067298
-0.057241
0.119810
0.010450
0.071491
0.125228
-0.075567
-0.046445
0.041886
-0.077942
0.058748
0.030175
-0.041506
-0.045460
0.093814
0.097699
0.100984
-0.032481
-0.024210
0.026324
0.100860
0.116353
0.106295
-0.070513
0.123101
-0.067134
0.065978
0.003867
0.130633
0.136070
-0.087124
-0.006144
-0.030856
0.083089
0.032739
0.071366
0.075685
-0.018871
0.022371
-0.023187
-0.039214
0.091523
0.036844
0.111569
0.102858
0.046528
0.003210
0.038825
0.013487
-0.000168
-0.012635
0.027906
0.088311
0.022576
-0.035991
-0.050171
-0.048797
0.097975
0.119541
-0.068629
0.121125
0.114471
0.051585
0.017679
0.014166
0.114783
0.078978
0.109043
0.032734
-0.055671
-0.065431
-0.064406
0.081599
0.009500
0.132761
0.136246
-0.018725
0.076084
0.038204
-0.076759
-0.056354
-0.053588
0.092536
0.046608
0.108004
-0.016020
0.005749
0.129342
-0.028851
-0.081868
-0.010691
0.042903
0.062308
-0.080670
-0.086148
0.057700
0.119846
-0.085359
-0.072510
0.135224
0.137008
0.050330
-0.002728
0.000040
0.054942
-0.007077
0.087103
-0.045355
-0.062407
-0.026516
-0.030259
0.009211
-0.008255
0.082019
0.063217
-0.043537
0.095850
0.051489
0.074921
0.110353
-0.046768
0.093821
0.016098
-0.012052
0.003626
0.098795
0.039052
0.085265
0.112688
-0.058518
-0.016979
0.128211
-0.067993
0.047510
-0.041507
-0.035835
0.088145
0.004882
0.133457
-0.076136
-0.079036
-0.025929
0.078570
0.033711
0.107335
0.075231
0.071025
0.067480
0.097270
0.100861
0.030921
-0.043794
-0.022948
-0.061171
-0.026923
-0.073857
0.079753
0.074236
-0.011650
0.060455
-0.005408
0.093426
-0.029146
0.081495
-0.018717
-0.002600
0.062630
0.046512
0.040621
0.024663
0.021414
-0.045312
0.036218
-0.046951
0.006415
0.002584
0.028242
0.028754
-0.010416
0.006226
0.085751
-0.035200
0.019814
-0.033536
0.030531
-0.040872
0.023748
-0.051895
-0.049091
-0.064176
0.116644
0.054927
-0.029778
0.016060
0.111735
0.040011
0.111888
-0.051596
0.103518
-0.068875
0.103785
-0.072173
0.121439
-0.062632
-0.059911
-0.054691
0.034398
-0.021443
0.012331
0.117914
0.122533
-0.031959
0.084289
0.049372
0.055845
-0.065718
0.068729
0.002976
-0.000835
-0.075213
-0.077294
0.063223
0.133343
0.134498
0.008619
0.020322
0.124786
-0.008052
0.127930
0.132492
-0.084347
0.051231
0.043777
0.134277
0.053089
-0.083400
0.088004
-0.082550
0.115352
0.118198
-0.054586
0.011242
0.061085
0.049195
-0.039701
0.092014
0.030922
0.073195
-0.016083
0.027503
0.107458
-0.037444
0.089769
-0.026870
0.064681
0.079423
0.051539
-0.041725
0.017165
-0.061393
-0.030868
-0.052788
0.086163
0.115318
-0.067641
0.110874
0.072390
0.009604
0.044594
-0.072745
0.085242
-0.032923
0.050268
0.002084
0.120241
0.064134
0.123417
0.130704
0.115098
-0.058148
-0.073414
0.131700
0.058600
0.053994
-0.079804
0.057652
-0.013751
0.089145
-0.036841
0.069242
0.023780
0.070961
-0.020669
-0.056265
-0.043099
0.099056
0.108781
-0.043744
0.006640
0.043470
-0.045174
0.013393
0.076780
0.095636
0.021791
0.027792
0.025513
0.104380
-0.033930
-0.062717
-0.044628
0.101427
-0.007650
-0.009921
0.113422
0.013318
-0.047451
-0.024302
-0.059667
-0.027836
0.107218
-0.047865
0.062332
0.109959
0.080759
-0.028394
0.099923
-0.027802
0.036955
0.032747
-0.064407
0.045557
0.006782
-0.069323
-0.022375
0.116944
-0.053097
0.082518
0.126484
0.105293
0.076973
-0.070693
0.129949
-0.019667
0.131534
0.069643
0.045635
-0.074485
-0.014302
-0.003600
-0.078856
0.005908
0.126128
0.040882
0.001089
0.079841
0.018311
-0.065317
-0.006328
-0.008998
-0.081599
-0.080795
0.118025
0.090698
0.029422
0.096104
0.083604
-0.031284
0.008422
0.036650
-0.036410
0.073393
-0.004850
0.000450
0.090353
-0.038045
0.068257
0.023353
0.029125
-0.017217
0.035748
-0.020354
0.030067
-0.044140
-0.030764
-0.020718
0.083082
-0.011600
0.006811
0.062042
-0.040251
0.039759
-0.028771
0.112446
-0.064854
0.070543
-0.017924
0.027569
-0.069963
-0.066176
-0.071619
0.096931
-0.005539
0.121626
0.013839
-0.039093
0.088440
-0.036133
0.104724
0.018616
0.110655
0.076171
0.080658
-0.009921
0.048373
0.075124
0.009701
0.123666
0.056749
-0.004474
-0.078016
-0.077069
0.022765
0.113718
-0.018083
0.024979
-0.042689
0.033289
0.105975
0.086559
-0.034271
-0.042310
0.093108
0.095283
0.034624
0.040355
0.073425
-0.032044
-0.023686
0.098690
0.019054
-0.058492
-0.056054
-0.053571
-0.025338
0.100291
0.108999
-0.043093
0.015266
0.077695
0.042692
0.108177
0.048426
0.004034
0.082171
-0.029807
-0.009603
0.102758
-0.062896
-0.049103
0.101166
0.046489
-0.055438
0.000358
0.011485
0.091404
0.083412
0.121940
-0.052049
0.128937
0.000209
-0.025090
0.120713
-0.066022
-0.015258
0.061358
-0.076241
0.052119
0.118570
-0.001705
0.007753
0.129772
-0.071008
0.041714
0.091589
0.088854
0.066885
0.042904
0.125416
-0.060823
0.128824
0.113531
0.059776
-0.059892
0.038216
-0.039061
-0.050138
0.071785
0.068557
0.031485
0.054572
0.023034
-0.015270
0.066099
0.025841
0.034378
0.070239
-0.057943
0.021276
-0.040903
0.102994
-0.040360
0.089186
-0.024726
-0.009326
0.071286
0.077258
0.045634
-0.038792
0.016502
-0.055922
0.097769
0.087006
0.042408
0.109047
-0.053693
0.117432
0.008771
-0.016198
0.047281
0.003170
-0.036906
-0.050899
-0.029723
0.037839
0.054769
0.035160
0.106503
0.110861
-0.037627
-0.058611
0.031291
0.034265
0.073275
0.068853
0.051097
0.065048
0.120885
0.081530
0.118917
-0.068227
0.059500
0.127062
0.063776
0.025973
0.083788
-0.031487
-0.006778
0.097056
0.016317
0.037637
0.021288
0.078714
0.081524
-0.026361
-0.029192
-0.021810
0.008726
-0.057242
-0.023068
-0.034802
0.012545
0.074231
0.086349
-0.034046
-0.045393
-0.061658
0.001252
-0.002585
0.040381
0.003888
0.105404
-0.063222
0.059911
-0.002370
0.029530
0.116215
-0.066540
0.077857
-0.050537
-0.048347
-0.040859
0.127174
-0.075279
0.011083
-0.068878
-0.007207
0.124319
-0.020592
0.102578
-0.026011
0.126210
-0.074320
0.067795
-0.063493
0.114091
0.127987
0.054892
-0.012592
0.006927
0.043535
-0.071717
-0.056345
0.031937
0.020753
0.074676
0.094263
0.112183
-0.045718
0.052015
-0.013042
-0.016089
0.026204
0.067287
0.023039
0.028271
0.030732
-0.055411
-0.018944
-0.040618
0.093800
0.027977
-0.021516
0.009375
0.061652
0.051814
0.075537
0.037479
0.108028
-0.010874
-0.051897
-0.058915
-0.063788
0.006122
0.071442
0.016684
0.000401
0.117124
0.094582
-0.003175
-0.067060
-0.010843
-0.018644
-0.032021
0.011828
0.018562
0.066740
-0.067216
-0.018853
-0.005337
-0.072561
0.057641
0.124433
0.065963
0.109316
-0.043906
0.032498
0.021244
-0.036682
0.101952
0.091814
0.020354
0.100062
0.040450
0.072699
-0.053423
-0.023159
0.042985
-0.038648
-0.039025
0.104998
-0.041810
0.014596
0.057793
0.080154
-0.027801
0.045377
0.002894
-0.057200
0.069734
0.035869
0.065310
0.103642
0.059704
0.048525
0.075672
-0.046628
-0.007562
-0.050962
0.010678
0.049199
0.122564
0.119166
0.084266
-0.028683
-0.060102
-0.035120
0.087591
0.081009
0.078753
0.122645
0.062277
-0.023277
0.053003
-0.021611
-0.073493
-0.000661
0.098539
0.075982
0.005072
0.032106
-0.049446
-0.013524
0.123502
0.109610
0.107833
-0.061702
-0.059008
0.089735
0.044343
0.023544
0.025331
0.125279
0.115746
0.111707
-0.060482
0.106394
0.033825
-0.014241
-0.041346
0.095120
-0.026944
0.032057
-0.052737
-0.054634
0.025251
0.024006
0.028386
0.091271
-0.015880
0.084930
-0.032614
0.023597
-0.036799
0.086963
-0.007264
-0.019957
0.069250
0.059404
-0.037584
0.087903
0.105217
0.043016
0.099162
0.107224
-0.056257
0.114675
-0.017111
0.101656
-0.034706
-0.053204
-0.048268
0.050069
0.031742
0.054635
-0.011770
0.066612
0.045064
0.039314
0.002368
0.097591
-0.049261
0.060379
0.120813
0.118171
0.121741
0.082401
-0.003446
-0.070785
-0.057234
0.020681
0.013959
0.028737
0.083113
-0.030800
-0.005828
0.072350
0.074007
0.013362
-0.020173
0.093185
0.103514
0.106463
0.018777
0.057390
0.037734
0.063382
0.016662
0.096029
-0.038387
0.048860
0.011880
0.008001
0.004276
0.005906
0.096077
-0.055962
0.076892
0.079572
-0.027228
-0.057424
-0.024534
-0.031942
0.084278
-0.046524
-0.043023
-0.008114
0.000564
0.063212
-0.069744
0.053869
-0.062113
-0.048030
-0.001471
-0.068963
0.055789
0.114395
0.079644
0.074154
0.011560
0.035496
-0.024216
-0.021494
-0.054551
0.119831
-0.050801
0.034381
0.068690
0.092404
-0.065478
0.046160
0.111266
0.045005
0.101893
-0.064360
0.099837
-0.038307
0.030731
-0.016859
-0.039655
-0.028174
-0.019972
-0.014181
-0.012308
0.027022
0.026991
0.023613
0.089208
0.082561
-0.030242
-0.034304
0.086988
-0.035809
-0.028760
0.009559
0.071181
0.046390
0.013789
-0.035439
0.045584
0.094586
0.080505
0.072320
-0.050167
0.005401
-0.018380
0.035218
-0.061076
0.034932
0.092195
0.095828
-0.002541
0.014518
0.060982
-0.036214
0.052686
0.073938
-0.011780
-0.000398
-0.004243
-0.062563
-0.064534
0.064106
0.056648
0.119049
0.112667
0.103674
0.099499
-0.068111
0.030198
0.090565
-0.008849
-0.016914
-0.026663
0.026608
0.079006
0.081070
0.016577
0.021452
-0.005470
0.070902
-0.018419
0.099461
0.041847
0.005749
-0.035967
0.040794
0.067797
0.000348
0.033639
-0.009099
0.078301
-0.025936
0.011260
-0.021360
0.048020
-0.052130
-0.015243
0.093760
-0.053239
-0.044910
-0.042191
0.089594
0.009947
-0.044197
-0.046864
0.064460
-0.057776
0.051898
-0.054555
0.119965
0.057539
0.109902
0.112986
0.085139
-0.033146
0.104980
0.036265
-0.022402
-0.025201
0.085453
-0.052798
0.076898
-0.014435
-0.039591
0.069596
0.093251
0.061295
0.099087
-0.059894
0.106846
-0.019767
0.046942
-0.006190
0.003515
0.058520
0.118128
0.104565
0.018181
0.116402
-0.054735
0.014098
0.097430
0.021764
-0.030397
0.029893
-0.049560
0.025468
0.025287
-0.035583
0.024668
-0.006899
0.002024
0.057483
0.011103
-0.050623
0.093142
0.100905
-0.048418
0.105424
-0.023330
0.002828
-0.045672
-0.036748
0.070468
-0.015340
0.111920
0.023947
0.043162
0.089903
0.067297
0.062191
0.009656
0.018058
0.087172
-0.032602
0.086214
0.031412
0.050782
-0.048537
-0.058116
-0.040583
0.054702
0.116359
0.102215
-0.053571
0.075028
0.007325
0.069266
-0.015285
-0.012822
0.097735
0.065119
-0.016763
-0.033071
0.019321
0.016924
-0.002601
0.037855
0.043244
-0.034214
0.049411
0.072549
0.015322
0.033297
-0.018341
-0.050557
-0.022785
-0.025118
0.075180
0.077483
0.048758
-0.009860