# vtk DataFile Version 2.0
Test
ASCII
DATASET POLYDATA
POINTS 5510 float
0.000000 0.000000 0.000000
0.080000 0.000000 0.000000
0.080000 0.160000 0.000000
0.000000 0.160000 0.000000
0.035000 0.076250 0.000000
0.046500 0.083750 0.000000
0.002000 0.000000 0.000000
0.004000 0.000000 0.000000
0.006000 0.000000 0.000000
0.008000 0.000000 0.000000
0.010000 0.000000 0.000000
0.012000 0.000000 0.000000
0.014000 0.000000 0.000000
0.016000 0.000000 0.000000
0.018000 0.000000 0.000000
0.020000 0.000000 0.000000
0.022000 0.000000 0.000000
0.024000 0.000000 0.000000
0.026000 0.000000 0.000000
0.028000 0.000000 0.000000
0.030000 0.000000 0.000000
0.032000 0.000000 0.000000
0.034000 0.000000 0.000000
0.036000 0.000000 0.000000
0.038000 0.000000 0.000000
0.040000 0.000000 0.000000
0.042000 0.000000 0.000000
0.044000 0.000000 0.000000
0.046000 0.000000 0.000000
0.048000 0.000000 0.000000
0.050000 0.000000 0.000000
0.052000 0.000000 0.000000
0.054000 0.000000 0.000000
0.056000 0.000000 0.000000
0.058000 0.000000 0.000000
0.060000 0.000000 0.000000
0.062000 0.000000 0.000000
0.064000 0.000000 0.000000
0.066000 0.000000 0.000000
0.068000 0.000000 0.000000
0.070000 0.000000 0.000000
0.072000 0.000000 0.000000
0.074000 0.000000 0.000000
0.076000 0.000000 0.000000
0.078000 0.000000 0.000000
0.080000 0.002000 0.000000
0.080000 0.004000 0.000000
0.080000 0.006000 0.000000
0.080000 0.008000 0.000000
0.080000 0.010000 0.000000
0.080000 0.012000 0.000000
0.080000 0.014000 0.000000
0.080000 0.016000 0.000000
0.080000 0.018000 0.000000
0.080000 0.020000 0.000000
0.080000 0.022000 0.000000
0.080000 0.024000 0.000000
0.080000 0.026000 0.000000
0.080000 0.028000 0.000000
0.080000 0.030000 0.000000
0.080000 0.032000 0.000000
0.080000 0.034000 0.000000
0.080000 0.036000 0.000000
0.080000 0.038000 0.000000
0.080000 0.040000 0.000000
0.080000 0.042000 0.000000
0.080000 0.044000 0.000000
0.080000 0.046000 0.000000
0.080000 0.048000 0.000000
0.080000 0.050000 0.000000
0.080000 0.052000 0.000000
0.080000 0.054000 0.000000
0.080000 0.056000 0.000000
0.080000 0.058000 0.000000
0.080000 0.060000 0.000000
0.080000 0.062000 0.000000
0.080000 0.064000 0.000000
0.080000 0.066000 0.000000
0.080000 0.068000 0.000000
0.080000 0.070000 0.000000
0.080000 0.072000 0.000000
0.080000 0.074000 0.000000
0.080000 0.076000 0.000000
0.080000 0.078000 0.000000
0.080000 0.080000 0.000000
0.080000 0.082000 0.000000
0.080000 0.084000 0.000000
0.080000 0.086000 0.000000
0.080000 0.088000 0.000000
0.080000 0.090000 0.000000
0.080000 0.092000 0.000000
0.080000 0.094000 0.000000
0.080000 0.096000 0.000000
0.080000 0.098000 0.000000
0.080000 0.100000 0.000000
0.080000 0.102000 0.000000
0.080000 0.104000 0.000000
0.080000 0.106000 0.000000
0.080000 0.108000 0.000000
0.080000 0.110000 0.000000
0.080000 0.112000 0.000000
0.080000 0.114000 0.000000
0.080000 0.116000 0.000000
0.080000 0.118000 0.000000
0.080000 0.120000 0.000000
0.080000 0.122000 0.000000
0.080000 0.124000 0.000000
0.080000 0.126000 0.000000
0.080000 0.128000 0.000000
0.080000 0.130000 0.000000
0.080000 0.132000 0.000000
0.080000 0.134000 0.000000
0.080000 0.136000 0.000000
0.080000 0.138000 0.000000
0.080000 0.140000 0.000000
0.080000 0.142000 0.000000
0.080000 0.144000 0.000000
0.080000 0.146000 0.000000
0.080000 0.148000 0.000000
0.080000 0.150000 0.000000
0.080000 0.152000 0.000000
0.080000 0.154000 0.000000
0.080000 0.156000 0.000000
0.080000 0.158000 0.000000
0.078000 0.160000 0.000000
0.076000 0.160000 0.000000
0.074000 0.160000 0.000000
0.072000 0.160000 0.000000
0.070000 0.160000 0.000000
0.068000 0.160000 0.000000
0.066000 0.160000 0.000000
0.064000 0.160000 0.000000
0.062000 0.160000 0.000000
0.060000 0.160000 0.000000
0.058000 0.160000 0.000000
0.056000 0.160000 0.000000
0.054000 0.160000 0.000000
0.052000 0.160000 0.000000
0.050000 0.160000 0.000000
0.048000 0.160000 0.000000
0.046000 0.160000 0.000000
0.044000 0.160000 0.000000
0.042000 0.160000 0.000000
0.040000 0.160000 0.000000
0.038000 0.160000 0.000000
0.036000 0.160000 0.000000
0.034000 0.160000 0.000000
0.032000 0.160000 0.000000
0.030000 0.160000 0.000000
0.028000 0.160000 0.000000
0.026000 0.160000 0.000000
0.024000 0.160000 0.000000
0.022000 0.160000 0.000000
0.020000 0.160000 0.000000
0.018000 0.160000 0.000000
0.016000 0.160000 0.000000
0.014000 0.160000 0.000000
0.012000 0.160000 0.000000
0.010000 0.160000 0.000000
0.008000 0.160000 0.000000
0.006000 0.160000 0.000000
0.004000 0.160000 0.000000
0.002000 0.160000 0.000000
0.000000 0.158000 0.000000
0.000000 0.156000 0.000000
0.000000 0.154000 0.000000
0.000000 0.152000 0.000000
0.000000 0.150000 0.000000
0.000000 0.148000 0.000000
0.000000 0.146000 0.000000
0.000000 0.144000 0.000000
0.000000 0.142000 0.000000
0.000000 0.140000 0.000000
0.000000 0.138000 0.000000
0.000000 0.136000 0.000000
0.000000 0.134000 0.000000
0.000000 0.132000 0.000000
0.000000 0.130000 0.000000
0.000000 0.128000 0.000000
0.000000 0.126000 0.000000
0.000000 0.124000 0.000000
0.000000 0.122000 0.000000
0.000000 0.120000 0.000000
0.000000 0.118000 0.000000
0.000000 0.116000 0.000000
0.000000 0.114000 0.000000
0.000000 0.112000 0.000000
0.000000 0.110000 0.000000
0.000000 0.108000 0.000000
0.000000 0.106000 0.000000
0.000000 0.104000 0.000000
0.000000 0.102000 0.000000
0.000000 0.100000 0.000000
0.000000 0.098000 0.000000
0.000000 0.096000 0.000000
0.000000 0.094000 0.000000
0.000000 0.092000 0.000000
0.000000 0.090000 0.000000
0.000000 0.088000 0.000000
0.000000 0.086000 0.000000
0.000000 0.084000 0.000000
0.000000 0.082000 0.000000
0.000000 0.080000 0.000000
0.000000 0.078000 0.000000
0.000000 0.076000 0.000000
0.000000 0.074000 0.000000
0.000000 0.072000 0.000000
0.000000 0.070000 0.000000
0.000000 0.068000 0.000000
0.000000 0.066000 0.000000
0.000000 0.064000 0.000000
0.000000 0.062000 0.000000
0.000000 0.060000 0.000000
0.000000 0.058000 0.000000
0.000000 0.056000 0.000000
0.000000 0.054000 0.000000
0.000000 0.052000 0.000000
0.000000 0.050000 0.000000
0.000000 0.048000 0.000000
0.000000 0.046000 0.000000
0.000000 0.044000 0.000000
0.000000 0.042000 0.000000
0.000000 0.040000 0.000000
0.000000 0.038000 0.000000
0.000000 0.036000 0.000000
0.000000 0.034000 0.000000
0.000000 0.032000 0.000000
0.000000 0.030000 0.000000
0.000000 0.028000 0.000000
0.000000 0.026000 0.000000
0.000000 0.024000 0.000000
0.000000 0.022000 0.000000
0.000000 0.020000 0.000000
0.000000 0.018000 0.000000
0.000000 0.016000 0.000000
0.000000 0.014000 0.000000
0.000000 0.012000 0.000000
0.000000 0.010000 0.000000
0.000000 0.008000 0.000000
0.000000 0.006000 0.000000
0.000000 0.004000 0.000000
0.000000 0.002000 0.000000
0.035411 0.076518 0.000000
0.035821 0.076786 0.000000
0.036232 0.077054 0.000000
0.036643 0.077321 0.000000
0.037054 0.077589 0.000000
0.037464 0.077857 0.000000
0.037875 0.078125 0.000000
0.038286 0.078393 0.000000
0.038696 0.078661 0.000000
0.039107 0.078929 0.000000
0.039518 0.079196 0.000000
0.039929 0.079464 0.000000
0.040339 0.079732 0.000000
0.040750 0.080000 0.000000
0.041161 0.080268 0.000000
0.041571 0.080536 0.000000
0.041982 0.080804 0.000000
0.042393 0.081071 0.000000
0.042804 0.081339 0.000000
0.043214 0.081607 0.000000
0.043625 0.081875 0.000000
0.044036 0.082143 0.000000
0.044446 0.082411 0.000000
0.044857 0.082679 0.000000
0.045268 0.082946 0.000000
0.045679 0.083214 0.000000
0.046089 0.083482 0.000000
0.040000 0.002000 0.000000
0.040001 0.158005 0.000000
0.002000 0.116000 0.000000
0.078000 0.048000 0.000000
0.002000 0.106000 0.000000
0.078000 0.058000 0.000000
0.001986 0.042173 0.000000
0.078015 0.117826 0.000000
0.001985 0.094174 0.000000
0.001985 0.084174 0.000000
0.001914 0.056074 0.000000
0.002000 0.072000 0.000000
0.078015 0.065826 0.000000
0.078016 0.075826 0.000000
0.078000 0.088000 0.000000
0.078000 0.104000 0.000000
0.078003 0.029997 0.000000
0.001998 0.130002 0.000000
0.002000 0.032000 0.000000
0.078013 0.128003 0.000000
0.056000 0.158000 0.000000
0.026000 0.002000 0.000000
0.060000 0.002000 0.000000
0.020000 0.158000 0.000000
0.002000 0.020000 0.000000
0.078000 0.142000 0.000000
0.002000 0.146000 0.000000
0.078000 0.020000 0.000000
0.016000 0.002000 0.000000
0.068000 0.002000 0.000000
0.066000 0.158000 0.000000
0.002000 0.014000 0.000000
0.008000 0.158000 0.000000
0.010000 0.002000 0.000000
0.078000 0.148000 0.000000
0.078000 0.008000 0.000000
0.078005 0.037995 0.000000
0.051991 0.001990 0.000000
0.028000 0.158000 0.000000
0.002000 0.008000 0.000000
0.078000 0.094000 0.000000
0.078000 0.110000 0.000000
0.001983 0.066159 0.000000
0.002000 0.050000 0.000000
0.046000 0.158000 0.000000
0.078000 0.134000 0.000000
0.002000 0.140000 0.000000
0.006000 0.002000 0.000000
0.002000 0.154000 0.000000
0.074000 0.002000 0.000000
0.078000 0.152000 0.000000
0.074000 0.158000 0.000000
0.078000 0.080000 0.000000
0.078000 0.070000 0.000000
0.078000 0.122000 0.000000
0.002000 0.090000 0.000000
0.002000 0.080000 0.000000
0.002000 0.038000 0.000000
0.002000 0.102000 0.000000
0.002000 0.112000 0.000000
0.036000 0.002000 0.000000
0.078000 0.042000 0.000000
0.032000 0.002000 0.000000
0.047987 0.001989 0.000000
0.032008 0.158010 0.000000
0.002000 0.028000 0.000000
0.002000 0.126000 0.000000
0.060000 0.158000 0.000000
0.022000 0.002000 0.000000
0.002000 0.136000 0.000000
0.078000 0.024000 0.000000
0.012000 0.158000 0.000000
0.078000 0.158000 0.000000
0.001947 0.003947 0.000000
0.002000 0.158000 0.000000
0.078000 0.012000 0.000000
0.078000 0.096000 0.000000
0.078000 0.098000 0.000000
0.078000 0.082000 0.000000
0.078111 0.099889 0.000000
0.078035 0.083965 0.000000
0.078000 0.090000 0.000000
0.078000 0.106000 0.000000
0.078000 0.072000 0.000000
0.078000 0.112000 0.000000
0.078043 0.061976 0.000000
0.078000 0.114000 0.000000
0.002000 0.064000 0.000000
0.002000 0.062000 0.000000
0.002000 0.088000 0.000000
0.002000 0.078000 0.000000
0.002000 0.060000 0.000000
0.001966 0.076034 0.000000
0.002000 0.070000 0.000000
0.002000 0.054000 0.000000
0.001957 0.098024 0.000000
0.002000 0.048000 0.000000
0.002000 0.046000 0.000000
[...]
POINT_DATA 5510
SCALARS UX float 1
LOOKUP_TABLE default
-0.003231
0.000169
0.000000
-0.003328
-0.001882
-0.001224
-0.003145
-0.003060
-0.002974
-0.002889
-0.002803
-0.002718
-0.002633
-0.002548
-0.002463
-0.002378
-0.002293
-0.002208
-0.002123
-0.002038
-0.001954
-0.001869
-0.001785
-0.001700
-0.001616
-0.001531
-0.001447
-0.001362
-0.001278
-0.001193
-0.001109
-0.001024
-0.000939
-0.000854
-0.000770
-0.000685
-0.000600
-0.000514
-0.000429
-0.000344
-0.000259
-0.000173
-0.000088
-0.000002
0.000083
0.000169
0.000169
0.000169
0.000169
0.000169
0.000169
0.000169
0.000169
0.000169
0.000169
0.000169
0.000169
0.000169
0.000170
0.000170
0.000171
0.000172
0.000173
0.000174
0.000176
0.000178
0.000180
0.000183
0.000185
0.000188
0.000192
0.000196
0.000200
0.000204
0.000209
0.000213
0.000217
0.000220
0.000223
0.000225
0.000227
0.000226
0.000225
0.000222
0.000217
0.000211
0.000203
0.000194
0.000184
0.000174
0.000163
0.000153
0.000143
0.000133
0.000124
0.000116
0.000108
0.000101
0.000096
0.000091
0.000087
0.000083
0.000080
0.000078
0.000076
0.000074
0.000073
0.000072
0.000072
0.000071
0.000071
0.000071
0.000070
0.000070
0.000071
0.000071
0.000071
0.000071
0.000072
0.000072
0.000073
0.000074
0.000073
0.000060
-0.000000
-0.000090
-0.000179
-0.000266
-0.000352
-0.000438
-0.000524
-0.000609
-0.000694
-0.000780
-0.000865
-0.000950
-0.001034
-0.001119
-0.001204
-0.001289
-0.001373
-0.001458
-0.001542
-0.001627
-0.001712
-0.001796
-0.001881
-0.001965
-0.002050
-0.002135
-0.002220
-0.002304
-0.002389
-0.002474
-0.002560
-0.002645
-0.002730
-0.002815
-0.002901
-0.002986
-0.003072
-0.003157
-0.003243
-0.003328
-0.003328
-0.003328
-0.003328
-0.003328
-0.003328
-0.003328
-0.003328
-0.003329
-0.003329
-0.003329
-0.003329
-0.003330
-0.003330
-0.003331
-0.003332
-0.003333
-0.003334
-0.003335
-0.003337
-0.003339
-0.003341
-0.003344
-0.003347
-0.003350
-0.003353
-0.003357
-0.003360
-0.003364
-0.003368
-0.003372
-0.003375
-0.003378
-0.003381
-0.003382
-0.003383
-0.003382
-0.003381
-0.003377
-0.003372
-0.003367
-0.003360
-0.003351
-0.003342
-0.003333
-0.003323
-0.003313
-0.003303
-0.003294
-0.003286
-0.003278
-0.003271
-0.003264
-0.003258
-0.003253
-0.003249
-0.003245
-0.003242
-0.003240
-0.003238
-0.003236
-0.003234
-0.003233
-0.003233
-0.003232
-0.003231
-0.003231
-0.003231
-0.003231
-0.003231
-0.003231
-0.003231
-0.003231
-0.003231
-0.003231
-0.003231
-0.003231
-0.003231
-0.003231
-0.001856
-0.001831
-0.001795
-0.001761
-0.001733
-0.001713
-0.001692
-0.001668
-0.001652
-0.001629
-0.001609
-0.001593
-0.001571
-0.001549
-0.001523
-0.001498
-0.001474
-0.001449
-0.001426
-0.001411
-0.001394
-0.001376
-0.001356
-0.001336
-0.001312
-0.001285
-0.001259
-0.001531
-0.001627
-0.003255
0.000099
-0.003271
0.000119
-0.003154
-0.000008
-0.003294
-0.003298
-0.003187
-0.003257
0.000136
0.000142
0.000099
0.000021
0.000085
-0.003245
-0.003146
-0.000014
-0.000950
-0.002123
-0.000685
-0.002474
-0.003145
-0.000015
-0.003243
0.000083
-0.002548
-0.000344
-0.000524
-0.003145
-0.002986
-0.002803
-0.000014
0.000083
0.000088
-0.001024
-0.002135
-0.003145
0.000067
0.000004
-0.003229
-0.003166
-0.001373
-0.000016
-0.003243
-0.002974
-0.003243
-0.000088
-0.000014
-0.000181
0.000133
0.000141
-0.000012
-0.003298
-0.003289
-0.003149
-0.003279
-0.003260
-0.001700
0.000092
-0.001869
-0.001194
-0.001965
-0.003145
-0.003247
-0.000780
-0.002293
-0.003244
0.000083
-0.002815
-0.000018
-0.003148
-0.003243
0.000083
0.000056
0.000046
0.000127
0.000042
0.000120
0.000089
0.000014
0.000143
-0.000000
0.000129
-0.000004
-0.003217
-0.003208
-0.003299
-0.003283
-0.003199
-0.003277
-0.003247
-0.003177
-0.003288
-0.003162
-0.003159
0.000110
0.000095
0.000102
-0.003264
-0.003251
-0.000013
-0.003148
-0.001362
-0.001796
-0.001542
0.000086
-0.001289
-0.001204
-0.003248
-0.001954
-0.000854
-0.002304
-0.003145
-0.000015
-0.000016
-0.003145
-0.000015
-0.003244
-0.001119
0.000084
-0.003243
-0.000694
-0.002378
-0.000514
-0.002645
-0.000015
0.000083
-0.003243
-0.003145
-0.003145
-0.000438
-0.002633
-0.000353
-0.000013
-0.003157
-0.003068
-0.003163
0.000083
-0.000173
0.000083
-0.003178
0.000016
-0.003218
-0.003210
-0.003176
-0.003117
-0.003083
0.000055
0.000018
-0.000035
0.000061
-0.000083
-0.001625
-0.003163
-0.000100
-0.003066
-0.001870
-0.001120
-0.003060
-0.000101
-0.002293
-0.003158
-0.000002
-0.000780
-0.003059
-0.002548
-0.003157
-0.000439
-0.000062
0.000015
-0.003059
-0.000100
-0.000088
0.000042
-0.000038
-0.000016
-0.003198
-0.003123
-0.003144
-0.003076
0.000081
0.000113
0.000032
0.000141
0.000145
0.000011
0.000141
-0.000005
-0.003240
-0.003300
-0.003270
-0.003298
-0.003193
-0.003296
-0.003173
-0.003158
0.000133
-0.003292
0.000125
-0.003284
0.000116
-0.000009
-0.003276
-0.003153
0.000108
-0.003268
-0.003259
0.000097
-0.003254
0.000091
-0.003250
-0.001448
-0.001711
-0.001616
-0.001457
-0.001279
-0.001880
-0.000013
-0.003148
0.000087
-0.001785
-0.001109
-0.002050
-0.001288
-0.000940
-0.002219
-0.003246
-0.003146
-0.000015
0.000085
-0.003059
-0.002039
-0.000101
-0.001035
-0.000770
-0.002389
-0.003145
-0.000015
-0.003244
0.000084
-0.003243
-0.000865
-0.002208
-0.003243
0.000083
-0.000609
-0.002463
-0.002560
-0.000600
-0.002730
-0.000429
-0.000015
-0.003145
-0.002901
0.000083
-0.003243
-0.000014
0.000083
-0.003145
-0.002718
-0.003243
-0.000267
0.000083
-0.000014
-0.002889
-0.003145
-0.003072
-0.003060
-0.000259
-0.000096
-0.003157
-0.003243
0.000083
-0.000002
-0.000002
-0.003202
0.000043
-0.003039
-0.001279
-0.000123
-0.002975
-0.002051
-0.000939
-0.002390
-0.000600
-0.000003
-0.002730
-0.000100
0.000003
-0.001614
-0.002901
-0.003157
0.000005
-0.000087
-0.003164
0.000059
0.000062
-0.003217
-0.003220
0.000065
0.000062
-0.003220
-0.003217
0.000037
-0.003197
-0.000088
-0.003063
-0.001879
-0.003061
-0.000001
-0.000101
-0.003161
-0.002039
-0.002208
-0.002463
-0.000429
-0.003157
-0.003158
-0.002718
-0.003060
-0.003157
-0.000003
-0.000003
-0.000268
-0.000100
-0.000003
-0.000088
0.000009
0.000033
-0.003167
-0.000041
-0.003189
-0.000082
-0.003110
-0.003094
0.000021
0.000065
-0.003221
-0.003078
-0.003070
-0.003177
-0.003171
-0.000072
-0.000067
0.000025
0.000021
-0.003186
-0.003182
-0.001713
-0.000024
0.000048
-0.003166
-0.003136
-0.003204
-0.000077
0.000006
0.000009
-0.003081
-0.003064
-0.000098
-0.001110
-0.001784
-0.001371
-0.001445
-0.001459
-0.000100
-0.003162
-0.002220
-0.001036
-0.001954
-0.000002
-0.000002
-0.003159
-0.003158
-0.000101
-0.000770
-0.003060
-0.003059
-0.001204
-0.000101
-0.002377
-0.001543
-0.000865
-0.002560
-0.000610
-0.000695
-0.000524
-0.003157
-0.002633
-0.000259
-0.003059
-0.003059
-0.002889
-0.000173
-0.000354
-0.002974
-0.000002
-0.000100
-0.000100
-0.003157
-0.003060
-0.003072
-0.002987
-0.000074
-0.003111
-0.000164
-0.003140
-0.003145
-0.003089
-0.001535
-0.000011
-0.000012
-0.000077
-0.003082
-0.000182
-0.001120
-0.001787
-0.000087
-0.000186
-0.003073
-0.002208
-0.000695
-0.002973
-0.002463
-0.003072
-0.002974
-0.003015
-0.003030
-0.000150
-0.000355
-0.000043
-0.003118
-0.002995
-0.000057
-0.000103
-0.003060
-0.002976
-0.002981
-0.003078
-0.001955
-0.002633
-0.000101
-0.003071
-0.000185
-0.000127
-0.000076
-0.000154
-0.003085
0.000063
0.000059
-0.003218
-0.003217
0.000048
-0.003207
-0.003172
-0.000029
-0.000120
-0.003048
0.000038
-0.003198
-0.003080
-0.003126
-0.000090
-0.003168
-0.003102
-0.003086
-0.001454
-0.001708
-0.001963
-0.000011
-0.003145
0.000004
-0.003189
-0.003001
0.000028
-0.001026
-0.001700
-0.001531
-0.001196
-0.000094
-0.000096
0.000002
-0.003062
-0.000060
-0.000950
-0.000001
-0.002135
-0.003160
-0.000187
-0.000185
-0.001288
-0.002123
-0.003059
-0.003101
-0.003102
-0.000854
-0.002305
-0.000087
-0.000088
-0.002975
-0.003073
-0.003072
-0.000865
-0.000610
-0.000186
-0.000685
-0.002475
-0.003157
-0.002377
-0.001796
-0.000003
-0.002974
-0.000101
-0.002645
-0.000515
-0.000525
-0.000344
-0.000003
-0.000173
-0.002803
-0.000100
-0.003157
-0.000003
-0.002974
-0.002815
-0.000088
-0.000002
-0.003060
-0.000185
-0.000184
-0.003071
-0.002986
-0.001362
-0.000148
-0.003033
-0.003006
-0.002965
-0.000152
-0.001461
-0.002989
-0.000269
-0.001279
-0.000171
-0.002891
-0.002051
-0.000939
-0.000515
-0.000695
-0.002390
-0.002378
-0.000088
-0.000038
-0.002645
-0.000173
-0.002815
-0.000189
-0.003122
-0.000081
-0.000271
-0.003027
-0.000013
-0.003153
-0.003130
-0.003142
-0.000029
-0.000016
-0.001614
-0.003075
-0.000950
-0.002974
-0.002124
-0.000088
-0.000186
-0.002974
-0.002986
-0.003017
-0.000008
-0.003148
-0.002990
-0.000221
-0.003107
-0.000061
-0.000161
-0.003117
-0.000045
-0.000051
-0.002977
-0.000068
-0.003113
-0.003094
-0.003098
-0.003085
-0.000021
-0.003131
-0.000048
-0.000181
-0.000171
-0.003112
-0.001703
-0.001879
-0.001790
-0.000097
-0.003064
-0.000015
-0.003142
-0.000140
-0.002984
-0.000085
-0.000076
-0.003006
-0.001110
-0.000166
-0.003076
-0.003079
-0.001448
-0.001036
-0.003097
-0.002974
-0.002039
-0.000184
-0.001871
-0.002136
-0.002977
-0.002979
-0.000064
-0.002998
-0.000088
-0.000854
-0.001204
-0.000083
-0.001371
-0.003072
-0.003072
-0.000186
-0.000186
-0.002890
-0.002475
-0.000685
-0.002974
-0.002293
-0.000344
-0.000780
-0.002548
-0.000610
-0.002974
-0.002220
-0.000186
-0.000186
-0.000259
-0.000088
-0.000088
-0.002803
-0.002718
-0.002974
-0.002889
-0.003072
-0.000440
-0.003071
-0.003071
-0.001625
-0.000270
-0.000185
-0.000156
-0.000117
-0.003074
-0.003060
-0.002924
-0.002901
-0.000081
-0.000092
-0.001620
-0.002052
-0.000938
-0.002390
-0.001036
-0.000695
-0.002987
-0.002888
-0.003011
-0.000271
-0.002906
-0.001955
-0.000130
-0.000078
-0.003079
-0.002888
-0.002548
-0.002718
-0.002986
-0.002986
-0.001707
-0.000168
-0.000196
-0.000118
-0.000145
-0.003042
-0.003010
-0.002992
-0.000135
-0.000221
-0.002944
-0.000169
-0.000270
-0.000085
-0.002124
-0.000173
-0.002293
-0.002889
-0.000271
-0.000355
-0.001543
-0.003000
-0.002994
-0.002991
-0.000171
-0.000197
-0.003017
-0.000239
-0.000248
-0.002984
-0.000020
-0.003138
-0.003036
-0.003043
-0.003126
-0.000034
-0.000050
-0.000170
-0.000176
-0.000088
-0.003067
-0.002956
-0.001379
-0.001287
-0.002901
-0.001797
-0.000268
-0.000263
-0.002896
-0.001966
-0.003022
-0.002916
-0.000079
-0.001024
-0.000949
-0.001194
-0.000270
-0.001365
-0.002890
-0.000140
-0.000172
-0.001788
-0.003018
-0.002988
-0.002988
-0.002894
-0.000088
-0.002304
-0.000770
-0.002890
-0.000271
-0.002463
-0.000173
-0.000865
-0.000780
-0.001204
-0.000085
-0.002136
-0.002559
-0.000430
-0.002986
-0.000600
-0.002889
-0.000186
-0.000259
-0.000173
-0.000088
-0.000525
-0.002730
-0.000270
-0.000173
-0.002803
-0.002889
-0.002901
-0.003071
-0.001531
-0.003068
-0.003020
-0.000014
-0.003141
-0.002826
-0.002959
-0.000210
-0.002944
-0.003008
-0.000226
-0.000151
-0.001461
-0.000350
-0.002808
-0.002907
-0.002053
-0.000253
-0.000355
-0.002293
-0.000685
-0.002902
-0.001715
-0.002806
-0.002645
-0.000237
-0.000237
-0.003059
-0.003049
-0.000099
-0.000112
-0.000129
-0.001287
-0.001033
-0.000256
-0.001448
-0.000162
-0.001279
-0.002904
-0.000256
-0.002306
-0.002463
-0.000271
-0.000515
-0.000344
-0.002986
-0.002908
-0.003069
-0.000088
-0.000244
-0.000140
-0.000112
-0.003018
-0.002921
-0.003041
-0.003059
-0.000099
-0.000239
-0.000149
-0.000128
-0.000211
-0.002953
-0.000294
-0.002927
-0.002888
-0.002934
-0.002899
-0.000088
-0.000265
-0.003069
-0.002953
-0.003034
-0.001537
-0.000166
-0.002992
-0.000168
-0.001023
-0.000269
-0.002920
-0.000353
-0.000159
-0.000093
-0.001193
-0.002813
-0.003018
-0.002996
-0.002220
-0.002040
-0.000271
-0.000173
-0.000173
-0.000865
-0.002209
-0.002806
-0.002987
-0.001967
-0.001881
-0.001705
-0.002888
-0.000145
-0.000780
-0.000271
-0.000173
-0.001120
-0.002986
-0.000611
-0.002889
-0.002633
-0.002730
-0.002901
-0.002718
-0.000854
-0.002986
-0.002474
-0.000259
-0.000259
-0.002889
-0.000356
-0.000271
-0.002803
-0.000440
-0.001871
-0.001626
-0.003003
-0.003061
-0.003088
-0.002946
-0.002912
-0.000085
-0.000169
-0.003052
-0.000107
-0.000204
-0.000100
-0.000239
-0.002892
-0.000186
-0.002857
-0.002875
-0.002817
-0.001456
-0.002725
-0.001872
-0.001022
-0.002931
-0.000864
-0.000258
-0.002390
-0.002803
-0.002974
-0.003008
-0.000149
-0.000356
-0.000259
-0.002645
-0.002901
-0.002998
-0.000149
-0.000319
-0.000215
-0.000160
-0.000186
-0.000191
-0.000193
-0.000205
-0.002819
-0.001633
-0.002995
-0.002918
-0.001117
-0.002902
-0.002040
-0.002209
-0.000696
-0.002633
-0.000441
-0.001622
-0.003005
-0.000149
-0.002967
-0.002839
-0.000242
-0.000277
-0.000299
-0.002846
-0.002851
-0.002968
-0.000321
-0.002964
-0.002875
-0.002887
-0.000254
-0.002820
-0.002921
-0.002951
-0.000159
-0.001367
-0.000345
-0.002999
-0.000321
-0.001543
-0.000335
-0.001885
-0.001797
-0.002911
-0.000250
-0.000260
-0.001204
-0.000352
-0.001109
-0.002806
-0.000242
-0.002945
-0.001365
-0.002905
-0.000219
-0.002903
-0.000256
-0.002221
-0.002136
-0.002941
-0.002815
-0.000948
-0.000354
-0.000165
-0.000770
-0.002999
-0.000156
-0.002803
-0.002718
-0.002909
-0.002378
-0.000356
-0.000356
-0.002559
-0.002901
-0.002548
-0.000430
-0.000174
-0.000355
-0.002839
-0.000257
-0.000526
-0.000600
-0.000344
-0.002901
-0.002803
-0.002805
-0.000344
-0.002803
-0.002815
-0.001788
-0.002901
-0.000938
-0.000252
-0.001969
-0.002876
-0.000241
-0.000267
-0.002982
-0.000177
-0.000249
-0.000154
-0.002952
-0.002754
-0.000321
-0.002903
-0.000256
-0.002938
-0.000276
-0.000210
-0.000331
-0.001624
-0.000427
-0.002830
-0.001290
-0.001970
-0.001788
-0.000335
-0.002820
-0.001022
-0.002210
-0.000437
-0.002722
-0.002817
-0.000223
-0.002933
-0.002719
-0.000441
-0.000340
-0.002463
-0.000685
-0.000344
-0.000248
-0.002138
-0.002560
-0.000259
-0.002633
-0.002718
-0.002816
-0.000309
-0.002887
-0.000163
-0.002995
-0.000206
-0.002780
-0.000224
-0.002960
-0.002940
-0.002893
-0.000200
-0.000230
-0.002973
-0.002818
-0.000286
-0.002891
-0.002874
-0.000161
-0.000190
-0.000342
-0.000313
-0.000331
-0.001282
-0.001382
-0.002915
-0.001715
-0.001374
-0.002857
-0.002861
-0.000245
-0.000434
-0.001803
-0.002992
-0.002922
-0.001200
-0.001193
-0.002879
-0.000295
-0.001108
-0.000217
-0.002937
-0.000285
-0.003008
-0.002733
-0.002745
-0.002824
-0.000336
-0.000356
-0.002819
-0.001032
-0.000337
-0.002941
-0.001956
-0.000257
-0.000225
-0.002125
-0.002474
-0.000258
-0.000948
-0.000430
-0.002294
-0.002804
-0.002816
-0.000780
-0.000441
-0.002730
-0.000439
-0.000600
-0.002723
-0.000356
-0.000154
-0.002849
-0.002306
-0.000526
-0.000611
-0.002815
-0.002901
-0.000854
-0.001705
-0.002746
-0.001539
-0.000225
-0.002930
-0.002887
-0.000357
-0.001461
-0.000177
-0.002836
-0.002828
-0.000170
-0.002989
-0.000203
-0.002833
-0.000322
-0.002958
-0.000299
-0.002981
-0.002674
-0.002817
-0.002866
-0.002927
-0.000290
-0.002822
-0.002752
-0.000347
-0.001634
-0.002648
-0.001282
-0.000419
-0.002737
-0.002210
-0.000947
-0.000404
-0.002733
-0.002390
-0.002560
-0.001457
-0.002795
-0.000684
-0.002808
-0.002899
-0.000244
-0.002915
-0.000291
-0.002784
-0.000327
-0.000221
-0.001957
-0.000696
-0.002720
-0.002126
-0.002806
-0.000342
-0.002633
-0.000526
-0.002816
-0.002731
-0.002763
-0.000333
-0.002909
-0.000392
-0.002915
-0.000376
-0.000310
-0.000234
-0.002924
-0.002819
-0.000247
-0.000269
-0.002737
-0.000356
-0.000225
-0.001379
-0.002931
-0.000276
-0.000420
-0.002838
-0.002853
-0.002863
-0.002935
-0.001354
-0.000324
-0.001723
-0.000431
-0.000219
-0.002723
-0.001106
-0.000338
-0.000439
-0.000222
-0.002932
-0.002806
-0.001276
-0.002827
-0.002869
-0.000297
-0.002721
-0.002053
-0.002773
-0.000435
-0.000258
-0.001872
-0.000341
-0.002864
-0.000343
-0.000441
-0.001115
-0.000770
-0.002822
-0.000864
-0.002548
-0.002816
-0.002718
-0.000339
-0.000441
-0.000438
-0.000429
-0.002818
-0.002643
-0.001622
-0.001705
-0.002378
-0.000343
-0.000342
-0.002222
-0.000515
-0.000938
-0.000306
-0.002834
-0.000364
-0.001543
-0.001887
-0.000238
-0.000259
-0.002734
-0.000318
-0.000409
-0.002899
-0.000271
-0.002753
-0.000385
-0.000136
-0.002948
-0.002914
-0.002901
-0.000402
-0.002748
-0.000324
-0.002873
-0.002757
-0.000289
-0.000274
-0.000404
-0.001644
-0.000500
-0.002762
-0.001377
-0.001706
-0.002567
-0.001022
-0.002055
-0.000424
-0.000517
-0.000947
-0.002639
-0.000522
-0.002833
-0.002787
-0.001359
-0.000424
-0.000378
-0.002673
-0.000402
-0.000416
-0.001553
-0.002749
-0.000390
-0.000431
-0.002127
-0.000289
-0.002636
-0.002379
-0.000426
-0.001874
-0.000769
-0.002733
-0.002549
-0.000514
-0.000335
-0.002709
-0.000307
-0.002850
-0.002784
-0.000278
-0.002796
-0.002656
-0.000412
-0.000282
-0.000291
-0.002872
-0.002865
-0.002920
-0.002758
-0.002846
-0.002872
-0.001467
-0.000511
-0.000283
-0.000313
-0.002846
-0.002804
-0.002742
-0.000523
-0.000525
-0.000410
-0.002760
-0.001193
-0.002739
-0.000360
-0.002773
-0.000394
-0.000854
-0.002735
-0.002042
-0.002865
-0.001887
-0.002822
-0.000343
-0.002731
-0.002824
-0.002474
-0.000610
-0.000600
-0.001030
-0.000303
-0.001198
-0.000428
-0.002645
-0.002295
-0.002305
-0.000421
-0.000428
-0.002634
-0.000780
-0.000519
-0.002641
-0.002732
-0.002138
-0.002668
-0.002774
-0.000226
-0.001539
-0.000330
-0.001805
-0.000379
-0.002828
-0.002887
-0.000400
-0.000266
-0.000457
-0.002678
-0.000442
-0.002874
-0.002904
-0.002851
-0.000262
-0.002641
-0.002815
-0.002689
-0.000398
-0.000441
-0.000338
-0.000479
-0.000499
-0.002767
-0.002056
-0.002661
-0.002652
-0.000598
-0.002127
-0.002733
-0.000605
-0.000769
-0.000349
-0.002729
-0.002474
-0.000779
-0.002865
-0.001435
-0.002742
-0.000484
-0.000319
-0.002649
-0.001030
-0.000609
-0.002646
-0.002550
-0.000427
-0.002295
-0.000413
-0.001805
-0.002597
-0.002709
-0.001578
-0.000370
-0.000333
-0.000488
-0.001304
-0.002574
-0.000286
-0.002777
-0.002815
-0.000408
-0.002835
-0.002756
-0.000401
-0.002742
-0.000506
-0.000369
-0.000286
-0.002868
-0.002640
-0.002710
-0.002754
-0.000300
-0.000432
-0.000323
-0.001193
-0.000411
-0.000399
-0.000281
-0.002795
-0.002746
-0.001969
-0.000514
-0.002637
-0.000598
-0.000425
-0.001790
-0.002801
-0.002745
-0.002829
-0.000325
-0.000355
-0.001959
-0.000427
-0.002464
-0.001114
-0.002635
-0.002868
-0.002731
-0.000524
-0.000374
-0.002044
-0.000521
-0.000322
-0.002788
-0.000863
-0.000512
-0.000502
-0.000408
-0.002306
-0.002222
-0.001623
-0.002561
-0.002692
-0.002687
-0.000513
-0.000423
-0.000939
-0.002657
-0.001105
-0.002661
-0.002826
-0.001724
-0.001457
-0.001280
-0.000447
-0.002798
-0.002770
-0.000477
-0.000473
-0.000468
-0.000302
-0.002852
-0.000307
-0.002851
-0.000543
-0.002680
-0.000390
-0.002697
-0.002758
-0.000349
-0.000459
-0.001655
-0.001623
-0.000581
-0.002494
-0.001275
-0.001022
-0.002580
-0.000508
-0.001029
-0.000478
-0.002771
-0.002683
-0.002712
-0.002555
-0.000505
-0.000433
-0.000863
-0.000355
-0.000462
-0.000476
-0.000602
-0.000358
-0.001972
-0.002466
-0.000597
-0.000510
-0.000511
-0.001792
-0.000608
-0.002647
-0.002223
-0.000531
-0.000579
-0.000506
-0.000371
-0.002788
-0.002736
-0.000343
-0.000338
-0.002757
-0.002864
-0.000344
-0.000482
-0.000495
-0.002723
-0.000423
-0.002592
-0.000388
-0.000554
-0.001376
-0.002679
-0.000446
-0.000583
-0.000594
-0.000600
-0.002699
-0.000351
-0.002670
-0.000342
-0.000353
-0.002802
-0.002665
-0.002811
-0.002778
-0.000380
-0.001887
-0.002732
-0.000694
-0.002705
-0.002379
-0.002558
-0.002551
-0.002654
-0.002791
-0.000606
-0.002648
-0.002550
-0.000855
-0.001876
-0.002044
-0.002691
-0.000490
-0.001196
-0.001112
-0.002139
-0.000684
-0.002701
-0.002591
-0.002211
-0.001540
-0.002650
-0.002560
-0.000504
-0.002486
-0.001189
-0.002390
-0.000382
-0.002778
-0.002603
-0.002850
-0.001726
-0.001361
-0.002808
-0.002794
-0.002778
-0.000466
-0.002619
-0.002638
-0.000368
-0.000352
-0.002805
-0.001506
-0.000437
-0.002616
-0.002724
-0.002634
-0.000398
-0.000509
-0.000633
-0.001638
-0.002415
-0.001362
-0.001794
-0.002045
-0.002057
-0.000674
-0.002751
-0.000545
-0.002569
-0.002521
-0.000421
-0.000451
-0.002666
-0.002672
-0.000449
-0.002711
-0.000492
-0.000395
-0.002730
-0.000684
-0.000688
-0.002390
-0.002565
-0.002296
-0.002468
-0.000595
-0.000852
-0.000577
-0.000554
-0.002563
-0.002569
-0.001540
-0.002708
-0.002800
-0.002743
-0.000537
-0.000412
-0.000435
-0.002681
-0.002650
-0.002685
-0.000347
-0.002803
-0.000491
-0.000470
-0.002647
-0.002761
-0.002517
-0.000359
-0.002658
-0.000497
-0.000781
-0.000348
-0.002806
-0.000652
-0.002756
-0.002558
-0.002695
-0.002791
-0.000425