# vtk DataFile Version 2.0
Test
ASCII
DATASET POLYDATA
POINTS 5510 float
0.000000 0.000000 0.000000
0.080000 0.000000 0.000000
0.080000 0.160000 0.000000
0.000000 0.160000 0.000000
0.035000 0.076250 0.000000
0.046500 0.083750 0.000000
0.002000 0.000000 0.000000
0.004000 0.000000 0.000000
0.006000 0.000000 0.000000
0.008000 0.000000 0.000000
0.010000 0.000000 0.000000
0.012000 0.000000 0.000000
0.014000 0.000000 0.000000
0.016000 0.000000 0.000000
0.018000 0.000000 0.000000
0.020000 0.000000 0.000000
0.022000 0.000000 0.000000
0.024000 0.000000 0.000000
0.026000 0.000000 0.000000
0.028000 0.000000 0.000000
0.030000 0.000000 0.000000
0.032000 0.000000 0.000000
0.034000 0.000000 0.000000
0.036000 0.000000 0.000000
0.038000 0.000000 0.000000
0.040000 0.000000 0.000000
0.042000 0.000000 0.000000
0.044000 0.000000 0.000000
0.046000 0.000000 0.000000
0.048000 0.000000 0.000000
0.050000 0.000000 0.000000
0.052000 0.000000 0.000000
0.054000 0.000000 0.000000
0.056000 0.000000 0.000000
0.058000 0.000000 0.000000
0.060000 0.000000 0.000000
0.062000 0.000000 0.000000
0.064000 0.000000 0.000000
0.066000 0.000000 0.000000
0.068000 0.000000 0.000000
0.070000 0.000000 0.000000
0.072000 0.000000 0.000000
0.074000 0.000000 0.000000
0.076000 0.000000 0.000000
0.078000 0.000000 0.000000
0.080000 0.002000 0.000000
0.080000 0.004000 0.000000
0.080000 0.006000 0.000000
0.080000 0.008000 0.000000
0.080000 0.010000 0.000000
0.080000 0.012000 0.000000
0.080000 0.014000 0.000000
0.080000 0.016000 0.000000
0.080000 0.018000 0.000000
0.080000 0.020000 0.000000
0.080000 0.022000 0.000000
0.080000 0.024000 0.000000
0.080000 0.026000 0.000000
0.080000 0.028000 0.000000
0.080000 0.030000 0.000000
0.080000 0.032000 0.000000
0.080000 0.034000 0.000000
0.080000 0.036000 0.000000
0.080000 0.038000 0.000000
0.080000 0.040000 0.000000
0.080000 0.042000 0.000000
0.080000 0.044000 0.000000
0.080000 0.046000 0.000000
0.080000 0.048000 0.000000
0.080000 0.050000 0.000000
0.080000 0.052000 0.000000
0.080000 0.054000 0.000000
0.080000 0.056000 0.000000
0.080000 0.058000 0.000000
0.080000 0.060000 0.000000
0.080000 0.062000 0.000000
0.080000 0.064000 0.000000
0.080000 0.066000 0.000000
0.080000 0.068000 0.000000
0.080000 0.070000 0.000000
0.080000 0.072000 0.000000
0.080000 0.074000 0.000000
0.080000 0.076000 0.000000
0.080000 0.078000 0.000000
0.080000 0.080000 0.000000
0.080000 0.082000 0.000000
0.080000 0.084000 0.000000
0.080000 0.086000 0.000000
0.080000 0.088000 0.000000
0.080000 0.090000 0.000000
0.080000 0.092000 0.000000
0.080000 0.094000 0.000000
0.080000 0.096000 0.000000
0.080000 0.098000 0.000000
0.080000 0.100000 0.000000
0.080000 0.102000 0.000000
0.080000 0.104000 0.000000
0.080000 0.106000 0.000000
0.080000 0.108000 0.000000
0.080000 0.110000 0.000000
0.080000 0.112000 0.000000
0.080000 0.114000 0.000000
0.080000 0.116000 0.000000
0.080000 0.118000 0.000000
0.080000 0.120000 0.000000
0.080000 0.122000 0.000000
0.080000 0.124000 0.000000
0.080000 0.126000 0.000000
0.080000 0.128000 0.000000
0.080000 0.130000 0.000000
0.080000 0.132000 0.000000
0.080000 0.134000 0.000000
0.080000 0.136000 0.000000
0.080000 0.138000 0.000000
0.080000 0.140000 0.000000
0.080000 0.142000 0.000000
0.080000 0.144000 0.000000
0.080000 0.146000 0.000000
0.080000 0.148000 0.000000
0.080000 0.150000 0.000000
0.080000 0.152000 0.000000
0.080000 0.154000 0.000000
0.080000 0.156000 0.000000
0.080000 0.158000 0.000000
0.078000 0.160000 0.000000
0.076000 0.160000 0.000000
0.074000 0.160000 0.000000
0.072000 0.160000 0.000000
0.070000 0.160000 0.000000
0.068000 0.160000 0.000000
0.066000 0.160000 0.000000
0.064000 0.160000 0.000000
0.062000 0.160000 0.000000
0.060000 0.160000 0.000000
0.058000 0.160000 0.000000
0.056000 0.160000 0.000000
0.054000 0.160000 0.000000
0.052000 0.160000 0.000000
0.050000 0.160000 0.000000
0.048000 0.160000 0.000000
0.046000 0.160000 0.000000
0.044000 0.160000 0.000000
0.042000 0.160000 0.000000
0.040000 0.160000 0.000000
0.038000 0.160000 0.000000
0.036000 0.160000 0.000000
0.034000 0.160000 0.000000
0.032000 0.160000 0.000000
0.030000 0.160000 0.000000
0.028000 0.160000 0.000000
0.026000 0.160000 0.000000
0.024000 0.160000 0.000000
0.022000 0.160000 0.000000
0.020000 0.160000 0.000000
0.018000 0.160000 0.000000
0.016000 0.160000 0.000000
0.014000 0.160000 0.000000
0.012000 0.160000 0.000000
0.010000 0.160000 0.000000
0.008000 0.160000 0.000000
0.006000 0.160000 0.000000
0.004000 0.160000 0.000000
0.002000 0.160000 0.000000
0.000000 0.158000 0.000000
0.000000 0.156000 0.000000
0.000000 0.154000 0.000000
0.000000 0.152000 0.000000
0.000000 0.150000 0.000000
0.000000 0.148000 0.000000
0.000000 0.146000 0.000000
0.000000 0.144000 0.000000
0.000000 0.142000 0.000000
0.000000 0.140000 0.000000
0.000000 0.138000 0.000000
0.000000 0.136000 0.000000
0.000000 0.134000 0.000000
0.000000 0.132000 0.000000
0.000000 0.130000 0.000000
0.000000 0.128000 0.000000
0.000000 0.126000 0.000000
0.000000 0.124000 0.000000
0.000000 0.122000 0.000000
0.000000 0.120000 0.000000
0.000000 0.118000 0.000000
0.000000 0.116000 0.000000
0.000000 0.114000 0.000000
0.000000 0.112000 0.000000
0.000000 0.110000 0.000000
0.000000 0.108000 0.000000
0.000000 0.106000 0.000000
0.000000 0.104000 0.000000
0.000000 0.102000 0.000000
0.000000 0.100000 0.000000
0.000000 0.098000 0.000000
0.000000 0.096000 0.000000
0.000000 0.094000 0.000000
0.000000 0.092000 0.000000
0.000000 0.090000 0.000000
0.000000 0.088000 0.000000
0.000000 0.086000 0.000000
0.000000 0.084000 0.000000
0.000000 0.082000 0.000000
0.000000 0.080000 0.000000
0.000000 0.078000 0.000000
0.000000 0.076000 0.000000
0.000000 0.074000 0.000000
0.000000 0.072000 0.000000
0.000000 0.070000 0.000000
0.000000 0.068000 0.000000
0.000000 0.066000 0.000000
0.000000 0.064000 0.000000
0.000000 0.062000 0.000000
0.000000 0.060000 0.000000
0.000000 0.058000 0.000000
0.000000 0.056000 0.000000
0.000000 0.054000 0.000000
0.000000 0.052000 0.000000
0.000000 0.050000 0.000000
0.000000 0.048000 0.000000
0.000000 0.046000 0.000000
0.000000 0.044000 0.000000
0.000000 0.042000 0.000000
0.000000 0.040000 0.000000
0.000000 0.038000 0.000000
0.000000 0.036000 0.000000
0.000000 0.034000 0.000000
0.000000 0.032000 0.000000
0.000000 0.030000 0.000000
0.000000 0.028000 0.000000
0.000000 0.026000 0.000000
0.000000 0.024000 0.000000
0.000000 0.022000 0.000000
0.000000 0.020000 0.000000
0.000000 0.018000 0.000000
0.000000 0.016000 0.000000
0.000000 0.014000 0.000000
0.000000 0.012000 0.000000
0.000000 0.010000 0.000000
0.000000 0.008000 0.000000
0.000000 0.006000 0.000000
0.000000 0.004000 0.000000
0.000000 0.002000 0.000000
0.035411 0.076518 0.000000
0.035821 0.076786 0.000000
0.036232 0.077054 0.000000
0.036643 0.077321 0.000000
0.037054 0.077589 0.000000
0.037464 0.077857 0.000000
0.037875 0.078125 0.000000
0.038286 0.078393 0.000000
0.038696 0.078661 0.000000
0.039107 0.078929 0.000000
0.039518 0.079196 0.000000
0.039929 0.079464 0.000000
0.040339 0.079732 0.000000
0.040750 0.080000 0.000000
0.041161 0.080268 0.000000
0.041571 0.080536 0.000000
0.041982 0.080804 0.000000
0.042393 0.081071 0.000000
0.042804 0.081339 0.000000
0.043214 0.081607 0.000000
0.043625 0.081875 0.000000
0.044036 0.082143 0.000000
0.044446 0.082411 0.000000
0.044857 0.082679 0.000000
0.045268 0.082946 0.000000
0.045679 0.083214 0.000000
0.046089 0.083482 0.000000
0.040000 0.002000 0.000000
0.040001 0.158005 0.000000
0.002000 0.116000 0.000000
0.078000 0.048000 0.000000
0.002000 0.106000 0.000000
0.078000 0.058000 0.000000
0.001986 0.042173 0.000000
0.078015 0.117826 0.000000
0.001985 0.094174 0.000000
0.001985 0.084174 0.000000
0.001914 0.056074 0.000000
0.002000 0.072000 0.000000
0.078015 0.065826 0.000000
0.078016 0.075826 0.000000
0.078000 0.088000 0.000000
0.078000 0.104000 0.000000
0.078003 0.029997 0.000000
0.001998 0.130002 0.000000
0.002000 0.032000 0.000000
0.078013 0.128003 0.000000
0.056000 0.158000 0.000000
0.026000 0.002000 0.000000
0.060000 0.002000 0.000000
0.020000 0.158000 0.000000
0.002000 0.020000 0.000000
0.078000 0.142000 0.000000
0.002000 0.146000 0.000000
0.078000 0.020000 0.000000
0.016000 0.002000 0.000000
0.068000 0.002000 0.000000
0.066000 0.158000 0.000000
0.002000 0.014000 0.000000
0.008000 0.158000 0.000000
0.010000 0.002000 0.000000
0.078000 0.148000 0.000000
0.078000 0.008000 0.000000
0.078005 0.037995 0.000000
0.051991 0.001990 0.000000
0.028000 0.158000 0.000000
0.002000 0.008000 0.000000
0.078000 0.094000 0.000000
0.078000 0.110000 0.000000
0.001983 0.066159 0.000000
0.002000 0.050000 0.000000
0.046000 0.158000 0.000000
0.078000 0.134000 0.000000
0.002000 0.140000 0.000000
0.006000 0.002000 0.000000
0.002000 0.154000 0.000000
0.074000 0.002000 0.000000
0.078000 0.152000 0.000000
0.074000 0.158000 0.000000
0.078000 0.080000 0.000000
0.078000 0.070000 0.000000
0.078000 0.122000 0.000000
0.002000 0.090000 0.000000
0.002000 0.080000 0.000000
0.002000 0.038000 0.000000
0.002000 0.102000 0.000000
0.002000 0.112000 0.000000
0.036000 0.002000 0.000000
0.078000 0.042000 0.000000
0.032000 0.002000 0.000000
0.047987 0.001989 0.000000
0.032008 0.158010 0.000000
0.002000 0.028000 0.000000
0.002000 0.126000 0.000000
0.060000 0.158000 0.000000
0.022000 0.002000 0.000000
0.002000 0.136000 0.000000
0.078000 0.024000 0.000000
0.012000 0.158000 0.000000
0.078000 0.158000 0.000000
0.001947 0.003947 0.000000
0.002000 0.158000 0.000000
0.078000 0.012000 0.000000
0.078000 0.096000 0.000000
0.078000 0.098000 0.000000
0.078000 0.082000 0.000000
0.078111 0.099889 0.000000
0.078035 0.083965 0.000000
0.078000 0.090000 0.000000
0.078000 0.106000 0.000000
0.078000 0.072000 0.000000
0.078000 0.112000 0.000000
0.078043 0.061976 0.000000
0.078000 0.114000 0.000000
0.002000 0.064000 0.000000
0.002000 0.062000 0.000000
0.002000 0.088000 0.000000
0.002000 0.078000 0.000000
0.002000 0.060000 0.000000
0.001966 0.076034 0.000000
0.002000 0.070000 0.000000
0.002000 0.054000 0.000000
0.001957 0.098024 0.000000
0.002000 0.048000 0.000000
0.002000 0.046000 0.000000
[...]
POINT_DATA 5510
SCALARS UX float 1
LOOKUP_TABLE default
0.006957
0.065263
0.000002
-0.057197
0.001009
0.007997
0.008416
0.009876
0.011336
0.012798
0.014261
0.015724
0.017188
0.018653
0.020118
0.021582
0.023047
0.024510
0.025973
0.027434
0.028893
0.030349
0.031805
0.033258
0.034710
0.036160
0.037609
0.039056
0.040502
0.041947
0.043392
0.044837
0.046283
0.047729
0.049175
0.050624
0.052074
0.053526
0.054982
0.056439
0.057900
0.059364
0.060833
0.062308
0.063784
0.064480
0.063705
0.062938
0.062170
0.061414
0.060659
0.059912
0.059167
0.058425
0.057685
0.056947
0.056217
0.055487
0.054762
0.054039
0.053318
0.052597
0.051876
0.051153
0.050427
0.049695
0.048964
0.048226
0.047482
0.046740
0.045984
0.045222
0.044454
0.043682
0.042905
0.042125
0.041342
0.040559
0.039772
0.038983
0.038194
0.037402
0.036609
0.035815
0.035018
0.034222
0.033421
0.032614
0.031798
0.030977
0.030119
0.029231
0.028321
0.027346
0.026278
0.025204
0.024112
0.023016
0.021977
0.020986
0.020050
0.019126
0.018282
0.017447
0.016634
0.015840
0.015049
0.014270
0.013492
0.012717
0.011944
0.011171
0.010399
0.009628
0.008857
0.008088
0.007319
0.006554
0.005791
0.005029
0.004272
0.003497
0.002652
0.001570
-0.000016
-0.001504
-0.003023
-0.004535
-0.006025
-0.007510
-0.008995
-0.010475
-0.011951
-0.013425
-0.014896
-0.016365
-0.017832
-0.019296
-0.020760
-0.022219
-0.023676
-0.025132
-0.026585
-0.028036
-0.029486
-0.030935
-0.032382
-0.033828
-0.035274
-0.036720
-0.038167
-0.039614
-0.041062
-0.042511
-0.043963
-0.045418
-0.046876
-0.048337
-0.049802
-0.051270
-0.052745
-0.054227
-0.055709
-0.056410
-0.055633
-0.054857
-0.054097
-0.053341
-0.052587
-0.051841
-0.051099
-0.050359
-0.049622
-0.048889
-0.048160
-0.047431
-0.046708
-0.045986
-0.045265
-0.044541
-0.043818
-0.043093
-0.042366
-0.041636
-0.040902
-0.040164
-0.039418
-0.038674
-0.037916
-0.037154
-0.036387
-0.035616
-0.034841
-0.034062
-0.033281
-0.032498
-0.031713
-0.030925
-0.030137
-0.029345
-0.028552
-0.027758
-0.026962
-0.026165
-0.025363
-0.024555
-0.023738
-0.022920
-0.022069
-0.021196
-0.020287
-0.019353
-0.018319
-0.017264
-0.016203
-0.015130
-0.014083
-0.013072
-0.012076
-0.011184
-0.010316
-0.009462
-0.008630
-0.007821
-0.007017
-0.006234
-0.005453
-0.004674
-0.003897
-0.003121
-0.002347
-0.001573
-0.000799
-0.000025
0.000750
0.001525
0.002299
0.003074
0.003850
0.004626
0.005402
0.006179
0.001275
0.001546
0.001922
0.002286
0.002576
0.002787
0.003014
0.003265
0.003432
0.003678
0.003890
0.004064
0.004295
0.004527
0.004798
0.005057
0.005322
0.005584
0.005825
0.006020
0.006218
0.006402
0.006623
0.006833
0.007090
0.007378
0.007648
0.035385
-0.027262
-0.039412
0.046002
-0.035701
0.042233
-0.008016
0.016009
-0.031139
-0.027197
-0.014691
-0.022301
0.039200
0.035255
0.030363
0.022467
0.052516
-0.044465
-0.003973
0.012021
-0.015580
0.025191
0.049852
-0.041739
0.000666
0.006617
-0.050337
0.056177
0.017871
0.055663
-0.008213
0.002985
-0.050487
0.013481
0.004310
0.060686
0.049640
0.044064
-0.035949
0.005309
0.027757
0.019388
-0.019801
-0.011450
-0.022897
0.009699
-0.048110
0.010559
-0.053367
0.060049
0.002765
-0.002317
0.033585
0.037548
0.014341
-0.029489
-0.025527
-0.006314
-0.034171
-0.037947
0.032481
0.048192
0.029571
0.041170
-0.033054
-0.002424
-0.043024
-0.012639
0.022265
-0.046640
0.054697
-0.047558
0.000256
0.006843
-0.054915
0.059169
0.026806
0.025771
0.032788
0.024831
0.032024
0.029520
0.021392
0.036758
0.018459
0.040724
0.017584
-0.018794
-0.017792
-0.028699
-0.024729
-0.016739
-0.023962
-0.021464
-0.013509
-0.032663
-0.010512
-0.009627
0.043762
0.047484
0.045260
-0.037202
-0.040862
0.013562
-0.005528
0.038283
-0.030161
-0.025808
0.051080
-0.021438
-0.019977
-0.042304
0.028113
0.046958
-0.038842
-0.001651
0.011249
0.008928
-0.000879
0.008158
-0.045912
-0.018514
0.053968
-0.049594
-0.011165
0.020801
0.052753
-0.044642
0.005848
0.057668
-0.051846
0.001438
0.003760
-0.006732
0.016408
-0.005257
0.001983
-0.053432
0.009037
0.007495
0.062219
0.058584
0.062995
-0.036491
0.044538
-0.028080
-0.024152
-0.020879
-0.015272
-0.009901
0.032215
0.028941
0.023269
0.036141
0.017020
-0.026470
-0.040814
0.010539
-0.004847
0.028787
-0.017748
-0.000953
0.006693
0.021485
-0.045126
0.053187
-0.011860
0.002902
0.017093
-0.048843
-0.005988
0.020862
0.046061
0.004448
0.001265
0.059271
0.030683
0.024312
0.026283
-0.022617
-0.016340
-0.018256
-0.008195
0.028778
0.031297
0.023739
0.034525
0.036017
0.020501
0.038478
0.016800
-0.020731
-0.027958
-0.023233
-0.030417
-0.015722
-0.026465
-0.012521
-0.008825
0.039949
-0.031888
0.041503
-0.033441
0.043041
0.015309
-0.034977
-0.007297
0.044552
-0.036492
-0.038777
0.046764
-0.040164
0.048932
-0.041599
0.036828
-0.028704
0.033929
-0.024349
0.039723
-0.031603
0.012811
-0.004773
0.050362
0.031023
0.042615
-0.034498
-0.020651
0.045509
-0.037393
-0.043744
-0.003205
0.010476
0.051795
-0.000182
0.026653
0.008229
-0.017048
0.048403
-0.040289
-0.000109
0.007390
-0.045186
0.053238
-0.047373
-0.014111
0.023728
-0.048851
0.055434
-0.009690
0.019336
-0.043189
0.051301
-0.046098
0.054206
0.005078
0.002212
-0.049021
0.056920
-0.051089
0.003542
0.058416
0.004534
0.014944
-0.052603
-0.003784
0.059922
0.001154
0.012019
0.006085
-0.051957
0.008321
0.057122
-0.000927
-0.052651
-0.054135
0.061448
0.060741
0.061519
-0.032208
0.040267
-0.013931
0.038950
0.021863
0.000513
-0.033753
0.044753
-0.039520
0.050528
0.056926
-0.045323
0.003607
0.048885
0.033204
-0.048242
-0.051115
0.027276
0.015356
-0.019230
0.038711
0.036985
-0.030651
-0.028917
0.034595
0.033042
-0.026534
-0.024970
0.041760
-0.033701
0.013737
-0.003295
-0.030829
-0.001729
0.050272
0.009009
-0.042238
0.025874
0.022948
0.018557
0.053432
-0.047347
-0.045862
0.014166
0.005995
-0.049597
0.055424
0.053926
-0.003090
0.000453
0.058442
0.058497
0.028074
0.029741
-0.020014
0.022082
-0.021673
0.016301
-0.014120
-0.010908
0.045321
0.035371
-0.027308
-0.007344
-0.005673
-0.037259
-0.038677
0.018758
0.019820
0.043089
0.043803
-0.035036
-0.035750
-0.027982
0.025373
0.031462
-0.040099
-0.017351
-0.023396
0.017906
0.047445
0.046746
-0.009082
-0.004078
0.011325
0.041844
0.030282
-0.022095
0.036104
-0.023617
0.009781
-0.041535
-0.036632
-0.016289
0.027329
0.051719
0.052450
-0.043668
-0.044396
0.005920
0.047636
0.000581
0.002131
-0.019200
0.007465
0.020024
-0.025046
-0.013330
-0.042416
-0.008918
-0.010392
-0.007448
-0.048091
0.015630
0.056345
0.003674
0.005221
0.011243
0.057806
-0.004536
0.009781
0.059969
0.002055
-0.000363
-0.051881
0.007545
-0.051176
-0.004223
0.045323
-0.033903
0.014677
-0.023606
-0.027595
-0.018792
-0.024159
0.035668
0.031725
0.026727
-0.038676
0.009876
-0.016972
0.029463
0.050221
0.006005
-0.042165
0.022168
-0.009627
0.003597
0.017781
-0.045847
0.006682
-0.009470
-0.012883
0.017489
-0.003824
0.028689
-0.020670
-0.006010
0.043991
0.023979
-0.015999
-0.000265
-0.002631
-0.040042
0.026552
0.014853
0.004377
-0.047352
0.000572
0.020533
0.025904
0.016505
-0.017892
0.033845
0.037816
-0.025782
-0.029754
0.039486
-0.031425
-0.037974
0.030104
0.022765
-0.014922
0.041042
-0.032982
-0.006582
-0.022033
0.014404
-0.039337
-0.012882
-0.011498
-0.022768
-0.027133
-0.032250
0.034172
-0.026106
0.048169
-0.034320
-0.007689
0.042374
0.043270
0.031713
0.034624
0.040369
0.012914
0.012126
0.049585
-0.002516
0.042473
-0.014799
0.051002
-0.035192
-0.042950
0.005223
0.008325
-0.019876
0.024407
0.001350
-0.034434
-0.035868
0.046194
-0.038075
0.050956
0.052428
0.001272
-0.042895
-0.044359
-0.012555
-0.008161
0.007538
0.049082
-0.040968
-0.046603
0.019250
-0.029398
0.054673
0.005138
0.005150
-0.043868
0.051978
-0.006707
0.054887
0.056171
0.057032
0.012704
0.002832
-0.050353
0.057682
0.009005
-0.046780
0.057729
0.059203
0.006769
-0.001019
-0.001707
-0.050403
-0.049707
0.037521
0.018447
-0.032497
-0.016697
-0.012553
0.024823
-0.022121
-0.040682
0.006865
0.038186
0.048742
0.001188
-0.032986
0.043985
0.051205
-0.008870
-0.038750
0.018469
0.054684
0.039461
-0.043096
0.056261
-0.046007
0.021444
-0.031406
0.047399
0.004534
-0.011875
0.032250
-0.024373
-0.029858
-0.028122
0.037913
0.036190
0.032434
-0.041459
-0.014035
0.002811
0.023625
0.053178
0.003686
0.007455
-0.048932
-0.010178
0.033540
-0.025482
-0.004987
0.016332
-0.019978
0.027778
0.015562
-0.032332
0.040365
0.041942
-0.013831
0.044634
-0.033279
-0.037288
-0.036501
-0.037998
0.030820
-0.022781
0.029174
0.010634
0.012353
-0.021134
0.030894
-0.030062
-0.028540
0.024847
-0.016812
0.034866
-0.026801
0.019437
-0.003418
0.049493
0.046019
-0.008532
0.041071
0.013944
-0.040745
-0.039350
0.035293
-0.015521
-0.035103
0.002034
0.025094
0.009100
0.027994
-0.034433
-0.001034
-0.001851
0.043132
-0.006877
0.051689
0.045428
-0.018423
0.048090
-0.021319
-0.043623
-0.045102
0.006778
0.004457
0.002722
-0.040197
0.048311
0.004364
0.020709
0.054112
-0.011091
0.016316
-0.007419
0.005908
-0.035867
0.002908
0.001357
0.055570
0.056203
0.056964
0.011928
0.013392
0.008230
0.010466
-0.046600
-0.005263
-0.048112
-0.049635
-0.025706
-0.002421
-0.000224
0.043897
0.038341
-0.024198
-0.021048
-0.006416
-0.012136
0.032268
0.029188
0.031565
-0.032243
0.043228
-0.037986
-0.014759
-0.008125
-0.043616
0.005823
-0.035998
0.002228
-0.002791
0.025778
0.040534
0.034546
-0.026469
0.007371
0.015543
0.012616
-0.045872
-0.048162
-0.026364
0.023792
0.019056
0.027346
0.025433
-0.019373
-0.017462
-0.015769
0.042630
0.017077
-0.008135
0.048046
0.005317
0.030496
0.022851
0.050204
0.019929
0.008917
-0.000116
-0.003114
-0.023528
-0.037241
-0.038588
-0.039981
0.022466
0.020499
-0.035268
0.015304
0.013462
-0.014729
0.036936
-0.028874
-0.031691
-0.030308
-0.030587
0.038642
0.041360
0.013173
0.011507
0.032922
-0.024846
-0.011498
-0.020704
-0.019098
-0.001983
-0.027893
0.007622
0.009223
-0.000369
-0.031534
-0.033084
-0.004785
0.046715
0.042534
-0.013250
0.039631
0.006097
0.036709
0.003480
0.041088
0.049476
0.028671
-0.034438
-0.042136
-0.041409
0.000403
0.053930
-0.037304
0.046868
0.001957
0.003771
0.017005
0.051692
-0.011787
-0.010324
-0.017654
0.048779
-0.033669
-0.041643
0.052655
-0.044364
0.049755
0.004281
0.002137
0.054799
0.054731
0.055443
-0.005977
-0.044550
-0.001686
0.055495
0.011153
0.009691
-0.047466
-0.048871
0.033856
-0.022355
-0.010944
0.032720
-0.024654
-0.001376
-0.030554
0.039168
-0.016200
-0.023188
0.023424
0.031165
-0.021363
0.006207
0.002630
-0.038521
-0.031483
0.046565
0.003091
0.019155
0.047540
-0.042140
-0.025733
0.004938
-0.042323
0.021341
0.011735
-0.027904
-0.029539
0.035963
0.037554
0.038863
-0.018330
-0.013944
0.010059
0.034525
0.045245
0.037420
-0.039933
0.048003
-0.036556
0.016233
0.000668
0.050432
0.053340
-0.047396
-0.013019
-0.023449
0.031478
0.012779
0.026432
0.028334
-0.018288
-0.003613
-0.020174
-0.026934
0.034998
0.014502
0.043215
0.039646
0.018065
-0.010626
0.015041
-0.007205
-0.011170
-0.015398
-0.001219
0.033676
0.008467
-0.025604
-0.031183
-0.030891
0.032990
0.046635
-0.039289
0.047330
0.041787
0.019139
-0.005540
0.004644
0.044569
0.029759
0.038888
0.001108
-0.033732
-0.037884
-0.035100
0.024306
0.003006
0.052450
0.053971
-0.011023
0.021383
0.003407
-0.042875
-0.030804
-0.029331
0.030103
0.006593
0.041723
-0.009571
0.001446
0.050945
-0.016204
-0.045116
-0.006683
0.005052
0.014078
-0.043778
-0.046696
0.011842
0.044661
-0.046633
-0.039425
0.053265
0.054031
0.008143
-0.002362
-0.000902
0.010379
-0.004539
0.027223
-0.024952
-0.036577
-0.021618
-0.023270
-0.008811
-0.013718
0.031044
0.023097
-0.028739
0.036795
0.019520
0.028064
0.042449
-0.029537
0.035662
-0.005907
-0.014945
-0.009692
0.033630
0.004062
0.026453
0.041037
-0.034695
-0.010269
0.050233
-0.037214
0.007284
-0.027608
-0.025332
0.033399
0.000772
0.052504
-0.041557
-0.043642
-0.021142
0.029381
0.012905
0.041214
0.027964
0.026131
0.024614
0.037076
0.038529
0.000333
-0.024325
-0.019899
-0.035831
-0.015384
-0.041395
0.023533
0.020610
-0.007383
0.013304
-0.003804
0.030779
-0.022505
0.030596
-0.018045
-0.011564
0.022549
0.017689
0.015663
-0.002377
-0.003747
-0.029192
0.013925
-0.029864
-0.009253
-0.010403
0.010865
-0.000572
-0.014520
-0.009738
0.032353
-0.019761
0.007018
-0.024327
0.011570
-0.022774
0.008691
-0.028633
-0.027142
-0.037147
0.045180
0.020125
-0.016897
0.005436
0.040325
0.004157
0.043110
-0.031759
0.035942
-0.039213
0.039703
-0.040660
0.047276
-0.034355
-0.032906
-0.033063
0.001792
-0.012473
0.003878
0.045922
0.046098
-0.023665
0.031747
0.008058
0.011068
-0.037826
0.017691
-0.000019
-0.001584
-0.040867
-0.042889
0.014772
0.051882
0.053209
0.002328
-0.004144
0.048739
-0.005245
0.048986
0.051812
-0.045929
0.008833
0.005727
0.052575
0.009606
-0.045234
0.027904
-0.045160
0.042460
0.045859
-0.030067
-0.007777
0.022026
0.018499
-0.026875
0.034934
0.012002
0.027151
-0.016885
-0.000853
0.040992
-0.025649
0.033710
-0.021311
0.023172
0.029512
0.018743
-0.023429
0.005616
-0.035744
-0.017667
-0.029315
0.027134
0.044407
-0.038473
0.040272
0.019836
0.002435
0.006374
-0.040678
0.031919
-0.023845
0.008744
-0.000704
0.046542
0.015462
0.046770
0.051046
0.044504
-0.032170
-0.040104
0.051744
0.012529
0.010297
-0.043704
0.020589
-0.015689
0.033774
-0.025713
0.025310
-0.002500
0.025967
-0.018826
-0.033739
-0.027993
0.037795
0.041791
-0.028550
-0.008845
0.016700
-0.028860
-0.007009
0.028598
0.036408
0.007851
0.010456
0.009441
0.036605
-0.019282
-0.036507
-0.024973
0.035032
-0.013230
-0.014065
0.043774
0.003992
-0.026473
-0.020445
-0.035176
-0.016066
0.038119
-0.029957
0.022191
0.039580
0.030051
-0.021949
0.037860
-0.021954
0.003162
0.001367
-0.037063
0.017067
0.001563
-0.039204
-0.013161
0.045113
-0.032384
0.024997
0.049481
0.040321
0.022060
-0.038653
0.050987
-0.011713
0.051109
0.018381
0.006501
-0.041425
-0.008822
-0.003042
-0.043007
0.000890
0.048219
0.004826
-0.000795
0.029888
-0.004999
-0.035786
-0.004500
-0.005944
-0.044469
-0.044400
0.043888
0.029334
-0.000023
0.032203
0.031221
-0.023141
-0.008722
0.013945
-0.020608
0.027147
-0.012201
-0.010627
0.034260
-0.026199
0.024901
-0.002879
0.010979
-0.017382
0.013823
-0.018775
0.000513
-0.028171
-0.022705
-0.018723
0.030780
-0.014570
-0.008399
0.021866
-0.022846
0.004639
-0.016756
0.042952
-0.037044
0.019062
-0.010958
0.010026
-0.039226
-0.036445
-0.039345
0.032846
-0.012194
0.046011
-0.006543
-0.026330
0.033196
-0.025139
0.039882
-0.004619
0.042379
0.028121
0.024217
-0.006634
0.007952
0.021284
-0.007880
0.048022
0.011757
-0.003721
-0.042939
-0.042249
-0.002850
0.043711
-0.017569
0.008992
-0.027900
0.012520
0.040372
0.032439
-0.024385
-0.027405
0.035144
0.035970
0.002176
0.015301
0.026976
-0.018481
-0.019962
0.037371
0.006424
-0.034471
-0.033424
-0.032357
-0.020664
0.034630
0.041658
-0.024358
0.004811
0.028759
0.005580
0.038834
0.017847
0.000110
0.030629
-0.022526
-0.013717
0.035946
-0.036402
-0.030452
0.038348
0.007165
-0.030726
-0.010314
0.003224
0.034389
0.025676
0.047278
-0.031699
0.050289
-0.001477
-0.014607
0.045324
-0.037769
-0.009519
0.013991
-0.042178
0.009515
0.045817
-0.002262
0.001660
0.050361
-0.039930
0.005472
0.030010
0.028562
0.016920
0.016216
0.048776
-0.033593
0.049660
0.041690
0.021256
-0.035084
0.014489
-0.022017
-0.027903
0.026254
0.024842
0.000881
0.019666
0.008118
-0.016365
0.023772
-0.001542
0.012935
0.025961
-0.034490
-0.004047
-0.027099
0.038856
-0.026341
0.033221
-0.020183
-0.013421
0.025856
0.028380
0.016666
-0.022270
0.005067
-0.033170
0.033491
0.027788
0.006042
0.039502
-0.030002
0.045095
0.001790
-0.010208
0.007799
-0.000556
-0.025181
-0.030996
-0.017429
0.014079
0.019333
0.002637
0.040391
0.042268
-0.021454
-0.034338
0.011634
0.012701
0.020509
0.024859
0.009395
0.016152
0.046572
0.024885
0.044563
-0.038486
0.013214
0.048914
0.022597
-0.001321
0.031019
-0.022958
-0.012578
0.036677
-0.005572
0.003729
0.007382
0.028967
0.030121
-0.020866
-0.022035
-0.019147
-0.007883
-0.033933
-0.019486
-0.019955
0.003382
0.027087
0.032075
-0.024024
-0.028664
-0.035665
-0.001354
-0.002943
0.015058
-0.009263
0.037358
-0.036341
0.021044
-0.011089
0.010884
0.043121
-0.037767
0.022733
-0.031056
-0.027155
-0.026805
0.049533
-0.041488
-0.007556
-0.037883
-0.005176
0.047448
-0.012393
0.038931
-0.015289
0.048844
-0.040785
0.017607
-0.035014
0.043661
0.049600
0.010982
-0.008077
0.001017
0.006234
-0.039974
-0.031412
0.001316
-0.003716
0.027487
0.031432
0.043043
-0.025756
0.018572
-0.015190
-0.016663
0.009472
0.024289
0.007943
-0.000250
0.011210
-0.033189
-0.017904
-0.026804
0.035377
-0.000237
-0.018631
-0.007300
0.021519
0.018123
0.027437
0.013695
0.040829
-0.014081
-0.029249
-0.034261
-0.036335
0.000389
0.019744
-0.005166
-0.002010
0.043806
0.035398
-0.011071
-0.037113
-0.007325
-0.017632
-0.018671
-0.006871
0.005983
0.023880
-0.037785
-0.011639
-0.004393
-0.040043
0.012437
0.048087
0.016842
0.041600
-0.024996
0.001809
-0.003265
-0.021148
0.038481
0.034292
0.006713
0.034714
0.005202
0.026445
-0.032087
-0.019320
0.015891
-0.025920
-0.025803
0.039733
-0.026942
0.004255
0.020281
0.029558
-0.021458
0.007002
-0.009218
-0.033722
0.025179
0.013305
0.023268
0.036617
0.020736
0.017493
0.027693
-0.029166
-0.012695
-0.028547
0.002596
0.008601
0.046708
0.045838
0.026334
-0.021605
-0.034988
-0.024418
0.032552
0.029683
0.023412
0.047324
0.014685
-0.013831
0.010193
-0.018867
-0.040730
-0.002149
0.037002
0.021944
0.000240
0.012227
-0.030366
-0.008766
0.047404
0.041504
0.040960
-0.034262
-0.032828
0.029234
0.006866
-0.002258
-0.001504
0.048157
0.044372
0.040919
-0.034930
0.038089
0.002125
-0.015679
-0.023631
0.032090
-0.015974
0.011743
-0.031830
-0.032613
0.008793
0.008290
0.010134
0.034175
-0.016450
0.031498
-0.023435
0.007863
-0.024612
0.032055
-0.012383
-0.017774
0.024791
0.020424
-0.021804
0.028469
0.039391
0.006565
0.034446
0.038735
-0.032886
0.043662
-0.010884
0.038096
-0.024039
-0.031794
-0.029662
0.009269
0.011386
0.018955
-0.008018
0.023695
0.016153
0.014372
-0.001186
0.036642
-0.027845
0.013887
0.045971
0.045145
0.046659
0.025552
-0.003611
-0.039293
-0.032085
0.006690
0.003720
0.010140
0.030513
-0.022455
-0.012015
0.026088
0.026794
-0.006451
-0.018257
0.034825
0.038901
0.040158
-0.004313
0.019876
0.004008
0.022253
0.004933
0.032766
-0.025286
0.017285
0.002838
0.001185
-0.000385
-0.008326
0.036022
-0.032990
0.027991
0.029083
-0.020992
-0.033621
-0.019885
-0.022902
0.030967
-0.026389
-0.027433
-0.005866
-0.009836
0.015386
-0.038542
0.010861
-0.035623
-0.029758
-0.002789
-0.038523
0.011663
0.042351
0.024090
0.021180
-0.006664
0.012912
-0.014519
-0.013060
-0.030660
0.045250
-0.030760
0.002617
0.018286
0.030652
-0.037048
0.007625
0.042212
0.007419
0.035900
-0.035678
0.037540
-0.025577
0.001054
-0.016844
-0.022927
-0.016783
-0.017965
-0.015536
-0.014711
0.009572
-0.000561
-0.002022
0.033073
0.030345
-0.022278
-0.019889
0.031902
-0.023997
-0.021377
-0.006915
0.025402
0.016219
0.003449
-0.020838
0.007926
0.032216
0.024752
0.020413
-0.028528
-0.000192
-0.017091
0.012572
-0.034914
0.003102
0.034155
0.035627
-0.010526
-0.005621
0.021066
-0.024467
0.018040
0.026566
-0.014318
-0.002638
-0.004243
-0.034921
-0.036366
0.016064
0.012325
0.045228
0.041631
0.038737
0.036977
-0.037870
0.000956
0.029883
-0.013049
-0.016672
-0.020557
0.009141
0.028642
0.029431
-0.004962
-0.002950
-0.011651
0.025475
-0.017305
0.037107
0.015198
-0.008044
-0.024534
0.005558
0.024164
-0.009616
0.012171
-0.006596
0.028567
-0.020461
0.002328
-0.018359
0.008404
-0.031340
-0.015957
0.034811
-0.031596
-0.025731
-0.024283
0.033098
0.002015
-0.027910
-0.029051
0.022697
-0.033523
0.010031
-0.032380
0.045906
0.019706
0.040160
0.042944
0.027003
-0.023374
0.039523
0.003427
-0.013731
-0.015230
0.031418
-0.029928
0.022634
-0.009446
-0.025780
0.018970
0.031295
0.014577
0.037024
-0.033499
0.040082
-0.012314
0.008245
-0.005057
-0.000991
0.013109
0.044541
0.037320
0.005537
0.044395
-0.032241
-0.005540
0.033730
0.007079
-0.018022
0.010587
-0.030225
-0.001211
0.008587
-0.020741
0.008110
-0.012063
-0.008810
0.019480
0.002079
-0.030247
0.031641
0.037318
-0.027797
0.037981
-0.014409
-0.001553
-0.028347
-0.024367
0.019637
-0.010123
0.042222
-0.001655
0.006828
0.032972
0.023790
0.021564
-0.006547
0.005290
0.031855
-0.022912
0.027761
0.011014
0.009854
-0.029600
-0.032754
-0.023624
0.011503
0.043797
0.038120
-0.031485
0.021848
0.000632
0.024577
-0.015777
-0.014744
0.036196
0.022887
-0.016398
-0.019562
-0.003851
-0.004475