# vtk DataFile Version 2.0
Test
ASCII
DATASET POLYDATA
POINTS 5510 float
0.000000 0.000000 0.000000
0.080000 0.000000 0.000000
0.080000 0.160000 0.000000
0.000000 0.160000 0.000000
0.035000 0.076250 0.000000
0.046500 0.083750 0.000000
0.002000 0.000000 0.000000
0.004000 0.000000 0.000000
0.006000 0.000000 0.000000
0.008000 0.000000 0.000000
0.010000 0.000000 0.000000
0.012000 0.000000 0.000000
0.014000 0.000000 0.000000
0.016000 0.000000 0.000000
0.018000 0.000000 0.000000
0.020000 0.000000 0.000000
0.022000 0.000000 0.000000
0.024000 0.000000 0.000000
0.026000 0.000000 0.000000
0.028000 0.000000 0.000000
0.030000 0.000000 0.000000
0.032000 0.000000 0.000000
0.034000 0.000000 0.000000
0.036000 0.000000 0.000000
0.038000 0.000000 0.000000
0.040000 0.000000 0.000000
0.042000 0.000000 0.000000
0.044000 0.000000 0.000000
0.046000 0.000000 0.000000
0.048000 0.000000 0.000000
0.050000 0.000000 0.000000
0.052000 0.000000 0.000000
0.054000 0.000000 0.000000
0.056000 0.000000 0.000000
0.058000 0.000000 0.000000
0.060000 0.000000 0.000000
0.062000 0.000000 0.000000
0.064000 0.000000 0.000000
0.066000 0.000000 0.000000
0.068000 0.000000 0.000000
0.070000 0.000000 0.000000
0.072000 0.000000 0.000000
0.074000 0.000000 0.000000
0.076000 0.000000 0.000000
0.078000 0.000000 0.000000
0.080000 0.002000 0.000000
0.080000 0.004000 0.000000
0.080000 0.006000 0.000000
0.080000 0.008000 0.000000
0.080000 0.010000 0.000000
0.080000 0.012000 0.000000
0.080000 0.014000 0.000000
0.080000 0.016000 0.000000
0.080000 0.018000 0.000000
0.080000 0.020000 0.000000
0.080000 0.022000 0.000000
0.080000 0.024000 0.000000
0.080000 0.026000 0.000000
0.080000 0.028000 0.000000
0.080000 0.030000 0.000000
0.080000 0.032000 0.000000
0.080000 0.034000 0.000000
0.080000 0.036000 0.000000
0.080000 0.038000 0.000000
0.080000 0.040000 0.000000
0.080000 0.042000 0.000000
0.080000 0.044000 0.000000
0.080000 0.046000 0.000000
0.080000 0.048000 0.000000
0.080000 0.050000 0.000000
0.080000 0.052000 0.000000
0.080000 0.054000 0.000000
0.080000 0.056000 0.000000
0.080000 0.058000 0.000000
0.080000 0.060000 0.000000
0.080000 0.062000 0.000000
0.080000 0.064000 0.000000
0.080000 0.066000 0.000000
0.080000 0.068000 0.000000
0.080000 0.070000 0.000000
0.080000 0.072000 0.000000
0.080000 0.074000 0.000000
0.080000 0.076000 0.000000
0.080000 0.078000 0.000000
0.080000 0.080000 0.000000
0.080000 0.082000 0.000000
0.080000 0.084000 0.000000
0.080000 0.086000 0.000000
0.080000 0.088000 0.000000
0.080000 0.090000 0.000000
0.080000 0.092000 0.000000
0.080000 0.094000 0.000000
0.080000 0.096000 0.000000
0.080000 0.098000 0.000000
0.080000 0.100000 0.000000
0.080000 0.102000 0.000000
0.080000 0.104000 0.000000
0.080000 0.106000 0.000000
0.080000 0.108000 0.000000
0.080000 0.110000 0.000000
0.080000 0.112000 0.000000
0.080000 0.114000 0.000000
0.080000 0.116000 0.000000
0.080000 0.118000 0.000000
0.080000 0.120000 0.000000
0.080000 0.122000 0.000000
0.080000 0.124000 0.000000
0.080000 0.126000 0.000000
0.080000 0.128000 0.000000
0.080000 0.130000 0.000000
0.080000 0.132000 0.000000
0.080000 0.134000 0.000000
0.080000 0.136000 0.000000
0.080000 0.138000 0.000000
0.080000 0.140000 0.000000
0.080000 0.142000 0.000000
0.080000 0.144000 0.000000
0.080000 0.146000 0.000000
0.080000 0.148000 0.000000
0.080000 0.150000 0.000000
0.080000 0.152000 0.000000
0.080000 0.154000 0.000000
0.080000 0.156000 0.000000
0.080000 0.158000 0.000000
0.078000 0.160000 0.000000
0.076000 0.160000 0.000000
0.074000 0.160000 0.000000
0.072000 0.160000 0.000000
0.070000 0.160000 0.000000
0.068000 0.160000 0.000000
0.066000 0.160000 0.000000
0.064000 0.160000 0.000000
0.062000 0.160000 0.000000
0.060000 0.160000 0.000000
0.058000 0.160000 0.000000
0.056000 0.160000 0.000000
0.054000 0.160000 0.000000
0.052000 0.160000 0.000000
0.050000 0.160000 0.000000
0.048000 0.160000 0.000000
0.046000 0.160000 0.000000
0.044000 0.160000 0.000000
0.042000 0.160000 0.000000
0.040000 0.160000 0.000000
0.038000 0.160000 0.000000
0.036000 0.160000 0.000000
0.034000 0.160000 0.000000
0.032000 0.160000 0.000000
0.030000 0.160000 0.000000
0.028000 0.160000 0.000000
0.026000 0.160000 0.000000
0.024000 0.160000 0.000000
0.022000 0.160000 0.000000
0.020000 0.160000 0.000000
0.018000 0.160000 0.000000
0.016000 0.160000 0.000000
0.014000 0.160000 0.000000
0.012000 0.160000 0.000000
0.010000 0.160000 0.000000
0.008000 0.160000 0.000000
0.006000 0.160000 0.000000
0.004000 0.160000 0.000000
0.002000 0.160000 0.000000
0.000000 0.158000 0.000000
0.000000 0.156000 0.000000
0.000000 0.154000 0.000000
0.000000 0.152000 0.000000
0.000000 0.150000 0.000000
0.000000 0.148000 0.000000
0.000000 0.146000 0.000000
0.000000 0.144000 0.000000
0.000000 0.142000 0.000000
0.000000 0.140000 0.000000
0.000000 0.138000 0.000000
0.000000 0.136000 0.000000
0.000000 0.134000 0.000000
0.000000 0.132000 0.000000
0.000000 0.130000 0.000000
0.000000 0.128000 0.000000
0.000000 0.126000 0.000000
0.000000 0.124000 0.000000
0.000000 0.122000 0.000000
0.000000 0.120000 0.000000
0.000000 0.118000 0.000000
0.000000 0.116000 0.000000
0.000000 0.114000 0.000000
0.000000 0.112000 0.000000
0.000000 0.110000 0.000000
0.000000 0.108000 0.000000
0.000000 0.106000 0.000000
0.000000 0.104000 0.000000
0.000000 0.102000 0.000000
0.000000 0.100000 0.000000
0.000000 0.098000 0.000000
0.000000 0.096000 0.000000
0.000000 0.094000 0.000000
0.000000 0.092000 0.000000
0.000000 0.090000 0.000000
0.000000 0.088000 0.000000
0.000000 0.086000 0.000000
0.000000 0.084000 0.000000
0.000000 0.082000 0.000000
0.000000 0.080000 0.000000
0.000000 0.078000 0.000000
0.000000 0.076000 0.000000
0.000000 0.074000 0.000000
0.000000 0.072000 0.000000
0.000000 0.070000 0.000000
0.000000 0.068000 0.000000
0.000000 0.066000 0.000000
0.000000 0.064000 0.000000
0.000000 0.062000 0.000000
0.000000 0.060000 0.000000
0.000000 0.058000 0.000000
0.000000 0.056000 0.000000
0.000000 0.054000 0.000000
0.000000 0.052000 0.000000
0.000000 0.050000 0.000000
0.000000 0.048000 0.000000
0.000000 0.046000 0.000000
0.000000 0.044000 0.000000
0.000000 0.042000 0.000000
0.000000 0.040000 0.000000
0.000000 0.038000 0.000000
0.000000 0.036000 0.000000
0.000000 0.034000 0.000000
0.000000 0.032000 0.000000
0.000000 0.030000 0.000000
0.000000 0.028000 0.000000
0.000000 0.026000 0.000000
0.000000 0.024000 0.000000
0.000000 0.022000 0.000000
0.000000 0.020000 0.000000
0.000000 0.018000 0.000000
0.000000 0.016000 0.000000
0.000000 0.014000 0.000000
0.000000 0.012000 0.000000
0.000000 0.010000 0.000000
0.000000 0.008000 0.000000
0.000000 0.006000 0.000000
0.000000 0.004000 0.000000
0.000000 0.002000 0.000000
0.035411 0.076518 0.000000
0.035821 0.076786 0.000000
0.036232 0.077054 0.000000
0.036643 0.077321 0.000000
0.037054 0.077589 0.000000
0.037464 0.077857 0.000000
0.037875 0.078125 0.000000
0.038286 0.078393 0.000000
0.038696 0.078661 0.000000
0.039107 0.078929 0.000000
0.039518 0.079196 0.000000
0.039929 0.079464 0.000000
0.040339 0.079732 0.000000
0.040750 0.080000 0.000000
0.041161 0.080268 0.000000
0.041571 0.080536 0.000000
0.041982 0.080804 0.000000
0.042393 0.081071 0.000000
0.042804 0.081339 0.000000
0.043214 0.081607 0.000000
0.043625 0.081875 0.000000
0.044036 0.082143 0.000000
0.044446 0.082411 0.000000
0.044857 0.082679 0.000000
0.045268 0.082946 0.000000
0.045679 0.083214 0.000000
0.046089 0.083482 0.000000
0.040000 0.002000 0.000000
0.040001 0.158005 0.000000
0.002000 0.116000 0.000000
0.078000 0.048000 0.000000
0.002000 0.106000 0.000000
0.078000 0.058000 0.000000
0.001986 0.042173 0.000000
0.078015 0.117826 0.000000
0.001985 0.094174 0.000000
0.001985 0.084174 0.000000
0.001914 0.056074 0.000000
0.002000 0.072000 0.000000
0.078015 0.065826 0.000000
0.078016 0.075826 0.000000
0.078000 0.088000 0.000000
0.078000 0.104000 0.000000
0.078003 0.029997 0.000000
0.001998 0.130002 0.000000
0.002000 0.032000 0.000000
0.078013 0.128003 0.000000
0.056000 0.158000 0.000000
0.026000 0.002000 0.000000
0.060000 0.002000 0.000000
0.020000 0.158000 0.000000
0.002000 0.020000 0.000000
0.078000 0.142000 0.000000
0.002000 0.146000 0.000000
0.078000 0.020000 0.000000
0.016000 0.002000 0.000000
0.068000 0.002000 0.000000
0.066000 0.158000 0.000000
0.002000 0.014000 0.000000
0.008000 0.158000 0.000000
0.010000 0.002000 0.000000
0.078000 0.148000 0.000000
0.078000 0.008000 0.000000
0.078005 0.037995 0.000000
0.051991 0.001990 0.000000
0.028000 0.158000 0.000000
0.002000 0.008000 0.000000
0.078000 0.094000 0.000000
0.078000 0.110000 0.000000
0.001983 0.066159 0.000000
0.002000 0.050000 0.000000
0.046000 0.158000 0.000000
0.078000 0.134000 0.000000
0.002000 0.140000 0.000000
0.006000 0.002000 0.000000
0.002000 0.154000 0.000000
0.074000 0.002000 0.000000
0.078000 0.152000 0.000000
0.074000 0.158000 0.000000
0.078000 0.080000 0.000000
0.078000 0.070000 0.000000
0.078000 0.122000 0.000000
0.002000 0.090000 0.000000
0.002000 0.080000 0.000000
0.002000 0.038000 0.000000
0.002000 0.102000 0.000000
0.002000 0.112000 0.000000
0.036000 0.002000 0.000000
0.078000 0.042000 0.000000
0.032000 0.002000 0.000000
0.047987 0.001989 0.000000
0.032008 0.158010 0.000000
0.002000 0.028000 0.000000
0.002000 0.126000 0.000000
0.060000 0.158000 0.000000
0.022000 0.002000 0.000000
0.002000 0.136000 0.000000
0.078000 0.024000 0.000000
0.012000 0.158000 0.000000
0.078000 0.158000 0.000000
0.001947 0.003947 0.000000
0.002000 0.158000 0.000000
0.078000 0.012000 0.000000
0.078000 0.096000 0.000000
0.078000 0.098000 0.000000
0.078000 0.082000 0.000000
0.078111 0.099889 0.000000
0.078035 0.083965 0.000000
0.078000 0.090000 0.000000
0.078000 0.106000 0.000000
0.078000 0.072000 0.000000
0.078000 0.112000 0.000000
0.078043 0.061976 0.000000
0.078000 0.114000 0.000000
0.002000 0.064000 0.000000
0.002000 0.062000 0.000000
0.002000 0.088000 0.000000
0.002000 0.078000 0.000000
0.002000 0.060000 0.000000
0.001966 0.076034 0.000000
0.002000 0.070000 0.000000
0.002000 0.054000 0.000000
0.001957 0.098024 0.000000
0.002000 0.048000 0.000000
0.002000 0.046000 0.000000
[...]
POINT_DATA 5510
SCALARS UX float 1
LOOKUP_TABLE default
0.014351
0.083373
0.000002
-0.067721
0.004406
0.012355
0.016079
0.017807
0.019535
0.021265
0.022997
0.024729
0.026463
0.028197
0.029932
0.031667
0.033402
0.035137
0.036870
0.038601
0.040330
0.042056
0.043779
0.045501
0.047220
0.048936
0.050650
0.052362
0.054073
0.055782
0.057491
0.059199
0.060908
0.062617
0.064328
0.066040
0.067754
0.069472
0.071193
0.072917
0.074645
0.076379
0.078119
0.079867
0.081617
0.082373
0.081385
0.080409
0.079434
0.078476
0.077518
0.076575
0.075632
0.074694
0.073760
0.072827
0.071905
0.070983
0.070065
0.069149
0.068233
0.067315
0.066394
0.065469
0.064536
0.063593
0.062653
0.061701
0.060741
0.059784
0.058807
0.057823
0.056832
0.055839
0.054840
0.053839
0.052836
0.051832
0.050826
0.049818
0.048810
0.047799
0.046787
0.045775
0.044761
0.043748
0.042733
0.041713
0.040687
0.039658
0.038591
0.037488
0.036359
0.035133
0.033741
0.032332
0.030879
0.029415
0.028032
0.026727
0.025508
0.024309
0.023231
0.022168
0.021134
0.020124
0.019118
0.018125
0.017133
0.016143
0.015155
0.014166
0.013179
0.012192
0.011206
0.010222
0.009237
0.008259
0.007283
0.006307
0.005337
0.004340
0.003253
0.001887
-0.000020
-0.001766
-0.003564
-0.005356
-0.007120
-0.008879
-0.010640
-0.012395
-0.014144
-0.015892
-0.017635
-0.019376
-0.021115
-0.022851
-0.024585
-0.026314
-0.028040
-0.029764
-0.031485
-0.033203
-0.034919
-0.036632
-0.038344
-0.040055
-0.041765
-0.043475
-0.045185
-0.046895
-0.048607
-0.050321
-0.052038
-0.053758
-0.055483
-0.057213
-0.058947
-0.060686
-0.062434
-0.064193
-0.065953
-0.066716
-0.065726
-0.064736
-0.063773
-0.062813
-0.061859
-0.060915
-0.059978
-0.059042
-0.058110
-0.057184
-0.056263
-0.055340
-0.054423
-0.053507
-0.052587
-0.051662
-0.050739
-0.049809
-0.048876
-0.047938
-0.046995
-0.046044
-0.045083
-0.044125
-0.043149
-0.042168
-0.041181
-0.040191
-0.039197
-0.038199
-0.037200
-0.036199
-0.035195
-0.034189
-0.033182
-0.032173
-0.031162
-0.030150
-0.029137
-0.028123
-0.027106
-0.026084
-0.025056
-0.024028
-0.022966
-0.021878
-0.020746
-0.019577
-0.018240
-0.016860
-0.015463
-0.014040
-0.012642
-0.011299
-0.009982
-0.008833
-0.007720
-0.006626
-0.005564
-0.004532
-0.003510
-0.002512
-0.001516
-0.000523
0.000470
0.001462
0.002452
0.003443
0.004433
0.005425
0.006416
0.007407
0.008398
0.009389
0.010381
0.011372
0.012365
0.013357
0.004704
0.005012
0.005439
0.005852
0.006181
0.006421
0.006680
0.006965
0.007156
0.007436
0.007678
0.007877
0.008141
0.008404
0.008712
0.009005
0.009308
0.009605
0.009880
0.010108
0.010337
0.010548
0.010800
0.011040
0.011333
0.011659
0.011963
0.047946
-0.032214
-0.045231
0.058992
-0.040452
0.054126
-0.004916
0.020471
-0.034596
-0.029560
-0.013631
-0.023356
0.050228
0.045186
0.038989
0.028870
0.067329
-0.051691
0.000234
0.015394
-0.018373
0.035871
0.065056
-0.049337
0.006167
0.008480
-0.059121
0.071961
0.027199
0.071927
-0.009640
0.009136
-0.059686
0.022001
0.005526
0.077670
0.063670
0.058214
-0.042491
0.012108
0.035751
0.024803
-0.020237
-0.009329
-0.027044
0.012425
-0.056306
0.018542
-0.062964
0.077117
0.003546
-0.002660
0.043061
0.048115
0.018353
-0.032486
-0.027435
-0.002749
-0.038483
-0.043346
0.044508
0.061813
0.041060
0.054792
-0.039068
0.002212
-0.049858
-0.014886
0.032403
-0.054447
0.070088
-0.056219
0.000340
0.014072
-0.064937
0.075745
0.034563
0.033235
0.042048
0.031997
0.041079
0.037939
0.027438
0.047106
0.023597
0.052181
0.022476
-0.018981
-0.017702
-0.031478
-0.026421
-0.016336
-0.025448
-0.022308
-0.012065
-0.036544
-0.008110
-0.006975
0.056098
0.060900
0.058033
-0.042387
-0.047092
0.017360
-0.001749
0.051376
-0.035645
-0.030492
0.065506
-0.025316
-0.023585
-0.048938
0.039334
0.061635
-0.045912
0.003201
0.014406
0.011438
0.004190
0.010452
-0.053525
-0.021850
0.069167
-0.058182
-0.013140
0.030668
0.068486
-0.052770
0.007495
0.073846
-0.061033
0.007156
0.010127
-0.007884
0.025466
-0.006138
0.002542
-0.063175
0.016747
0.014930
0.079619
0.075382
0.080608
-0.041622
0.057257
-0.030813
-0.025801
-0.021672
-0.014567
-0.007462
0.041433
0.037308
0.030089
0.046443
0.021884
-0.031205
-0.047165
0.013640
-0.001012
0.040059
-0.020869
0.003953
0.008718
0.031407
-0.052639
0.068287
-0.013890
0.008888
0.026205
-0.057343
-0.006935
0.026906
0.059209
0.010867
0.001763
0.076124
0.039489
0.031485
0.034005
-0.023854
-0.015966
-0.018404
-0.005274
0.037014
0.040160
0.030562
0.044254
0.046157
0.026255
0.049301
0.021475
-0.021392
-0.030529
-0.024526
-0.033669
-0.014996
-0.028626
-0.010744
-0.005947
0.051187
-0.035552
0.053182
-0.037543
0.055164
0.019580
-0.039517
-0.003998
0.057116
-0.041468
-0.044412
0.059972
-0.046195
0.062761
-0.048035
0.049655
-0.033922
0.046223
-0.028765
0.053080
-0.037351
0.016401
-0.000785
0.064591
0.042782
0.056501
-0.040776
-0.024311
0.059922
-0.044198
-0.050775
0.001214
0.013419
0.066414
0.004940
0.037603
0.010685
-0.020113
0.063344
-0.047622
0.005175
0.009468
-0.052605
0.068244
-0.055374
-0.016631
0.034137
-0.057243
0.071021
-0.011391
0.028933
-0.051051
0.066769
-0.054492
0.070204
0.006511
0.008146
-0.057951
0.072899
-0.060074
0.004543
0.074792
0.011117
0.023733
-0.061993
-0.004395
0.076700
0.001479
0.020271
0.013100
-0.061427
0.015820
0.073653
-0.001030
-0.062179
-0.063941
0.078638
0.077865
0.078858
-0.036099
0.051735
-0.012954
0.052094
0.028404
0.005689
-0.039824
0.058958
-0.046642
0.065784
0.073019
-0.053504
0.004767
0.062829
0.045293
-0.056956
-0.060225
0.035227
0.019762
-0.019605
0.049724
0.047519
-0.034090
-0.031876
0.044465
0.042482
-0.028836
-0.026838
0.053656
-0.038015
0.017704
0.000964
-0.036365
0.002962
0.064594
0.011682
-0.048977
0.036607
0.033139
0.027938
0.069217
-0.055449
-0.053570
0.022739
0.012846
-0.058299
0.071117
0.069222
-0.003514
0.000721
0.074942
0.075139
0.036225
0.038302
-0.020589
0.028502
-0.022662
0.020961
-0.013048
-0.008768
0.058251
0.045456
-0.029824
-0.004179
-0.002058
-0.042605
-0.044427
0.024127
0.025518
0.055381
0.056303
-0.039743
-0.040663
-0.032995
0.032846
0.040478
-0.046251
-0.017256
-0.024844
0.023024
0.060993
0.060096
-0.006407
-0.000034
0.014641
0.055518
0.041831
-0.026022
0.048727
-0.027826
0.012671
-0.048083
-0.043228
-0.019140
0.038332
0.066429
0.067354
-0.050791
-0.051714
0.007728
0.062366
0.005918
0.007901
-0.022591
0.009706
0.029676
-0.029518
-0.015631
-0.050066
-0.010403
-0.012150
-0.008661
-0.056390
0.024472
0.072662
0.009876
0.011856
0.019278
0.074390
-0.005220
0.017549
0.076882
0.002778
-0.000323
-0.061198
0.014828
-0.060430
-0.000341
0.058405
-0.038418
0.019019
-0.025217
-0.030306
-0.019154
-0.028396
0.045951
0.040914
0.034644
-0.044560
0.012926
-0.019877
0.040790
0.064639
0.007978
-0.048996
0.032144
-0.011172
0.009636
0.026947
-0.053661
0.013586
-0.007034
-0.011571
0.022620
-0.004319
0.037079
-0.021496
-0.002607
0.056677
0.031180
-0.015640
0.004696
0.001679
-0.046300
0.037340
0.023480
0.005754
-0.055570
0.001017
0.026618
0.033608
0.021346
-0.018026
0.043509
0.048581
-0.027878
-0.032947
0.050728
-0.035093
-0.043527
0.038865
0.029606
-0.014251
0.052734
-0.037095
-0.003202
-0.023225
0.018556
-0.045276
-0.011398
-0.009576
-0.026748
-0.031919
-0.038045
0.044043
-0.028407
0.061918
-0.038821
-0.004750
0.054458
0.057204
0.043527
0.046974
0.053773
0.016663
0.015661
0.063721
0.001957
0.054736
-0.017374
0.065519
-0.041525
-0.049881
0.006978
0.010947
-0.023319
0.034869
0.006901
-0.039115
-0.040948
0.060661
-0.044934
0.065569
0.067435
0.006661
-0.049920
-0.051777
-0.014641
-0.009436
0.009940
0.064075
-0.048355
-0.054508
0.028686
-0.034670
0.070167
0.011609
0.006743
-0.051783
0.067498
-0.007719
0.070937
0.072063
0.073404
0.021008
0.003775
-0.059257
0.073978
0.016557
-0.055227
0.074160
0.075908
0.013837
-0.001027
-0.001894
-0.059445
-0.058690
0.050403
0.023870
-0.036750
-0.016624
-0.011282
0.032345
-0.025910
-0.047225
0.009215
0.051119
0.062873
0.006416
-0.038844
0.057977
0.066513
-0.010207
-0.045660
0.027689
0.070295
0.050837
-0.050799
0.072423
-0.054241
0.027996
-0.035205
0.061055
0.006235
-0.010219
0.041589
-0.026179
-0.033214
-0.030983
0.048844
0.046623
0.044310
-0.048100
-0.016395
0.008632
0.033871
0.068386
0.005009
0.014575
-0.057703
-0.007972
0.043230
-0.027605
-0.001309
0.021244
-0.020631
0.035948
0.020143
-0.036397
0.052006
0.054039
-0.012959
0.057516
-0.037616
-0.042774
-0.041763
-0.043693
0.039770
-0.024175
0.037706
0.013893
0.016071
-0.022097
0.042485
-0.035385
-0.033584
0.032291
-0.016682
0.044933
-0.029299
0.025173
0.000680
0.063715
0.059295
-0.005831
0.054532
0.018089
-0.047193
-0.045420
0.047695
-0.018157
-0.039977
0.007636
0.035611
0.011936
0.039048
-0.040555
0.003715
0.002673
0.055589
-0.003713
0.066499
0.059684
-0.021597
0.061934
-0.025030
-0.050844
-0.052717
0.008967
0.005997
0.008378
-0.047371
0.063093
0.010618
0.030415
0.069950
-0.012906
0.025212
-0.008494
0.012595
-0.042252
0.004014
0.002025
0.071675
0.072222
0.073189
0.020017
0.021750
0.015566
0.018286
-0.054615
-0.006016
-0.056534
-0.058468
-0.030229
-0.002674
-0.000006
0.056706
0.049535
-0.026082
-0.022072
-0.003246
-0.010868
0.041722
0.037795
0.043208
-0.037893
0.057011
-0.044685
-0.017182
-0.009261
-0.050946
0.012346
-0.041254
0.003282
0.001356
0.036351
0.052367
0.044623
-0.028973
0.014327
0.024224
0.020758
-0.053812
-0.056722
-0.030937
0.031052
0.024790
0.035485
0.033104
-0.019960
-0.017585
-0.015460
0.055060
0.022216
-0.005429
0.061989
0.007236
0.039460
0.032882
0.064729
0.029419
0.016306
0.000278
-0.003424
-0.027576
-0.042849
-0.044564
-0.046334
0.029321
0.026742
-0.040314
0.019944
0.017605
-0.014128
0.047581
-0.031948
-0.035710
-0.033930
-0.034152
0.049782
0.053291
0.017114
0.015000
0.042568
-0.026921
-0.009880
-0.024231
-0.022325
0.002379
-0.032747
0.010182
0.012222
0.004432
-0.037127
-0.037516
-0.001170
0.060184
0.056263
-0.015394
0.052828
0.008233
0.049371
0.009348
0.053094
0.063804
0.039779
-0.039254
-0.049069
-0.048147
0.005416
0.069338
-0.043950
0.061387
0.007399
0.005258
0.025955
0.066616
-0.013659
-0.011928
-0.020614
0.062810
-0.039580
-0.049081
0.068228
-0.051896
0.064800
0.010372
0.003025
0.070693
0.070476
0.071257
-0.006792
-0.052519
-0.001740
0.071448
0.019026
0.017295
-0.055968
-0.057498
0.045993
-0.023733
-0.008984
0.042192
-0.026558
0.003033
-0.034384
0.050749
-0.016081
-0.024896
0.030673
0.040422
-0.024940
0.008505
0.008125
-0.044591
-0.036922
0.060220
0.004525
0.028431
0.062110
-0.049191
-0.030117
0.011076
-0.049815
0.027971
0.015388
-0.030833
-0.032938
0.046465
0.048519
0.050224
-0.021344
-0.016145
0.013278
0.046713
0.058427
0.050140
-0.046385
0.062049
-0.042994
0.024968
0.001283
0.065529
0.068968
-0.055748
-0.012033
-0.025133
0.040722
0.016729
0.034359
0.036735
-0.018618
0.000331
-0.020984
-0.029596
0.045231
0.018916
0.055826
0.051225
0.023499
-0.008712
0.019703
-0.004256
-0.009599
-0.015077
0.003351
0.043528
0.011259
-0.027885
-0.035198
-0.034691
0.044896
0.060195
-0.045455
0.061079
0.055307
0.025080
-0.002129
0.006510
0.057564
0.038529
0.051877
0.006187
-0.038352
-0.043670
-0.041273
0.034605
0.004279
0.067579
0.069511
-0.012687
0.031142
0.009117
-0.050006
-0.036191
-0.034448
0.041476
0.013332
0.053915
-0.010969
0.002282
0.065670
-0.018895
-0.052851
-0.007561
0.011359
0.022489
-0.051535
-0.054987
0.019769
0.058705
-0.054778
-0.046387
0.068740
0.069715
0.015315
-0.002464
-0.000733
0.018037
-0.005098
0.038063
-0.029263
-0.042002
-0.022802
-0.024872
-0.006308
-0.012946
0.040162
0.030153
-0.031910
0.047540
0.025437
0.036371
0.054978
-0.033192
0.046220
-0.002706
-0.014588
-0.007771
0.045583
0.009822
0.037079
0.054348
-0.039709
-0.011728
0.064883
-0.043701
0.014076
-0.030592
-0.027632
0.043270
0.001558
0.067772
-0.048837
-0.051101
-0.022295
0.038137
0.017010
0.053372
0.036341
0.034043
0.032133
0.048043
0.049923
0.005206
-0.028449
-0.020709
-0.041168
-0.017852
-0.048245
0.033618
0.030154
-0.008321
0.021500
-0.004167
0.042205
-0.024028
0.039692
-0.018385
-0.010244
0.029572
0.023142
0.020519
0.001788
0.000048
-0.032625
0.018314
-0.033493
-0.007048
-0.008566
0.014304
0.004050
-0.013970
-0.007531
0.041951
-0.023043
0.009536
-0.026365
0.015311
-0.026612
0.011659
-0.033550
-0.031784
-0.042844
0.058458
0.026388
-0.019646
0.007522
0.053578
0.010078
0.055821
-0.035947
0.048391
-0.045471
0.051448
-0.047310
0.061125
-0.040320
-0.038605
-0.037619
0.007066
-0.014403
0.005531
0.059290
0.060405
-0.025519
0.041173
0.015067
0.018779
-0.043707
0.026696
0.000545
-0.001465
-0.048093
-0.050144
0.023238
0.067243
0.068543
0.003549
-0.000479
0.062984
-0.005866
0.063819
0.067021
-0.054010
0.016058
0.012085
0.067992
0.017048
-0.053257
0.038799
-0.053032
0.056031
0.059323
-0.035247
-0.005092
0.028889
0.024209
-0.029643
0.045275
0.015747
0.035291
-0.016936
0.003586
0.053236
-0.028203
0.043838
-0.022611
0.030425
0.038405
0.024694
-0.027317
0.007874
-0.041170
-0.020491
-0.034284
0.037814
0.057590
-0.044647
0.053371
0.029166
0.003820
0.012777
-0.047454
0.041498
-0.025851
0.015806
-0.000193
0.060309
0.023984
0.061128
0.066045
0.057598
-0.037662
-0.047120
0.066806
0.020509
0.017792
-0.051308
0.027130
-0.015512
0.043770
-0.028138
0.033032
0.001525
0.033891
-0.019393
-0.038481
-0.031216
0.048975
0.054130
-0.031796
-0.006632
0.021849
-0.032328
-0.004096
0.037154
0.047181
0.010596
0.013877
0.012610
0.049104
-0.022407
-0.042029
-0.029145
0.047242
-0.012415
-0.013486
0.056669
0.005807
-0.030922
-0.021414
-0.040332
-0.018591
0.050895
-0.033749
0.029203
0.052625
0.039104
-0.023425
0.049195
-0.023319
0.008684
0.006408
-0.042851
0.022442
0.002570
-0.045576
-0.015149
0.058489
-0.036752
0.035354
0.063928
0.052247
0.031872
-0.045404
0.065842
-0.013436
0.066259
0.027442
0.013075
-0.048406
-0.010019
-0.003194
-0.050553
0.001845
0.062842
0.010799
-0.000452
0.038795
-0.001555
-0.042013
-0.004918
-0.006623
-0.052282
-0.052066
0.057720
0.040493
0.004633
0.043891
0.040610
-0.024959
-0.006316
0.018400
-0.023975
0.035323
-0.011106
-0.009011
0.044402
-0.028769
0.032511
0.001128
0.014559
-0.017558
0.018147
-0.019294
0.005200
-0.031565
-0.024501
-0.019315
0.040148
-0.014188
-0.006186
0.028869
-0.026556
0.010437
-0.019340
0.055855
-0.042946
0.028178
-0.012477
0.013476
-0.045731
-0.042720
-0.046150
0.044582
-0.011182
0.060159
-0.003611
-0.029080
0.043161
-0.027532
0.051784
-0.001176
0.055005
0.036642
0.034357
-0.007369
0.014794
0.030882
-0.005370
0.062194
0.019521
-0.003923
-0.050334
-0.049586
0.001049
0.056703
-0.017868
0.012135
-0.031061
0.016610
0.052435
0.042178
-0.026554
-0.030583
0.045657
0.046752
0.007430
0.020154
0.035183
-0.021388
-0.020895
0.048556
0.008898
-0.039547
-0.038200
-0.036833
-0.021786
0.046695
0.054087
-0.028346
0.006851
0.037456
0.011763
0.051670
0.023499
0.000847
0.039848
-0.024170
-0.013127
0.048252
-0.042009
-0.034397
0.049837
0.013789
-0.035954
-0.008721
0.004826
0.044710
0.036087
0.061246
-0.035995
0.065081
-0.001184
-0.016862
0.059418
-0.043750
-0.010777
0.022241
-0.049365
0.016792
0.059387
-0.002193
0.002830
0.065304
-0.046502
0.011494
0.041223
0.039506
0.025711
0.021327
0.063154
-0.039346
0.064546
0.055048
0.028009
-0.040329
0.019116
-0.025644
-0.032614
0.034280
0.032514
0.005769
0.025909
0.011046
-0.016351
0.031178
0.002704
0.017152
0.033758
-0.039426
-0.000232
-0.030059
0.050630
-0.029337
0.043325
-0.021272
-0.012822
0.033854
0.037061
0.022063
-0.025804
0.007291
-0.037996
0.045276
0.038517
0.012099
0.052388
-0.035025
0.058589
0.003126
-0.011525
0.014465
0.000131
-0.027716
-0.035208
-0.020077
0.018692
0.025609
0.007916
0.052580
0.054982
-0.024907
-0.039493
0.015504
0.016931
0.029893
0.032580
0.016504
0.024730
0.060473
0.035078
0.058448
-0.044786
0.021249
0.063593
0.029780
0.002914
0.040481
-0.024848
-0.011700
0.047672
-0.002378
0.009285
0.010109
0.037821
0.039308
-0.022146
-0.023649
-0.019869
-0.005482
-0.038855
-0.020383
-0.023131
0.005153
0.035421
0.041839
-0.026216
-0.032215
-0.041187
-0.000891
-0.002925
0.019934
-0.007331
0.049922
-0.042049
0.027831
-0.009764
0.014553
0.056742
-0.043869
0.032599
-0.035172
-0.031656
-0.029811
0.064117
-0.048616
-0.004903
-0.044421
-0.005645
0.061859
-0.014174
0.050590
-0.017602
0.063370
-0.047853
0.026454
-0.041028
0.056759
0.064335
0.018531
-0.009073
0.002139
0.012466
-0.046684
-0.036694
0.006217
-0.000038
0.035838
0.042906
0.055852
-0.030000
0.024580
-0.014964
-0.016748
0.012761
0.031823
0.010900
0.004232
0.015046
-0.037875
-0.018305
-0.029763
0.045980
0.004189
-0.019383
-0.004853
0.028502
0.024127
0.035957
0.018292
0.053267
-0.013645
-0.034062
-0.039516
-0.042168
0.001464
0.028915
-0.001963
-0.001598
0.057481
0.046149
-0.009840
-0.043440
-0.008117
-0.018021
-0.021542
-0.004168
0.008437
0.031379
-0.044021
-0.013217
-0.004645
-0.046905
0.020256
0.062404
0.025476
0.054129
-0.029029
0.006732
0.000432
-0.024476
0.050111
0.044708
0.009377
0.046723
0.011036
0.034603
-0.036605
-0.020263
0.021031
-0.028658
-0.028638
0.051744
-0.030112
0.006261
0.026854
0.038583
-0.022908
0.013448
-0.007394
-0.038706
0.033005
0.017708
0.030611
0.048976
0.027521
0.023168
0.036194
-0.032869
-0.011914
-0.033304
0.004151
0.015490
0.060913
0.059537
0.036795
-0.023200
-0.040323
-0.026747
0.042469
0.038850
0.033333
0.061432
0.022991
-0.015875
0.017523
-0.019597
-0.047649
-0.001908
0.048234
0.031593
0.001146
0.016150
-0.034406
-0.009821
0.061665
0.054131
0.053310
-0.040066
-0.038370
0.040231
0.013145
0.001689
0.002645
0.062627
0.057666
0.054065
-0.040372
0.050715
0.007241
-0.015588
-0.027415
0.043615
-0.018346
0.015733
-0.036252
-0.037280
0.012019
0.011368
0.013717
0.044508
-0.016529
0.041093
-0.025457
0.010938
-0.027235
0.041940
-0.011590
-0.018379
0.032589
0.027196
-0.025190
0.039253
0.051556
0.012649
0.046331
0.051408
-0.037882
0.056888
-0.012257
0.049767
-0.026357
-0.036355
-0.033615
0.016210
0.015372
0.025232
-0.008868
0.031197
0.021508
0.019162
-0.000545
0.047752
-0.032401
0.021974
0.059971
0.058782
0.060714
0.035797
-0.003644
-0.045947
-0.037419
0.009419
0.005695
0.013786
0.039936
-0.024305
-0.011055
0.034240
0.035136
-0.003587
-0.018823
0.045409
0.050794
0.052409
-0.000885
0.026428
0.009537
0.029416
0.007208
0.044348
-0.028096
0.023003
0.004574
0.002477
0.000476
-0.006213
0.046949
-0.037888
0.036671
0.038082
-0.022416
-0.038697
-0.020990
-0.024893
0.040531
-0.030677
-0.030753
-0.006390
-0.008241
0.023750
-0.045130
0.018242
-0.041259
-0.033629
-0.002593
-0.044964
0.019267
0.055759
0.034064
0.030617
-0.004001
0.017301
-0.016623
-0.014897
-0.035732
0.059189
-0.035021
0.007755
0.027188
0.041910
-0.043081
0.014115
0.055036
0.013730
0.048052
-0.041741
0.048929
-0.028313
0.005775
-0.017036
-0.026512
-0.019249
-0.018541
-0.015454
-0.014428
0.012997
0.003738
0.001904
0.043206
0.039691
-0.024052
-0.022983
0.041819
-0.026546
-0.023030
-0.004463
0.033453
0.021713
0.005438
-0.023984
0.014261
0.043621
0.034778
0.029637
-0.033138
0.000844
-0.017517
0.016955
-0.040483
0.008262
0.044673
0.046592
-0.009252
-0.002667
0.027998
-0.027001
0.024142
0.034935
-0.014000
-0.002271
-0.004320
-0.040774
-0.042341
0.024483
0.019979
0.059020
0.054836
0.050717
0.048448
-0.044264
0.005595
0.040927
-0.012420
-0.016899
-0.021952
0.012560
0.037611
0.038655
-0.001792
0.000738
-0.010674
0.033462
-0.017703
0.048528
0.020242
-0.005958
-0.027006
0.011398
0.031802
-0.008056
0.016362
-0.007183
0.037414
-0.021732
0.004033
-0.019128
0.015109
-0.035764
-0.015997
0.045515
-0.036230
-0.029828
-0.028114
0.043302
0.003529
-0.031375
-0.032837
0.029978
-0.038702
0.017184
-0.037107
0.059753
0.026290
0.053095
0.055971
0.037516
-0.025511
0.051595
0.008780
-0.015624
-0.017398
0.041127
-0.034794
0.032340
-0.010557
-0.028737
0.027927
0.042605
0.022720
0.048377
-0.039093
0.052440
-0.013948
0.014778
-0.005359
-0.000172
0.020980
0.058278
0.049734
0.007994
0.057824
-0.037054
-0.002641
0.045413
0.009945
-0.020697
0.014370
-0.034333
0.002918
0.011854
-0.023931
0.011342
-0.011249
-0.007100
0.026075
0.003796
-0.034626
0.042874
0.049028
-0.032202
0.050444
-0.016361
-0.000770
-0.032044
-0.027035
0.028647
-0.011290
0.055180
0.002276
0.012897
0.043266
0.031395
0.028623
-0.004097
0.007766
0.041819
-0.025029
0.038349
0.014992
0.016832
-0.033645
-0.038139
-0.027265
0.018933
0.057327
0.049923
-0.036220
0.031337
0.001888
0.032411
-0.015850
-0.014542
0.047461
0.030250
-0.016640
-0.022479
-0.000394
-0.001295
-0.009054
0.018227
0.020486
-0.025876
0.022871
0.034191