# vtk DataFile Version 2.0
Test
ASCII
DATASET POLYDATA
POINTS 5510 float
0.000000 0.000000 0.000000
0.080000 0.000000 0.000000
0.080000 0.160000 0.000000
0.000000 0.160000 0.000000
0.035000 0.076250 0.000000
0.046500 0.083750 0.000000
0.002000 0.000000 0.000000
0.004000 0.000000 0.000000
0.006000 0.000000 0.000000
0.008000 0.000000 0.000000
0.010000 0.000000 0.000000
0.012000 0.000000 0.000000
0.014000 0.000000 0.000000
0.016000 0.000000 0.000000
0.018000 0.000000 0.000000
0.020000 0.000000 0.000000
0.022000 0.000000 0.000000
0.024000 0.000000 0.000000
0.026000 0.000000 0.000000
0.028000 0.000000 0.000000
0.030000 0.000000 0.000000
0.032000 0.000000 0.000000
0.034000 0.000000 0.000000
0.036000 0.000000 0.000000
0.038000 0.000000 0.000000
0.040000 0.000000 0.000000
0.042000 0.000000 0.000000
0.044000 0.000000 0.000000
0.046000 0.000000 0.000000
0.048000 0.000000 0.000000
0.050000 0.000000 0.000000
0.052000 0.000000 0.000000
0.054000 0.000000 0.000000
0.056000 0.000000 0.000000
0.058000 0.000000 0.000000
0.060000 0.000000 0.000000
0.062000 0.000000 0.000000
0.064000 0.000000 0.000000
0.066000 0.000000 0.000000
0.068000 0.000000 0.000000
0.070000 0.000000 0.000000
0.072000 0.000000 0.000000
0.074000 0.000000 0.000000
0.076000 0.000000 0.000000
0.078000 0.000000 0.000000
0.080000 0.002000 0.000000
0.080000 0.004000 0.000000
0.080000 0.006000 0.000000
0.080000 0.008000 0.000000
0.080000 0.010000 0.000000
0.080000 0.012000 0.000000
0.080000 0.014000 0.000000
0.080000 0.016000 0.000000
0.080000 0.018000 0.000000
0.080000 0.020000 0.000000
0.080000 0.022000 0.000000
0.080000 0.024000 0.000000
0.080000 0.026000 0.000000
0.080000 0.028000 0.000000
0.080000 0.030000 0.000000
0.080000 0.032000 0.000000
0.080000 0.034000 0.000000
0.080000 0.036000 0.000000
0.080000 0.038000 0.000000
0.080000 0.040000 0.000000
0.080000 0.042000 0.000000
0.080000 0.044000 0.000000
0.080000 0.046000 0.000000
0.080000 0.048000 0.000000
0.080000 0.050000 0.000000
0.080000 0.052000 0.000000
0.080000 0.054000 0.000000
0.080000 0.056000 0.000000
0.080000 0.058000 0.000000
0.080000 0.060000 0.000000
0.080000 0.062000 0.000000
0.080000 0.064000 0.000000
0.080000 0.066000 0.000000
0.080000 0.068000 0.000000
0.080000 0.070000 0.000000
0.080000 0.072000 0.000000
0.080000 0.074000 0.000000
0.080000 0.076000 0.000000
0.080000 0.078000 0.000000
0.080000 0.080000 0.000000
0.080000 0.082000 0.000000
0.080000 0.084000 0.000000
0.080000 0.086000 0.000000
0.080000 0.088000 0.000000
0.080000 0.090000 0.000000
0.080000 0.092000 0.000000
0.080000 0.094000 0.000000
0.080000 0.096000 0.000000
0.080000 0.098000 0.000000
0.080000 0.100000 0.000000
0.080000 0.102000 0.000000
0.080000 0.104000 0.000000
0.080000 0.106000 0.000000
0.080000 0.108000 0.000000
0.080000 0.110000 0.000000
0.080000 0.112000 0.000000
0.080000 0.114000 0.000000
0.080000 0.116000 0.000000
0.080000 0.118000 0.000000
0.080000 0.120000 0.000000
0.080000 0.122000 0.000000
0.080000 0.124000 0.000000
0.080000 0.126000 0.000000
0.080000 0.128000 0.000000
0.080000 0.130000 0.000000
0.080000 0.132000 0.000000
0.080000 0.134000 0.000000
0.080000 0.136000 0.000000
0.080000 0.138000 0.000000
0.080000 0.140000 0.000000
0.080000 0.142000 0.000000
0.080000 0.144000 0.000000
0.080000 0.146000 0.000000
0.080000 0.148000 0.000000
0.080000 0.150000 0.000000
0.080000 0.152000 0.000000
0.080000 0.154000 0.000000
0.080000 0.156000 0.000000
0.080000 0.158000 0.000000
0.078000 0.160000 0.000000
0.076000 0.160000 0.000000
0.074000 0.160000 0.000000
0.072000 0.160000 0.000000
0.070000 0.160000 0.000000
0.068000 0.160000 0.000000
0.066000 0.160000 0.000000
0.064000 0.160000 0.000000
0.062000 0.160000 0.000000
0.060000 0.160000 0.000000
0.058000 0.160000 0.000000
0.056000 0.160000 0.000000
0.054000 0.160000 0.000000
0.052000 0.160000 0.000000
0.050000 0.160000 0.000000
0.048000 0.160000 0.000000
0.046000 0.160000 0.000000
0.044000 0.160000 0.000000
0.042000 0.160000 0.000000
0.040000 0.160000 0.000000
0.038000 0.160000 0.000000
0.036000 0.160000 0.000000
0.034000 0.160000 0.000000
0.032000 0.160000 0.000000
0.030000 0.160000 0.000000
0.028000 0.160000 0.000000
0.026000 0.160000 0.000000
0.024000 0.160000 0.000000
0.022000 0.160000 0.000000
0.020000 0.160000 0.000000
0.018000 0.160000 0.000000
0.016000 0.160000 0.000000
0.014000 0.160000 0.000000
0.012000 0.160000 0.000000
0.010000 0.160000 0.000000
0.008000 0.160000 0.000000
0.006000 0.160000 0.000000
0.004000 0.160000 0.000000
0.002000 0.160000 0.000000
0.000000 0.158000 0.000000
0.000000 0.156000 0.000000
0.000000 0.154000 0.000000
0.000000 0.152000 0.000000
0.000000 0.150000 0.000000
0.000000 0.148000 0.000000
0.000000 0.146000 0.000000
0.000000 0.144000 0.000000
0.000000 0.142000 0.000000
0.000000 0.140000 0.000000
0.000000 0.138000 0.000000
0.000000 0.136000 0.000000
0.000000 0.134000 0.000000
0.000000 0.132000 0.000000
0.000000 0.130000 0.000000
0.000000 0.128000 0.000000
0.000000 0.126000 0.000000
0.000000 0.124000 0.000000
0.000000 0.122000 0.000000
0.000000 0.120000 0.000000
0.000000 0.118000 0.000000
0.000000 0.116000 0.000000
0.000000 0.114000 0.000000
0.000000 0.112000 0.000000
0.000000 0.110000 0.000000
0.000000 0.108000 0.000000
0.000000 0.106000 0.000000
0.000000 0.104000 0.000000
0.000000 0.102000 0.000000
0.000000 0.100000 0.000000
0.000000 0.098000 0.000000
0.000000 0.096000 0.000000
0.000000 0.094000 0.000000
0.000000 0.092000 0.000000
0.000000 0.090000 0.000000
0.000000 0.088000 0.000000
0.000000 0.086000 0.000000
0.000000 0.084000 0.000000
0.000000 0.082000 0.000000
0.000000 0.080000 0.000000
0.000000 0.078000 0.000000
0.000000 0.076000 0.000000
0.000000 0.074000 0.000000
0.000000 0.072000 0.000000
0.000000 0.070000 0.000000
0.000000 0.068000 0.000000
0.000000 0.066000 0.000000
0.000000 0.064000 0.000000
0.000000 0.062000 0.000000
0.000000 0.060000 0.000000
0.000000 0.058000 0.000000
0.000000 0.056000 0.000000
0.000000 0.054000 0.000000
0.000000 0.052000 0.000000
0.000000 0.050000 0.000000
0.000000 0.048000 0.000000
0.000000 0.046000 0.000000
0.000000 0.044000 0.000000
0.000000 0.042000 0.000000
0.000000 0.040000 0.000000
0.000000 0.038000 0.000000
0.000000 0.036000 0.000000
0.000000 0.034000 0.000000
0.000000 0.032000 0.000000
0.000000 0.030000 0.000000
0.000000 0.028000 0.000000
0.000000 0.026000 0.000000
0.000000 0.024000 0.000000
0.000000 0.022000 0.000000
0.000000 0.020000 0.000000
0.000000 0.018000 0.000000
0.000000 0.016000 0.000000
0.000000 0.014000 0.000000
0.000000 0.012000 0.000000
0.000000 0.010000 0.000000
0.000000 0.008000 0.000000
0.000000 0.006000 0.000000
0.000000 0.004000 0.000000
0.000000 0.002000 0.000000
0.035411 0.076518 0.000000
0.035821 0.076786 0.000000
0.036232 0.077054 0.000000
0.036643 0.077321 0.000000
0.037054 0.077589 0.000000
0.037464 0.077857 0.000000
0.037875 0.078125 0.000000
0.038286 0.078393 0.000000
0.038696 0.078661 0.000000
0.039107 0.078929 0.000000
0.039518 0.079196 0.000000
0.039929 0.079464 0.000000
0.040339 0.079732 0.000000
0.040750 0.080000 0.000000
0.041161 0.080268 0.000000
0.041571 0.080536 0.000000
0.041982 0.080804 0.000000
0.042393 0.081071 0.000000
0.042804 0.081339 0.000000
0.043214 0.081607 0.000000
0.043625 0.081875 0.000000
0.044036 0.082143 0.000000
0.044446 0.082411 0.000000
0.044857 0.082679 0.000000
0.045268 0.082946 0.000000
0.045679 0.083214 0.000000
0.046089 0.083482 0.000000
0.040000 0.002000 0.000000
0.040001 0.158005 0.000000
0.002000 0.116000 0.000000
0.078000 0.048000 0.000000
0.002000 0.106000 0.000000
0.078000 0.058000 0.000000
0.001986 0.042173 0.000000
0.078015 0.117826 0.000000
0.001985 0.094174 0.000000
0.001985 0.084174 0.000000
0.001914 0.056074 0.000000
0.002000 0.072000 0.000000
0.078015 0.065826 0.000000
0.078016 0.075826 0.000000
0.078000 0.088000 0.000000
0.078000 0.104000 0.000000
0.078003 0.029997 0.000000
0.001998 0.130002 0.000000
0.002000 0.032000 0.000000
0.078013 0.128003 0.000000
0.056000 0.158000 0.000000
0.026000 0.002000 0.000000
0.060000 0.002000 0.000000
0.020000 0.158000 0.000000
0.002000 0.020000 0.000000
0.078000 0.142000 0.000000
0.002000 0.146000 0.000000
0.078000 0.020000 0.000000
0.016000 0.002000 0.000000
0.068000 0.002000 0.000000
0.066000 0.158000 0.000000
0.002000 0.014000 0.000000
0.008000 0.158000 0.000000
0.010000 0.002000 0.000000
0.078000 0.148000 0.000000
0.078000 0.008000 0.000000
0.078005 0.037995 0.000000
0.051991 0.001990 0.000000
0.028000 0.158000 0.000000
0.002000 0.008000 0.000000
0.078000 0.094000 0.000000
0.078000 0.110000 0.000000
0.001983 0.066159 0.000000
0.002000 0.050000 0.000000
0.046000 0.158000 0.000000
0.078000 0.134000 0.000000
0.002000 0.140000 0.000000
0.006000 0.002000 0.000000
0.002000 0.154000 0.000000
0.074000 0.002000 0.000000
0.078000 0.152000 0.000000
0.074000 0.158000 0.000000
0.078000 0.080000 0.000000
0.078000 0.070000 0.000000
0.078000 0.122000 0.000000
0.002000 0.090000 0.000000
0.002000 0.080000 0.000000
0.002000 0.038000 0.000000
0.002000 0.102000 0.000000
0.002000 0.112000 0.000000
0.036000 0.002000 0.000000
0.078000 0.042000 0.000000
0.032000 0.002000 0.000000
0.047987 0.001989 0.000000
0.032008 0.158010 0.000000
0.002000 0.028000 0.000000
0.002000 0.126000 0.000000
0.060000 0.158000 0.000000
0.022000 0.002000 0.000000
0.002000 0.136000 0.000000
0.078000 0.024000 0.000000
0.012000 0.158000 0.000000
0.078000 0.158000 0.000000
0.001947 0.003947 0.000000
0.002000 0.158000 0.000000
0.078000 0.012000 0.000000
0.078000 0.096000 0.000000
0.078000 0.098000 0.000000
0.078000 0.082000 0.000000
0.078111 0.099889 0.000000
0.078035 0.083965 0.000000
0.078000 0.090000 0.000000
0.078000 0.106000 0.000000
0.078000 0.072000 0.000000
0.078000 0.112000 0.000000
0.078043 0.061976 0.000000
0.078000 0.114000 0.000000
0.002000 0.064000 0.000000
0.002000 0.062000 0.000000
0.002000 0.088000 0.000000
0.002000 0.078000 0.000000
0.002000 0.060000 0.000000
0.001966 0.076034 0.000000
0.002000 0.070000 0.000000
0.002000 0.054000 0.000000
0.001957 0.098024 0.000000
0.002000 0.048000 0.000000
0.002000 0.046000 0.000000
[...]
POINT_DATA 5510
SCALARS UX float 1
LOOKUP_TABLE default
0.052929
0.164532
0.000005
-0.109568
0.022244
0.034360
0.055730
0.058531
0.061333
0.064135
0.066939
0.069744
0.072550
0.075359
0.078170
0.080981
0.083793
0.086604
0.089412
0.092216
0.095013
0.097803
0.100589
0.103369
0.106143
0.108910
0.111672
0.114427
0.117177
0.119925
0.122670
0.125414
0.128158
0.130903
0.133651
0.136403
0.139163
0.141929
0.144707
0.147492
0.150288
0.153099
0.155931
0.158789
0.161650
0.162631
0.160768
0.158952
0.157134
0.155385
0.153637
0.151946
0.150255
0.148576
0.146902
0.145233
0.143583
0.141930
0.140263
0.138584
0.136889
0.135172
0.133429
0.131658
0.129855
0.128020
0.126193
0.124340
0.122470
0.120607
0.118702
0.116790
0.114873
0.112958
0.111042
0.109126
0.107212
0.105298
0.103382
0.101463
0.099542
0.097616
0.095688
0.093757
0.091823
0.089889
0.087949
0.086008
0.084069
0.082138
0.080184
0.078200
0.076175
0.073837
0.070475
0.066963
0.063023
0.058967
0.055204
0.051885
0.049014
0.046246
0.044082
0.041973
0.039975
0.038049
0.036128
0.034233
0.032336
0.030440
0.028545
0.026649
0.024754
0.022860
0.020972
0.019086
0.017201
0.015327
0.013452
0.011570
0.009694
0.007748
0.005639
0.003102
-0.000042
-0.002763
-0.005654
-0.008548
-0.011389
-0.014231
-0.017090
-0.019938
-0.022774
-0.025608
-0.028433
-0.031252
-0.034067
-0.036877
-0.039686
-0.042482
-0.045272
-0.048059
-0.050838
-0.053611
-0.056380
-0.059144
-0.061902
-0.064658
-0.067412
-0.070166
-0.072920
-0.075676
-0.078434
-0.081197
-0.083968
-0.086750
-0.089544
-0.092349
-0.095163
-0.097994
-0.100851
-0.103744
-0.106642
-0.107643
-0.105775
-0.103900
-0.102128
-0.100369
-0.098626
-0.096928
-0.095242
-0.093557
-0.091881
-0.090213
-0.088548
-0.086881
-0.085193
-0.083489
-0.081761
-0.080002
-0.078255
-0.076475
-0.074691
-0.072891
-0.071082
-0.069256
-0.067415
-0.065581
-0.063713
-0.061837
-0.059954
-0.058069
-0.056177
-0.054280
-0.052379
-0.050474
-0.048564
-0.046646
-0.044728
-0.042803
-0.040876
-0.038947
-0.037012
-0.035079
-0.033139
-0.031199
-0.029261
-0.027334
-0.025383
-0.023411
-0.021360
-0.019187
-0.016114
-0.012756
-0.009230
-0.005473
-0.001583
0.002055
0.005531
0.008037
0.010370
0.012619
0.014740
0.016749
0.018730
0.020628
0.022526
0.024424
0.026324
0.028223
0.030125
0.032027
0.033928
0.035830
0.037732
0.039633
0.041533
0.043433
0.045332
0.047232
0.049131
0.051030
0.022678
0.023144
0.023790
0.024408
0.024906
0.025278
0.025670
0.026101
0.026401
0.026833
0.027209
0.027523
0.027925
0.028329
0.028791
0.029235
0.029709
0.030154
0.030578
0.030963
0.031332
0.031664
0.032054
0.032427
0.032872
0.033358
0.033799
0.107032
-0.051733
-0.068230
0.119648
-0.059074
0.110178
0.015424
0.039234
-0.047895
-0.038294
-0.005645
-0.026506
0.102708
0.093099
0.081309
0.058864
0.135511
-0.080445
0.025349
0.029528
-0.029338
0.087506
0.134546
-0.079331
0.036735
0.016266
-0.093884
0.143860
0.073456
0.145613
-0.015182
0.042436
-0.096078
0.065039
0.010594
0.154202
0.128697
0.123556
-0.068303
0.048134
0.075403
0.048341
-0.020783
0.005982
-0.043377
0.023831
-0.088819
0.059435
-0.100944
0.154013
0.006767
-0.003936
0.089049
0.098686
0.035191
-0.043877
-0.034246
0.019654
-0.055310
-0.064626
0.101482
0.125136
0.095910
0.118057
-0.062790
0.029139
-0.077033
-0.023686
0.081886
-0.085472
0.140499
-0.090451
0.000658
0.051909
-0.104667
0.150674
0.073202
0.070249
0.087115
0.067127
0.085261
0.079367
0.054956
0.096762
0.045560
0.106431
0.043194
-0.018479
-0.015732
-0.041955
-0.032312
-0.012521
-0.030454
-0.024565
-0.001415
-0.051601
0.008826
0.011217
0.114000
0.123352
0.117776
-0.062785
-0.071784
0.033296
0.021564
0.112560
-0.057270
-0.048952
0.132150
-0.040582
-0.037779
-0.075290
0.093117
0.129050
-0.073814
0.031037
0.027633
0.021936
0.032937
0.020045
-0.083798
-0.034971
0.138841
-0.092198
-0.020855
0.079076
0.140063
-0.084871
0.014377
0.147246
-0.097379
0.038636
0.044336
-0.012335
0.070649
-0.009523
0.004816
-0.101769
0.056551
0.053641
0.157831
0.151199
0.159706
-0.061835
0.116829
-0.041142
-0.031575
-0.023777
-0.009164
0.009459
0.086377
0.078579
0.063270
0.095945
0.042621
-0.049822
-0.072359
0.026692
0.022463
0.094005
-0.033094
0.031955
0.017241
0.079984
-0.082399
0.137442
-0.021781
0.041441
0.071557
-0.090903
-0.010548
0.054759
0.120591
0.045241
0.003850
0.152123
0.082666
0.066996
0.072539
-0.027863
-0.012592
-0.017789
0.014089
0.077668
0.083509
0.063471
0.091312
0.094943
0.051833
0.100933
0.041191
-0.022875
-0.040134
-0.028700
-0.046120
-0.009166
-0.036504
0.002232
0.013346
0.104532
-0.049712
0.108352
-0.053505
0.112175
0.037521
-0.057275
0.017241
0.115974
-0.061013
-0.066656
0.121547
-0.070064
0.126957
-0.073573
0.109790
-0.054492
0.104254
-0.046161
0.115304
-0.060024
0.031456
0.023407
0.130439
0.098694
0.120805
-0.065542
-0.038668
0.126300
-0.071055
-0.078747
0.027228
0.025738
0.133834
0.033852
0.090313
0.021015
-0.032157
0.131795
-0.076569
0.034831
0.018159
-0.082125
0.137175
-0.087141
-0.026516
0.084697
-0.090506
0.142170
-0.018020
0.076265
-0.082096
0.137299
-0.087654
0.142831
0.012487
0.040536
-0.093261
0.145541
-0.095620
0.008696
0.148947
0.046235
0.067843
-0.099141
-0.006721
0.152407
0.002778
0.062236
0.050034
-0.098912
0.054734
0.148400
-0.001396
-0.099860
-0.102769
0.155993
0.154953
0.156845
-0.051224
0.106059
-0.006116
0.113439
0.060055
0.034768
-0.063730
0.124475
-0.074714
0.135444
0.145985
-0.085782
0.009656
0.127490
0.102473
-0.091365
-0.096201
0.074729
0.038380
-0.019936
0.102159
0.097979
-0.047349
-0.043147
0.092161
0.088370
-0.037358
-0.033536
0.109758
-0.054875
0.034424
0.026232
-0.058153
0.030057
0.130751
0.022928
-0.075724
0.088413
0.082792
0.074365
0.140967
-0.087471
-0.084082
0.065944
0.049038
-0.092649
0.142545
0.139126
-0.005080
0.001839
0.149503
0.150257
0.076577
0.080407
-0.021768
0.058913
-0.025600
0.040728
-0.005316
0.006322
0.118709
0.094051
-0.039244
0.016342
0.020474
-0.063693
-0.067171
0.047639
0.051032
0.113147
0.114951
-0.058216
-0.059985
-0.052717
0.070089
0.084559
-0.070635
-0.015411
-0.029754
0.045139
0.124038
0.122321
0.011738
0.024329
0.028606
0.118948
0.096876
-0.041439
0.108015
-0.044361
0.024828
-0.074070
-0.069213
-0.030292
0.091208
0.134084
0.135757
-0.079043
-0.080721
0.015342
0.129951
0.035734
0.039544
-0.035882
0.019135
0.077180
-0.047096
-0.024604
-0.080235
-0.016134
-0.018963
-0.013317
-0.089165
0.068751
0.146520
0.043339
0.047139
0.060338
0.149314
-0.007805
0.057536
0.153099
0.005821
-0.000151
-0.098012
0.052836
-0.097006
0.023258
0.119527
-0.056131
0.037461
-0.030881
-0.040579
-0.019492
-0.044999
0.095400
0.085784
0.074059
-0.067840
0.025833
-0.031198
0.094905
0.131039
0.016339
-0.075990
0.080892
-0.017097
0.042355
0.072471
-0.084452
0.049943
0.009658
-0.002552
0.044978
-0.006150
0.078515
-0.023802
0.018890
0.116158
0.067109
-0.012543
0.032865
0.027097
-0.071066
0.089313
0.066854
0.011555
-0.087937
0.002941
0.055057
0.072103
0.042121
-0.017382
0.090340
0.100001
-0.035535
-0.045190
0.104118
-0.049297
-0.065464
0.081911
0.063282
-0.009329
0.107987
-0.053128
0.018300
-0.027106
0.036075
-0.068789
-0.000822
0.004003
-0.042332
-0.050698
-0.060861
0.091778
-0.036971
0.125786
-0.056448
0.014563
0.111350
0.121657
0.099616
0.105184
0.116139
0.032464
0.030554
0.129142
0.028132
0.112443
-0.027429
0.132435
-0.066470
-0.077384
0.014423
0.022041
-0.036775
0.085596
0.037625
-0.057513
-0.060976
0.127212
-0.071963
0.132728
0.136113
0.036638
-0.077670
-0.081041
-0.022710
-0.014301
0.020107
0.132697
-0.077474
-0.085773
0.075288
-0.055418
0.140830
0.046147
0.013452
-0.083004
0.138200
-0.011554
0.143738
0.144249
0.147448
0.063141
0.007745
-0.094406
0.147732
0.055638
-0.088565
0.148422
0.151281
0.050937
-0.001008
-0.002571
-0.095138
-0.094177
0.110712
0.047920
-0.053415
-0.015123
-0.002834
0.070075
-0.040694
-0.072978
0.019227
0.111589
0.128040
0.035650
-0.061871
0.122623
0.136347
-0.015284
-0.072855
0.073383
0.141302
0.104809
-0.081145
0.145603
-0.086702
0.060026
-0.049975
0.124491
0.013516
0.001231
0.087095
-0.032658
-0.046165
-0.041878
0.100967
0.096694
0.100601
-0.074359
-0.025553
0.040428
0.083690
0.137834
0.010645
0.051840
-0.092303
0.007206
0.090210
-0.035420
0.021410
0.042559
-0.022204
0.076447
0.039655
-0.052263
0.107091
0.111037
-0.007063
0.117815
-0.054601
-0.064453
-0.062531
-0.066216
0.083626
-0.028925
0.079774
0.027688
0.031814
-0.025005
0.097647
-0.056294
-0.053385
0.069536
-0.014807
0.093489
-0.038685
0.051255
0.025196
0.129361
0.121209
0.012299
0.117082
0.035667
-0.072703
-0.069444
0.106068
-0.028412
-0.059171
0.038515
0.086512
0.023940
0.092080
-0.064629
0.030985
0.028993
0.114115
0.016684
0.134413
0.125367
-0.033986
0.126109
-0.039547
-0.079347
-0.082744
0.018237
0.012540
0.039419
-0.075615
0.130847
0.044243
0.078089
0.141876
-0.019902
0.069659
-0.012550
0.048040
-0.067364
0.008732
0.004899
0.144657
0.144836
0.146619
0.061244
0.064051
0.053739
0.058440
-0.086193
-0.008845
-0.089720
-0.093304
-0.047964
-0.003592
0.000955
0.116690
0.102792
-0.032936
-0.025291
0.017073
-0.002722
0.087744
0.080228
0.098533
-0.060055
0.120793
-0.071010
-0.026544
-0.013533
-0.079760
0.047042
-0.061987
0.007846
0.026010
0.087423
0.108309
0.093238
-0.038411
0.050848
0.067768
0.062153
-0.085034
-0.090453
-0.048827
0.067478
0.051102
0.075902
0.071490
-0.021311
-0.016944
-0.012800
0.113498
0.044796
0.012571
0.126426
0.015431
0.083420
0.081800
0.131428
0.076187
0.054645
0.002046
-0.004541
-0.043389
-0.064977
-0.068128
-0.071355
0.063312
0.056668
-0.060210
0.039863
0.035263
-0.009872
0.098529
-0.043724
-0.051421
-0.048001
-0.047962
0.102776
0.109593
0.033814
0.029787
0.089395
-0.034580
0.000958
-0.037973
-0.034879
0.027947
-0.051751
0.021084
0.024984
0.031856
-0.059103
-0.054924
0.021187
0.122872
0.119867
-0.023646
0.114340
0.017345
0.108769
0.041286
0.109766
0.129738
0.092980
-0.058228
-0.076338
-0.074657
0.033739
0.139559
-0.070101
0.128105
0.037536
0.011640
0.070574
0.134866
-0.020841
-0.018046
-0.032107
0.127712
-0.062778
-0.078373
0.139106
-0.081501
0.133592
0.043250
0.006828
0.142810
0.141977
0.143063
-0.009849
-0.083921
-0.001869
0.143781
0.059347
0.056542
-0.089491
-0.091499
0.103318
-0.028461
0.004562
0.088259
-0.033456
0.028734
-0.049339
0.105675
-0.014428
-0.031052
0.067168
0.085657
-0.038841
0.018368
0.038419
-0.068393
-0.058207
0.123421
0.010747
0.074296
0.128996
-0.076829
-0.047218
0.044089
-0.079286
0.060782
0.030917
-0.042043
-0.046088
0.096844
0.100819
0.104182
-0.033005
-0.024587
0.026977
0.104199
0.119897
0.109730
-0.071671
0.126779
-0.068285
0.068684
0.003996
0.134496
0.140029
-0.088626
-0.005715
-0.031148
0.085873
0.033548
0.073868
0.078294
-0.018881
0.024132
-0.023301
-0.039699
0.094501
0.037764
0.115012
0.106100
0.047838
0.004205
0.039831
0.014981
0.000578
-0.012484
0.029797
0.091214
0.023141
-0.036401
-0.050916
-0.049501
0.101263
0.123150
-0.069754
0.124766
0.118051
0.053231
0.019311
0.014549
0.118295
0.081665
0.112527
0.034724
-0.056528
-0.066493
-0.065509
0.084594
0.009760
0.136633
0.140190
-0.019006
0.078980
0.040321
-0.078045
-0.057312
-0.054497
0.095727
0.048936
0.111367
-0.016254
0.005922
0.133145
-0.029320
-0.083257
-0.010835
0.045145
0.064957
-0.082063
-0.087639
0.060257
0.123520
-0.086823
-0.073757
0.139153
0.140977
0.052745
-0.002739
0.000079
0.057450
-0.007168
0.090197
-0.046118
-0.063408
-0.026707
-0.030534
0.010535
-0.007928
0.084777
0.065441
-0.044121
0.098927
0.053076
0.077507
0.113773
-0.047445
0.096864
0.017659
-0.011902
0.004538
0.102088
0.041174
0.088317
0.116227
-0.059441
-0.017222
0.131992
-0.069151
0.049845
-0.042055
-0.036251
0.091053
0.005049
0.137348
-0.077439
-0.080371
-0.026118
0.081257
0.034562
0.110690
0.077839
0.073529
0.069885
0.100393
0.104068
0.032868
-0.044520
-0.023065
-0.062147
-0.027348
-0.075083
0.082706
0.077090
-0.011804
0.063062
-0.005464
0.096624
-0.029409
0.084251
-0.018735
-0.002030
0.064867
0.047867
0.041703
0.026466
0.023134
-0.045947
0.037141
-0.047624
0.007535
0.003490
0.028940
0.030650
-0.010180
0.007390
0.088606
-0.035773
0.020329
-0.033901
0.031300
-0.041546
0.024355
-0.052765
-0.049911
-0.065210
0.120192
0.056759
-0.030254
0.016487
0.115266
0.042171
0.115340
-0.052373
0.106904
-0.070000
0.107061
-0.073364
0.125083
-0.063694
-0.060924
-0.055534
0.036427
-0.021771
0.012671
0.121491
0.126254
-0.032288
0.087111
0.051750
0.058359
-0.066782
0.071484
0.003099
-0.000801
-0.076509
-0.078592
0.065879
0.137254
0.138406
0.008873
0.022009
0.128497
-0.008153
0.131746
0.136373
-0.085798
0.053652
0.046024
0.138197
0.055553
-0.084842
0.091104
-0.083961
0.118938
0.121777
-0.055504
0.012621
0.063248
0.050698
-0.040208
0.095014
0.031685
0.075749
-0.016034
0.029357
0.110818
-0.037911
0.092730
-0.027091
0.067020
0.082141
0.053232
-0.042406
0.017632
-0.062369
-0.031354
-0.053666
0.089221
0.118837
-0.068740
0.114372
0.075201
0.009896
0.046846
-0.073951
0.088095
-0.033283
0.052652
0.002201
0.123860
0.066797
0.127145
0.134545
0.118615
-0.059121
-0.074668
0.135554
0.061164
0.056465
-0.081165
0.059680
-0.013651
0.092078
-0.037282
0.071702
0.025548
0.073472
-0.020737
-0.057141
-0.043695
0.102221
0.112168
-0.044343
0.007727
0.044674
-0.045815
0.014862
0.079425
0.098720
0.022352
0.028492
0.026161
0.107773
-0.034471
-0.063723
-0.045360
0.104767
-0.007329
-0.009696
0.116905
0.013696
-0.048234
-0.024453
-0.060613
-0.028269
0.110660
-0.048568
0.064585
0.113450
0.083508
-0.028651
0.103120
-0.028033
0.039029
0.034724
-0.065442
0.046903
0.006993
-0.070457
-0.022711
0.120495
-0.053906
0.085520
0.130229
0.108604
0.079876
-0.071899
0.133767
-0.019956
0.135406
0.072405
0.047926
-0.075729
-0.014500
-0.003616
-0.080208
0.006114
0.129904
0.043047
0.001168
0.082560
0.019941
-0.066427
-0.006392
-0.009108
-0.083001
-0.082168
0.121658
0.093846
0.031320
0.099349
0.086420
-0.031607
0.009661
0.037600
-0.036995
0.075957
-0.004405
0.001184
0.093314
-0.038514
0.070688
0.025121
0.029859
-0.017197
0.036651
-0.020411
0.031969
-0.044767
-0.031085
-0.020794
0.085895
-0.011453
0.007855
0.064309
-0.040896
0.041884
-0.029212
0.115906
-0.065898
0.073311
-0.018176
0.028280
-0.071116
-0.067293
-0.072833
0.100182
-0.005157
0.125314
0.015296
-0.039597
0.091368
-0.036568
0.108027
0.020237
0.114081
0.078814
0.083617
-0.010038
0.050713
0.077984
0.010952
0.127356
0.059269
-0.004496
-0.079337
-0.078381
0.024501
0.117205
-0.018097
0.025626
-0.043273
0.034140
0.109304
0.089443
-0.034663
-0.042897
0.096144
0.098372
0.036644
0.041454
0.076000
-0.032544
-0.023833
0.101857
0.019565
-0.059413
-0.056928
-0.054395
-0.025524
0.103601
0.112390
-0.043788
0.015689
0.080373
0.044900
0.111627
0.049942
0.004196
0.084953
-0.030096
-0.009390
0.106112
-0.063901
-0.049833
0.104391
0.048786
-0.056363
0.001043
0.011820
0.094402
0.086421
0.125594
-0.052842
0.132741
0.000282
-0.025473
0.124394
-0.067089
-0.015465
0.063971
-0.077523
0.054546
0.122155
-0.001677
0.008002
0.133604
-0.072177
0.043884
0.094744
0.091960
0.069598
0.044116
0.129143
-0.061844
0.132648
0.117076
0.061915
-0.060839
0.039231
-0.039694
-0.050968
0.074321
0.071011
0.033430
0.056431
0.023637
-0.015210
0.068483
0.027654
0.035263
0.072711
-0.058854
0.023009
-0.041448
0.106262
-0.040912
0.092144
-0.024907
-0.009123
0.073821
0.079935
0.047041
-0.039403
0.016967
-0.056790
0.101026
0.090070
0.044581
0.112504
-0.054578
0.120995
0.009057
-0.016413
0.049581
0.003327
-0.037369
-0.051670
-0.030173
0.038867
0.056689
0.037181
0.109842
0.114288
-0.038225
-0.059530
0.032093
0.035161
0.076092
0.071322
0.053486
0.067717
0.124523
0.084496
0.122557
-0.069343
0.062070
0.130846
0.066103
0.027781
0.086619
-0.031826
-0.006458
0.100187
0.017865
0.039713
0.021850
0.081426
0.084301
-0.026580
-0.029477
-0.021914
0.009884
-0.058138
-0.023211
-0.035350
0.012919
0.076838
0.089241
-0.034443
-0.046049
-0.062636
0.001364
-0.002562
0.041509
0.004768
0.108805
-0.064232
0.062088
-0.001839
0.030288
0.119808
-0.067619
0.080766
-0.051297
-0.049136
-0.041413
0.130939
-0.076550
0.012420
-0.070043
-0.007277
0.128055
-0.020890
0.105835
-0.026402
0.129964
-0.075582
0.070514
-0.064562
0.117584
0.131780
0.057370
-0.012754
0.007171
0.045748
-0.072909
-0.057277
0.033882
0.022435
0.077282
0.097466
0.115639
-0.046461
0.053775
-0.012937
-0.016055
0.026881
0.069706
0.023651
0.030131
0.031530
-0.056272
-0.018980
-0.041163
0.096854
0.029822
-0.021633
0.010518
0.063926
0.053614
0.078184
0.038519
0.111396
-0.010720
-0.052741
-0.059838
-0.064814
0.006362
0.074217
0.018221
0.000508
0.120725
0.097666
-0.002720
-0.068185
-0.010967
-0.018681
-0.032511
0.013147
0.019073
0.069157
-0.068319
-0.019114
-0.005364
-0.073784
0.060168
0.128148
0.068639
0.112712
-0.044607
0.034444
0.022924
-0.037255
0.105198
0.094833
0.020908
0.103360
0.042578
0.075269
-0.054243
-0.023314
0.044244
-0.039151
-0.039547
0.108307
-0.042394
0.015018
0.059873
0.082900
-0.028055
0.047633
0.003675
-0.058091
0.072230
0.036825
0.067685
0.107004
0.061900
0.050097
0.078313
-0.047311
-0.007295
-0.051798
0.011009
0.051543
0.126261
0.122766
0.087281
-0.028965
-0.061049
-0.035544
0.090512
0.083784
0.081668
0.126321
0.064896
-0.023621
0.055437
-0.021719
-0.074725
-0.000594
0.101712
0.078848
0.005273
0.032915
-0.050187
-0.013694
0.127207
0.113012
0.111199
-0.062730
-0.059988
0.092848
0.046560
0.025285
0.027118
0.129024
0.119274
0.115211
-0.061437
0.109804
0.035813
-0.014170
-0.042002
0.098329
-0.027344
0.032891
-0.053544
-0.055477
0.025919
0.024643
0.029128
0.094274
-0.015848
0.087788
-0.032979
0.024235
-0.037279
0.089880
-0.007007
-0.020046
0.071744
0.061611
-0.038166
0.090974
0.108529
0.045190
0.102433
0.110639
-0.057128
0.118185
-0.017334
0.104895
-0.035128
-0.054016
-0.048986
0.052419
0.032583
0.056592
-0.011901
0.069034
0.046485
0.040430
0.002521
0.100742
-0.050058
0.062955
0.124471
0.121758
0.125407
0.085373
-0.003429
-0.071967
-0.058173
0.021249
0.014379
0.029496
0.085939
-0.031131
-0.005492
0.074922
0.076617
0.014767
-0.020248
0.096237
0.106791
0.109799
0.020384
0.059483
0.039801
0.065714
0.017141
0.099246
-0.038901
0.050491
0.012251
0.008284
0.004473
0.006855
0.099195
-0.056826
0.079571
0.082313
-0.027478
-0.058317
-0.024721
-0.032301
0.087131
-0.047272
-0.043633
-0.008191
0.001207
0.065839
-0.070916
0.056308
-0.063103
-0.048742
-0.001408
-0.070105
0.058273
0.117946
0.082566
0.076978
0.012826
0.036463
-0.024568
-0.021800
-0.055443
0.123479
-0.051568
0.036369
0.071416
0.095564
-0.066541
0.048420
0.114703
0.047225
0.105213
-0.065436
0.103039
-0.038809
0.032636
-0.016854
-0.040272
-0.028590
-0.020052
-0.014117
-0.012194
0.027730
0.028807
0.025342
0.092173
0.085371
-0.030559
-0.034835
0.089912
-0.036271
-0.029054
0.010668
0.073734
0.047928
0.014213
-0.035975
0.047805
0.097767
0.083433
0.075100
-0.050972
0.005637
-0.018433
0.036197
-0.062052
0.036922
0.095234
0.098947
-0.002095
0.015924
0.063251
-0.036677
0.054578
0.076555
-0.011664
-0.000296
-0.004230
-0.063598
-0.065588
0.066739
0.059137
0.122667
0.116179
0.106953
0.102693
-0.069245
0.032084
0.093683
-0.008647
-0.016921
-0.026907
0.027318
0.081744
0.083859
0.018084
0.023120
-0.005146
0.073439
-0.018463
0.102655
0.043089
0.006646
-0.036419
0.042920
0.070254
0.000944
0.034539
-0.009183
0.081013
-0.026156
0.011629
-0.021482
0.050322
-0.052922
-0.015209
0.096833
-0.054048
-0.045621
-0.042854
0.092573
0.010274
-0.044832
-0.047554
0.066827
-0.058680
0.054291
-0.055392
0.123591
0.059666
0.113365
0.116460
0.088160
-0.033533
0.108286
0.038296
-0.022716
-0.025564
0.088336
-0.053650
0.079771
-0.014612
-0.040132
0.072328
0.096418
0.063877
0.102274
-0.060882
0.110193
-0.020036
0.049205
-0.006223
0.003708
0.061052
0.121737
0.107933
0.018696
0.119950
-0.055575
0.015455
0.100662
0.022361
-0.030850
0.030685
-0.050304
0.027244
0.025965
-0.036129
0.025342
-0.006649
0.002674
0.059633
0.011476
-0.051380
0.096289
0.104129
-0.049183
0.108798
-0.023652
0.003017
-0.046337
-0.037231
0.073206
-0.015525
0.115378
0.025669
0.045330
0.092896
0.069751
0.064503
0.010726
0.018579
0.090104
-0.032986
0.089246
0.032262
0.053135
-0.049257
-0.059063
-0.041208
0.057146
0.119929
0.105463
-0.054390
0.077858
0.007604
0.071774
-0.015263
-0.012736
0.100893
0.067513
-0.016778
-0.033566
0.020925
0.018404
-0.002187
0.038940
0.044606
-0.034635
0.051119
0.075134
0.015782
0.034210
-0.018401
-0.051314
-0.022940
-0.025328
0.077828
0.080186
0.051064
-0.009949
-0.007049