# vtk DataFile Version 2.0
Test
ASCII
DATASET POLYDATA
POINTS 5510 float
0.000000 0.000000 0.000000
0.080000 0.000000 0.000000
0.080000 0.160000 0.000000
0.000000 0.160000 0.000000
0.035000 0.076250 0.000000
0.046500 0.083750 0.000000
0.002000 0.000000 0.000000
0.004000 0.000000 0.000000
0.006000 0.000000 0.000000
0.008000 0.000000 0.000000
0.010000 0.000000 0.000000
0.012000 0.000000 0.000000
0.014000 0.000000 0.000000
0.016000 0.000000 0.000000
0.018000 0.000000 0.000000
0.020000 0.000000 0.000000
0.022000 0.000000 0.000000
0.024000 0.000000 0.000000
0.026000 0.000000 0.000000
0.028000 0.000000 0.000000
0.030000 0.000000 0.000000
0.032000 0.000000 0.000000
0.034000 0.000000 0.000000
0.036000 0.000000 0.000000
0.038000 0.000000 0.000000
0.040000 0.000000 0.000000
0.042000 0.000000 0.000000
0.044000 0.000000 0.000000
0.046000 0.000000 0.000000
0.048000 0.000000 0.000000
0.050000 0.000000 0.000000
0.052000 0.000000 0.000000
0.054000 0.000000 0.000000
0.056000 0.000000 0.000000
0.058000 0.000000 0.000000
0.060000 0.000000 0.000000
0.062000 0.000000 0.000000
0.064000 0.000000 0.000000
0.066000 0.000000 0.000000
0.068000 0.000000 0.000000
0.070000 0.000000 0.000000
0.072000 0.000000 0.000000
0.074000 0.000000 0.000000
0.076000 0.000000 0.000000
0.078000 0.000000 0.000000
0.080000 0.002000 0.000000
0.080000 0.004000 0.000000
0.080000 0.006000 0.000000
0.080000 0.008000 0.000000
0.080000 0.010000 0.000000
0.080000 0.012000 0.000000
0.080000 0.014000 0.000000
0.080000 0.016000 0.000000
0.080000 0.018000 0.000000
0.080000 0.020000 0.000000
0.080000 0.022000 0.000000
0.080000 0.024000 0.000000
0.080000 0.026000 0.000000
0.080000 0.028000 0.000000
0.080000 0.030000 0.000000
0.080000 0.032000 0.000000
0.080000 0.034000 0.000000
0.080000 0.036000 0.000000
0.080000 0.038000 0.000000
0.080000 0.040000 0.000000
0.080000 0.042000 0.000000
0.080000 0.044000 0.000000
0.080000 0.046000 0.000000
0.080000 0.048000 0.000000
0.080000 0.050000 0.000000
0.080000 0.052000 0.000000
0.080000 0.054000 0.000000
0.080000 0.056000 0.000000
0.080000 0.058000 0.000000
0.080000 0.060000 0.000000
0.080000 0.062000 0.000000
0.080000 0.064000 0.000000
0.080000 0.066000 0.000000
0.080000 0.068000 0.000000
0.080000 0.070000 0.000000
0.080000 0.072000 0.000000
0.080000 0.074000 0.000000
0.080000 0.076000 0.000000
0.080000 0.078000 0.000000
0.080000 0.080000 0.000000
0.080000 0.082000 0.000000
0.080000 0.084000 0.000000
0.080000 0.086000 0.000000
0.080000 0.088000 0.000000
0.080000 0.090000 0.000000
0.080000 0.092000 0.000000
0.080000 0.094000 0.000000
0.080000 0.096000 0.000000
0.080000 0.098000 0.000000
0.080000 0.100000 0.000000
0.080000 0.102000 0.000000
0.080000 0.104000 0.000000
0.080000 0.106000 0.000000
0.080000 0.108000 0.000000
0.080000 0.110000 0.000000
0.080000 0.112000 0.000000
0.080000 0.114000 0.000000
0.080000 0.116000 0.000000
0.080000 0.118000 0.000000
0.080000 0.120000 0.000000
0.080000 0.122000 0.000000
0.080000 0.124000 0.000000
0.080000 0.126000 0.000000
0.080000 0.128000 0.000000
0.080000 0.130000 0.000000
0.080000 0.132000 0.000000
0.080000 0.134000 0.000000
0.080000 0.136000 0.000000
0.080000 0.138000 0.000000
0.080000 0.140000 0.000000
0.080000 0.142000 0.000000
0.080000 0.144000 0.000000
0.080000 0.146000 0.000000
0.080000 0.148000 0.000000
0.080000 0.150000 0.000000
0.080000 0.152000 0.000000
0.080000 0.154000 0.000000
0.080000 0.156000 0.000000
0.080000 0.158000 0.000000
0.078000 0.160000 0.000000
0.076000 0.160000 0.000000
0.074000 0.160000 0.000000
0.072000 0.160000 0.000000
0.070000 0.160000 0.000000
0.068000 0.160000 0.000000
0.066000 0.160000 0.000000
0.064000 0.160000 0.000000
0.062000 0.160000 0.000000
0.060000 0.160000 0.000000
0.058000 0.160000 0.000000
0.056000 0.160000 0.000000
0.054000 0.160000 0.000000
0.052000 0.160000 0.000000
0.050000 0.160000 0.000000
0.048000 0.160000 0.000000
0.046000 0.160000 0.000000
0.044000 0.160000 0.000000
0.042000 0.160000 0.000000
0.040000 0.160000 0.000000
0.038000 0.160000 0.000000
0.036000 0.160000 0.000000
0.034000 0.160000 0.000000
0.032000 0.160000 0.000000
0.030000 0.160000 0.000000
0.028000 0.160000 0.000000
0.026000 0.160000 0.000000
0.024000 0.160000 0.000000
0.022000 0.160000 0.000000
0.020000 0.160000 0.000000
0.018000 0.160000 0.000000
0.016000 0.160000 0.000000
0.014000 0.160000 0.000000
0.012000 0.160000 0.000000
0.010000 0.160000 0.000000
0.008000 0.160000 0.000000
0.006000 0.160000 0.000000
0.004000 0.160000 0.000000
0.002000 0.160000 0.000000
0.000000 0.158000 0.000000
0.000000 0.156000 0.000000
0.000000 0.154000 0.000000
0.000000 0.152000 0.000000
0.000000 0.150000 0.000000
0.000000 0.148000 0.000000
0.000000 0.146000 0.000000
0.000000 0.144000 0.000000
0.000000 0.142000 0.000000
0.000000 0.140000 0.000000
0.000000 0.138000 0.000000
0.000000 0.136000 0.000000
0.000000 0.134000 0.000000
0.000000 0.132000 0.000000
0.000000 0.130000 0.000000
0.000000 0.128000 0.000000
0.000000 0.126000 0.000000
0.000000 0.124000 0.000000
0.000000 0.122000 0.000000
0.000000 0.120000 0.000000
0.000000 0.118000 0.000000
0.000000 0.116000 0.000000
0.000000 0.114000 0.000000
0.000000 0.112000 0.000000
0.000000 0.110000 0.000000
0.000000 0.108000 0.000000
0.000000 0.106000 0.000000
0.000000 0.104000 0.000000
0.000000 0.102000 0.000000
0.000000 0.100000 0.000000
0.000000 0.098000 0.000000
0.000000 0.096000 0.000000
0.000000 0.094000 0.000000
0.000000 0.092000 0.000000
0.000000 0.090000 0.000000
0.000000 0.088000 0.000000
0.000000 0.086000 0.000000
0.000000 0.084000 0.000000
0.000000 0.082000 0.000000
0.000000 0.080000 0.000000
0.000000 0.078000 0.000000
0.000000 0.076000 0.000000
0.000000 0.074000 0.000000
0.000000 0.072000 0.000000
0.000000 0.070000 0.000000
0.000000 0.068000 0.000000
0.000000 0.066000 0.000000
0.000000 0.064000 0.000000
0.000000 0.062000 0.000000
0.000000 0.060000 0.000000
0.000000 0.058000 0.000000
0.000000 0.056000 0.000000
0.000000 0.054000 0.000000
0.000000 0.052000 0.000000
0.000000 0.050000 0.000000
0.000000 0.048000 0.000000
0.000000 0.046000 0.000000
0.000000 0.044000 0.000000
0.000000 0.042000 0.000000
0.000000 0.040000 0.000000
0.000000 0.038000 0.000000
0.000000 0.036000 0.000000
0.000000 0.034000 0.000000
0.000000 0.032000 0.000000
0.000000 0.030000 0.000000
0.000000 0.028000 0.000000
0.000000 0.026000 0.000000
0.000000 0.024000 0.000000
0.000000 0.022000 0.000000
0.000000 0.020000 0.000000
0.000000 0.018000 0.000000
0.000000 0.016000 0.000000
0.000000 0.014000 0.000000
0.000000 0.012000 0.000000
0.000000 0.010000 0.000000
0.000000 0.008000 0.000000
0.000000 0.006000 0.000000
0.000000 0.004000 0.000000
0.000000 0.002000 0.000000
0.035411 0.076518 0.000000
0.035821 0.076786 0.000000
0.036232 0.077054 0.000000
0.036643 0.077321 0.000000
0.037054 0.077589 0.000000
0.037464 0.077857 0.000000
0.037875 0.078125 0.000000
0.038286 0.078393 0.000000
0.038696 0.078661 0.000000
0.039107 0.078929 0.000000
0.039518 0.079196 0.000000
0.039929 0.079464 0.000000
0.040339 0.079732 0.000000
0.040750 0.080000 0.000000
0.041161 0.080268 0.000000
0.041571 0.080536 0.000000
0.041982 0.080804 0.000000
0.042393 0.081071 0.000000
0.042804 0.081339 0.000000
0.043214 0.081607 0.000000
0.043625 0.081875 0.000000
0.044036 0.082143 0.000000
0.044446 0.082411 0.000000
0.044857 0.082679 0.000000
0.045268 0.082946 0.000000
0.045679 0.083214 0.000000
0.046089 0.083482 0.000000
0.040000 0.002000 0.000000
0.040001 0.158005 0.000000
0.002000 0.116000 0.000000
0.078000 0.048000 0.000000
0.002000 0.106000 0.000000
0.078000 0.058000 0.000000
0.001986 0.042173 0.000000
0.078015 0.117826 0.000000
0.001985 0.094174 0.000000
0.001985 0.084174 0.000000
0.001914 0.056074 0.000000
0.002000 0.072000 0.000000
0.078015 0.065826 0.000000
0.078016 0.075826 0.000000
0.078000 0.088000 0.000000
0.078000 0.104000 0.000000
0.078003 0.029997 0.000000
0.001998 0.130002 0.000000
0.002000 0.032000 0.000000
0.078013 0.128003 0.000000
0.056000 0.158000 0.000000
0.026000 0.002000 0.000000
0.060000 0.002000 0.000000
0.020000 0.158000 0.000000
0.002000 0.020000 0.000000
0.078000 0.142000 0.000000
0.002000 0.146000 0.000000
0.078000 0.020000 0.000000
0.016000 0.002000 0.000000
0.068000 0.002000 0.000000
0.066000 0.158000 0.000000
0.002000 0.014000 0.000000
0.008000 0.158000 0.000000
0.010000 0.002000 0.000000
0.078000 0.148000 0.000000
0.078000 0.008000 0.000000
0.078005 0.037995 0.000000
0.051991 0.001990 0.000000
0.028000 0.158000 0.000000
0.002000 0.008000 0.000000
0.078000 0.094000 0.000000
0.078000 0.110000 0.000000
0.001983 0.066159 0.000000
0.002000 0.050000 0.000000
0.046000 0.158000 0.000000
0.078000 0.134000 0.000000
0.002000 0.140000 0.000000
0.006000 0.002000 0.000000
0.002000 0.154000 0.000000
0.074000 0.002000 0.000000
0.078000 0.152000 0.000000
0.074000 0.158000 0.000000
0.078000 0.080000 0.000000
0.078000 0.070000 0.000000
0.078000 0.122000 0.000000
0.002000 0.090000 0.000000
0.002000 0.080000 0.000000
0.002000 0.038000 0.000000
0.002000 0.102000 0.000000
0.002000 0.112000 0.000000
0.036000 0.002000 0.000000
0.078000 0.042000 0.000000
0.032000 0.002000 0.000000
0.047987 0.001989 0.000000
0.032008 0.158010 0.000000
0.002000 0.028000 0.000000
0.002000 0.126000 0.000000
0.060000 0.158000 0.000000
0.022000 0.002000 0.000000
0.002000 0.136000 0.000000
0.078000 0.024000 0.000000
0.012000 0.158000 0.000000
0.078000 0.158000 0.000000
0.001947 0.003947 0.000000
0.002000 0.158000 0.000000
0.078000 0.012000 0.000000
0.078000 0.096000 0.000000
0.078000 0.098000 0.000000
0.078000 0.082000 0.000000
0.078111 0.099889 0.000000
0.078035 0.083965 0.000000
0.078000 0.090000 0.000000
0.078000 0.106000 0.000000
0.078000 0.072000 0.000000
0.078000 0.112000 0.000000
0.078043 0.061976 0.000000
0.078000 0.114000 0.000000
0.002000 0.064000 0.000000
0.002000 0.062000 0.000000
0.002000 0.088000 0.000000
0.002000 0.078000 0.000000
0.002000 0.060000 0.000000
0.001966 0.076034 0.000000
0.002000 0.070000 0.000000
0.002000 0.054000 0.000000
0.001957 0.098024 0.000000
0.002000 0.048000 0.000000
0.002000 0.046000 0.000000
[...]
POINT_DATA 5510
SCALARS UX float 1
LOOKUP_TABLE default
0.182665
0.282967
0.000007
-0.098477
0.084334
0.093142
0.185183
0.187701
0.190218
0.192735
0.195252
0.197767
0.200281
0.202791
0.205299
0.207803
0.210304
0.212804
0.215305
0.217809
0.220318
0.222834
0.225354
0.227879
0.230408
0.232941
0.235475
0.238010
0.240542
0.243071
0.245595
0.248114
0.250628
0.253137
0.255640
0.258136
0.260624
0.263109
0.265592
0.268073
0.270553
0.273033
0.275513
0.277995
0.280479
0.281342
0.279725
0.278114
0.276498
0.274896
0.273287
0.271685
0.270081
0.268479
0.266877
0.265276
0.263683
0.262090
0.260493
0.258891
0.257282
0.255662
0.254031
0.252385
0.250724
0.249047
0.247375
0.245690
0.243998
0.242307
0.240601
0.238896
0.237193
0.235494
0.233798
0.232103
0.230408
0.228713
0.227016
0.225316
0.223613
0.221903
0.220189
0.218467
0.216731
0.214993
0.213227
0.211461
0.209689
0.207901
0.205686
0.203007
0.199701
0.192653
0.174809
0.155918
0.133590
0.110205
0.089159
0.071995
0.059156
0.047289
0.042488
0.038452
0.035662
0.033683
0.031735
0.030095
0.028440
0.026782
0.025110
0.023441
0.021774
0.020110
0.018448
0.016790
0.015131
0.013484
0.011838
0.010187
0.008541
0.006837
0.004992
0.002768
-0.000057
-0.002511
-0.005104
-0.007699
-0.010249
-0.012797
-0.015355
-0.017901
-0.020433
-0.022957
-0.025471
-0.027980
-0.030489
-0.032998
-0.035509
-0.038033
-0.040565
-0.043102
-0.045648
-0.048201
-0.050755
-0.053311
-0.055865
-0.058415
-0.060961
-0.063501
-0.066034
-0.068560
-0.071079
-0.073592
-0.076096
-0.078593
-0.081085
-0.083572
-0.086059
-0.088543
-0.091025
-0.093507
-0.095991
-0.096852
-0.095234
-0.093611
-0.091995
-0.090372
-0.088750
-0.087138
-0.085519
-0.083897
-0.082275
-0.080657
-0.079042
-0.077428
-0.075813
-0.074195
-0.072569
-0.070934
-0.069306
-0.067671
-0.066036
-0.064396
-0.062756
-0.061110
-0.059460
-0.057812
-0.056152
-0.054488
-0.052821
-0.051151
-0.049478
-0.047801
-0.046119
-0.044435
-0.042748
-0.041055
-0.039361
-0.037659
-0.035953
-0.034240
-0.032520
-0.030799
-0.029069
-0.027377
-0.025720
-0.024135
-0.022411
-0.020521
-0.018099
-0.014295
-0.000821
0.015037
0.032459
0.052365
0.075900
0.098125
0.119229
0.128987
0.136378
0.142605
0.147105
0.150087
0.152735
0.154365
0.156012
0.157661
0.159315
0.160972
0.162633
0.164304
0.165975
0.167646
0.169317
0.170987
0.172658
0.174328
0.175996
0.177665
0.179332
0.180999
0.084489
0.085153
0.085605
0.086396
0.086696
0.086818
0.087021
0.087345
0.087437
0.087736
0.087952
0.088064
0.088329
0.088607
0.088970
0.089304
0.089692
0.090016
0.090341
0.090678
0.090961
0.091156
0.091413
0.091650
0.091978
0.092340
0.092653
0.231269
-0.046518
-0.060265
0.241530
-0.052030
0.233015
0.146660
0.035341
-0.042125
-0.033634
0.044692
-0.023214
0.226391
0.217852
0.207090
0.116716
0.256289
-0.071596
0.158527
0.025927
-0.026319
0.213653
0.256483
-0.071923
0.168497
0.014255
-0.084546
0.264276
0.201131
0.266434
-0.013687
0.173508
-0.086901
0.193587
0.009271
0.273974
0.249855
0.246443
-0.061814
0.178516
0.199383
0.061726
-0.017635
0.114023
-0.038895
0.020912
-0.079661
0.188553
-0.091093
0.273877
0.005916
-0.003602
0.214233
0.222823
0.030957
-0.038573
-0.030038
0.153372
-0.048690
-0.056998
0.226214
0.246553
0.221174
0.241390
-0.056723
0.161831
-0.068374
-0.021286
0.208650
-0.076418
0.261063
-0.081927
0.000564
0.181829
-0.094354
0.270733
0.194069
0.179866
0.212482
0.162651
0.210775
0.204959
0.094893
0.221113
0.049858
0.229690
0.042663
-0.014140
-0.003922
-0.036873
-0.028313
0.010550
-0.026664
-0.021505
0.069044
-0.045405
0.127504
0.135382
0.236427
0.244919
0.239834
-0.055347
-0.063515
0.029249
0.155215
0.236334
-0.051620
-0.043968
0.253097
-0.036370
-0.033852
-0.066754
0.218664
0.251475
-0.066881
0.163491
0.024269
0.019246
0.165156
0.017581
-0.074805
-0.031340
0.259471
-0.082921
-0.018760
0.206146
0.261465
-0.076938
0.012594
0.267499
-0.087825
0.170167
0.175178
-0.011139
0.198618
-0.008616
0.004208
-0.091869
0.185959
0.183337
0.277215
0.271397
0.278843
-0.054550
0.239077
-0.036123
-0.027640
-0.020692
0.021469
0.125300
0.211814
0.204367
0.147305
0.220363
0.043735
-0.044829
-0.064242
0.023418
0.155894
0.219512
-0.029704
0.164339
0.015064
0.206988
-0.073800
0.258457
-0.019618
0.172687
0.199466
-0.081981
-0.009573
0.100201
0.242530
0.176029
0.003301
0.272237
0.208414
0.168813
0.194790
-0.024348
0.004963
-0.014181
0.140964
0.202767
0.209136
0.142861
0.216259
0.219495
0.078062
0.224817
0.038616
-0.019919
-0.035264
-0.025100
-0.040556
0.026906
-0.032047
0.091235
0.141548
0.228008
-0.043733
0.231393
-0.047092
0.234796
0.033295
-0.050433
0.149982
0.238205
-0.053761
-0.058832
0.243264
-0.061939
0.248235
-0.065165
0.233793
-0.049059
0.228733
-0.041424
0.238858
-0.054165
0.027625
0.156839
0.251485
0.223689
0.243917
-0.059266
-0.034705
0.248959
-0.064348
-0.069987
0.160163
0.022594
0.254692
0.166006
0.216156
0.018391
-0.028830
0.253980
-0.069404
0.166821
0.015922
-0.073198
0.257877
-0.078036
-0.023807
0.211152
-0.081291
0.262665
-0.016226
0.203640
-0.074435
0.258979
-0.079436
0.263952
0.010933
0.171838
-0.084414
0.265884
-0.086187
0.007606
0.269112
0.176847
0.196103
-0.089458
-0.006101
0.272350
0.002424
0.191070
0.180184
-0.089386
0.184370
0.268916
-0.001308
-0.090226
-0.092722
0.275592
0.274721
0.276358
-0.045056
0.229351
0.031229
0.237199
0.136139
0.166831
-0.057636
0.247324
-0.067730
0.257318
0.266555
-0.077771
0.008391
0.248990
0.227172
-0.082762
-0.086936
0.198959
0.035018
-0.016814
0.225882
0.222173
-0.041619
-0.037900
0.216990
0.213605
-0.032774
-0.029385
0.232664
-0.048304
0.030462
0.159299
-0.052492
0.162669
0.252086
0.020083
-0.067414
0.214504
0.209491
0.201976
0.262302
-0.078692
-0.075421
0.194439
0.179367
-0.083633
0.263306
0.260062
-0.004661
0.001541
0.269823
0.270594
0.201959
0.206251
-0.018859
0.122480
-0.022320
0.039154
0.040307
0.108957
0.240795
0.218677
-0.034444
0.146780
0.153739
-0.056239
-0.059430
0.063440
0.079686
0.235730
0.237369
-0.051294
-0.052884
-0.047482
0.184121
0.210157
-0.062629
-0.006230
-0.026024
0.053209
0.245747
0.244143
0.133666
0.157605
0.025123
0.242254
0.222094
-0.037202
0.232228
-0.039845
0.021765
-0.065847
-0.062687
-0.027205
0.217004
0.255259
0.256854
-0.070581
-0.072189
0.013393
0.252326
0.167661
0.171020
-0.032204
0.016736
0.204488
-0.042339
-0.022136
-0.072755
-0.014576
-0.017103
-0.012057
-0.080327
0.196955
0.267272
0.174357
0.177698
0.189405
0.269755
-0.007110
0.186887
0.273087
0.005026
-0.000200
-0.088582
0.182703
-0.087738
0.156360
0.241772
-0.049471
0.034674
-0.026998
-0.035603
-0.016587
-0.040498
0.219863
0.211261
0.199095
-0.060253
0.022703
-0.028051
0.220379
0.252678
0.014233
-0.067992
0.207826
-0.015467
0.173538
0.200312
-0.076102
0.180218
0.121279
0.049408
0.056532
-0.005654
0.204498
-0.020711
0.150343
0.238604
0.175063
0.000996
0.165143
0.159987
-0.063299
0.215355
0.195288
0.010059
-0.079423
0.002444
0.107340
0.195329
0.045193
-0.013940
0.215365
0.223967
-0.031158
-0.039708
0.227623
-0.043346
-0.057863
0.207731
0.154435
0.015521
0.231072
-0.046747
0.150493
-0.023646
0.032217
-0.060922
0.065831
0.093776
-0.038076
-0.045704
-0.054990
0.216634
-0.032402
0.247386
-0.049710
0.139556
0.234103
0.244740
0.224576
0.229641
0.239676
0.028583
0.026864
0.250555
0.160976
0.235201
-0.024653
0.253686
-0.060162
-0.068995
0.012539
0.019297
-0.033059
0.211991
0.169329
-0.050725
-0.053873
0.249827
-0.065211
0.254276
0.257476
0.168484
-0.069597
-0.072823
-0.020472
-0.012968
0.017576
0.254826
-0.070248
-0.077055
0.202828
-0.049971
0.261682
0.176879
0.011729
-0.075265
0.259813
-0.010507
0.264788
0.264924
0.268108
0.191922
0.006713
-0.085284
0.268187
0.185222
-0.080272
0.268950
0.271454
0.181035
-0.001010
-0.002392
-0.086084
-0.085251
0.234699
0.069530
-0.047091
-0.010739
0.042609
0.192006
-0.036667
-0.065438
0.016821
0.235563
0.250128
0.167588
-0.055973
0.245666
0.258150
-0.013867
-0.066052
0.201148
0.262370
0.228259
-0.073588
0.266455
-0.078596
0.141642
-0.043947
0.246461
0.011721
0.071651
0.212439
-0.028580
-0.040556
-0.036754
0.224816
0.221013
0.225533
-0.066433
-0.023008
0.171837
0.210325
0.259101
0.009210
0.181886
-0.083591
0.106702
0.215232
-0.031028
0.154286
0.050263
-0.019266
0.202328
0.038387
-0.045992
0.230321
0.233909
0.021497
0.240161
-0.048093
-0.057079
-0.055304
-0.058734
0.209312
-0.025261
0.205719
0.024381
0.028174
-0.021788
0.222855
-0.050841
-0.048168
0.186544
-0.007669
0.218160
-0.033922
0.086990
0.158252
0.251082
0.243355
0.132094
0.240595
0.032285
-0.064853
-0.061765
0.230515
-0.025559
-0.052233
0.170146
0.212847
0.021003
0.217839
-0.058509
0.163472
0.161693
0.236738
0.145484
0.255871
0.248173
-0.030551
0.247996
-0.035558
-0.071202
-0.074457
0.015918
0.010881
0.170950
-0.068570
0.253162
0.175203
0.205325
0.263135
-0.017968
0.197798
-0.011422
0.178544
-0.061021
0.007527
0.004158
0.265623
0.265660
0.267304
0.190258
0.192776
0.183555
0.187740
-0.077763
-0.008075
-0.081094
-0.084423
-0.043200
-0.003343
0.000706
0.239378
0.226504
-0.028800
-0.021991
0.144483
0.038221
0.213016
0.206164
0.223732
-0.054360
0.244034
-0.064384
-0.023919
-0.012316
-0.071896
0.177708
-0.054998
0.006704
0.158836
0.213708
0.231541
0.217926
-0.033667
0.181065
0.196133
0.191107
-0.076888
-0.081920
-0.044073
0.181984
0.090729
0.201885
0.195135
-0.018455
-0.013623
-0.003921
0.236332
0.059702
0.129683
0.248604
0.013427
0.209110
0.208666
0.253311
0.203651
0.184406
0.001603
-0.004229
-0.039116
-0.057828
-0.060819
-0.063891
0.159081
0.122982
-0.053335
0.041120
0.032248
0.007990
0.222643
-0.038390
-0.045287
-0.042208
-0.042155
0.226434
0.232595
0.030219
0.026287
0.214497
-0.030260
0.063705
-0.034200
-0.031406
0.160641
-0.046749
0.018497
0.022032
0.164185
-0.053426
-0.048477
0.153180
0.244926
0.243145
-0.021329
0.238083
0.015134
0.232981
0.172614
0.232898
0.251725
0.218711
-0.051500
-0.068635
-0.067035
0.165878
0.260733
-0.063532
0.250668
0.169270
0.010057
0.198640
0.256540
-0.018826
-0.016334
-0.028911
0.249519
-0.056855
-0.071075
0.260640
-0.073550
0.255653
0.174355
0.005853
0.263966
0.263145
0.264014
-0.009002
-0.076095
-0.001825
0.264800
0.188591
0.186073
-0.081097
-0.082760
0.228008
-0.024817
0.091237
0.213481
-0.029283
0.161294
-0.043483
0.229282
-0.010384
-0.027110
0.184781
0.211141
-0.035062
0.016115
0.170020
-0.061387
-0.052726
0.246049
0.009265
0.201980
0.251498
-0.069362
-0.042693
0.175100
-0.071907
0.150268
0.027501
-0.036889
-0.040493
0.221140
0.224716
0.227781
-0.029778
-0.022197
0.023846
0.228884
0.242420
0.233928
-0.064493
0.249189
-0.061895
0.196970
0.003314
0.256483
0.261474
-0.080245
0.022856
-0.027208
0.211332
0.030258
0.199485
0.204347
-0.016099
0.157000
-0.020208
-0.034807
0.219049
0.036018
0.237782
0.229522
0.073794
0.082942
0.043321
0.138066
0.055603
-0.005792
0.162324
0.216120
0.020355
-0.031880
-0.044928
-0.043562
0.226212
0.245505
-0.062366
0.247035
0.241531
0.109468
0.149805
0.012669
0.240898
0.207509
0.236485
0.166698
-0.049945
-0.059268
-0.059356
0.211169
0.008393
0.258190
0.261496
-0.017205
0.206145
0.171726
-0.070261
-0.051845
-0.049265
0.221191
0.179380
0.234383
-0.014747
0.005009
0.254921
-0.026408
-0.075214
-0.009903
0.176031
0.193619
-0.074415
-0.079421
0.189438
0.246518
-0.078566
-0.066886
0.260642
0.262305
0.182735
-0.002644
-0.000121
0.186923
-0.006595
0.216203
-0.041602
-0.056347
-0.023254
-0.026667
0.120201
0.012057
0.210342
0.171498
-0.038737
0.223009
0.102727
0.203545
0.236922
-0.041856
0.221201
0.144198
-0.006226
0.072387
0.227043
0.172451
0.214568
0.239917
-0.052855
-0.015623
0.254040
-0.062706
0.180212
-0.036908
-0.031738
0.215969
0.004205
0.258986
-0.070230
-0.072689
-0.022706
0.207145
0.031719
0.233946
0.203927
0.199326
0.192719
0.224419
0.227793
0.165032
-0.040233
-0.019966
-0.055443
-0.024678
-0.067718
0.209515
0.204479
-0.010779
0.191948
-0.005088
0.222083
-0.025644
0.209872
-0.015948
0.037030
0.174228
0.079233
0.050844
0.159207
0.155443
-0.040410
0.036171
-0.041924
0.095889
0.072571
0.025658
0.163023
0.002623
0.101872
0.213780
-0.032277
0.017887
-0.029647
0.028006
-0.037523
0.021542
-0.047757
-0.045152
-0.058362
0.243011
0.129027
-0.027295
0.014413
0.238989
0.173385
0.238412
-0.046272
0.231352
-0.062913
0.230585
-0.066094
0.247608
-0.057734
-0.055207
-0.049189
0.168237
-0.019676
0.010986
0.243933
0.249007
-0.028210
0.212444
0.181897
0.187765
-0.059856
0.199469
0.002484
-0.000945
-0.069389
-0.071021
0.194465
0.258975
0.259841
0.007598
0.153524
0.250790
-0.007501
0.253993
0.258160
-0.077740
0.183578
0.176823
0.259817
0.185253
-0.076918
0.217085
-0.076048
0.242384
0.244507
-0.050258
0.125596
0.165216
0.094597
-0.035258
0.219524
0.028270
0.201818
-0.012793
0.161928
0.234437
-0.033223
0.217521
-0.023565
0.187206
0.207973
0.115007
-0.038398
0.015501
-0.055971
-0.028347
-0.048650
0.215454
0.242010
-0.061990
0.238280
0.202810
0.008532
0.177542
-0.066860
0.213322
-0.029094
0.182715
0.001668
0.246678
0.195298
0.249835
0.256494
0.241519
-0.053612
-0.067720
0.257334
0.190272
0.186092
-0.073557
0.150277
-0.009703
0.216887
-0.032654
0.196926
0.158196
0.199468
-0.017852
-0.050681
-0.038442
0.226095
0.235381
-0.038964
0.091559
0.063291
-0.040370
0.135346
0.205446
0.222892
0.019722
0.025312
0.023189
0.232217
-0.031173
-0.056944
-0.041090
0.229480
0.010973
0.000794
0.239898
0.011950
-0.043707
-0.021219
-0.053985
-0.025556
0.234847
-0.042905
0.177304
0.237388
0.209205
-0.024961
0.227099
-0.024417
0.170525
0.166679
-0.058886
0.078923
0.005925
-0.063598
-0.020544
0.243557
-0.047690
0.212046
0.252404
0.232031
0.206974
-0.065205
0.255683
-0.018071
0.257307
0.200307
0.178511
-0.068515
-0.013188
-0.003461
-0.072730
0.005149
0.252335
0.174134
0.000784
0.208344
0.149771
-0.060226
-0.005942
-0.008370
-0.075240
-0.074367
0.244856
0.219568
0.163667
0.224555
0.211815
-0.027600
0.109655
0.038510
-0.033472
0.202105
0.023844
0.053857
0.217994
-0.033750
0.195053
0.157911
0.026577
-0.014233
0.034757
-0.017558
0.164388
-0.039533
-0.027135
-0.017905
0.211358
-0.006666
0.086029
0.180007
-0.037117
0.173075
-0.026478
0.239510
-0.059552
0.201140
-0.016494
0.024994
-0.064380
-0.061034
-0.066054
0.225394
0.016797
0.248193
0.133444
-0.034741
0.216279
-0.032021
0.231697
0.149133
0.237531
0.204928
0.210384
-0.009207
0.180991
0.205308
0.109930
0.249905
0.188595
-0.004268
-0.071867
-0.071061
0.156612
0.240481
-0.015354
0.022676
-0.038042
0.031280
0.232969
0.214536
-0.030322
-0.037817
0.220619
0.222689
0.168390
0.052953
0.202193
-0.029504
-0.020646
0.225910
0.017237
-0.053152
-0.050752
-0.048342
-0.022161
0.228499
0.235931
-0.039749
0.013749
0.206370
0.175797
0.235789
0.096756
0.003439
0.210500
-0.026253
-0.001037
0.230781
-0.057426
-0.044093
0.228317
0.179274
-0.051103
0.048456
0.010260
0.219049
0.212919
0.248281
-0.046890
0.254844
-0.000029
-0.023032
0.247339
-0.060438
-0.014060
0.192777
-0.070182
0.184394
0.245100
-0.001755
0.006835
0.255675
-0.065207
0.174863
0.220461
0.217938
0.197798
0.064646
0.251547
-0.056087
0.254815
0.240732
0.163200
-0.054515
0.044695
-0.035930
-0.046195
0.200507
0.196492
0.165539
0.132277
0.020896
-0.012008
0.191549
0.160373
0.033355
0.197781
-0.052258
0.155826
-0.036405
0.230435
-0.036128
0.217080
-0.021607
-0.002414
0.200121
0.205977
0.086176
-0.035849
0.014893
-0.050953
0.226240
0.216304
0.175513
0.236636
-0.049540
0.244201
0.007811
-0.014932
0.179967
0.002677
-0.032782
-0.046032
-0.027427
0.046269
0.139072
0.168900
0.233805
0.238005
-0.034685
-0.053577
0.028894
0.034080
0.203642
0.197083
0.183456
0.196130
0.247424
0.211245
0.245698
-0.062744
0.191093
0.253191
0.186765
0.160492
0.212025
-0.027798
0.010084
0.224371
0.142900
0.171142
0.019289
0.207318
0.209914
-0.023110
-0.025699
-0.018917
0.098744
-0.051918
-0.020079
-0.032065
0.011278
0.203128
0.214413
-0.030140
-0.040745
-0.056506
0.000925
-0.002559
0.056361
0.068548
0.233227
-0.058000
0.168776
0.032532
0.026932
0.243208
-0.061149
0.207813
-0.045460
-0.044605
-0.036461
0.253194
-0.069382
0.120164
-0.063527
-0.006745
0.250670
-0.018938
0.229686
-0.023927
0.252373
-0.068540
0.198632
-0.058556
0.241063
0.254021
0.186911
-0.011634
0.006119
0.176532
-0.066032
-0.051985
0.166051
0.153478
0.203473
0.222932
0.239006
-0.042177
0.122434
-0.009248
-0.013131
0.023774
0.194117
0.020819
0.162755
0.028294
-0.050066
-0.016220
-0.036194
0.221290
0.162492
-0.018658
0.096093
0.182031
0.127002
0.204372
0.047952
0.235536
-0.006305
-0.047932
-0.054119
-0.058712
0.005406
0.201993
0.141498
0.000174
0.244064
0.222207
0.024139
-0.061853
-0.010044
-0.015962
-0.029569
0.116908
0.016764
0.194110
-0.061918
-0.017372
-0.005050
-0.066901
0.189404
0.250723
0.196970
0.236529
-0.040574
0.166719
0.153531
-0.033895
0.229313
0.219557
0.018377
0.228358
0.173747
0.201613
-0.048494
-0.020182
0.070503
-0.034386
-0.034861
0.232361
-0.037512
0.013156
0.156968
0.208648
-0.024430
0.178222
0.057875
-0.052208
0.198375
0.039499
0.191234
0.231657
0.172065
0.103245
0.204491
-0.041941
0.003904
-0.047020
0.009563
0.181722
0.249059
0.245821
0.213771
-0.025247
-0.055013
-0.031139
0.215590
0.209483
0.208681
0.249061
0.193613
-0.021407
0.185193
-0.018728
-0.067705
-0.000816
0.226053
0.206129
0.004418
0.029741
-0.044641
-0.012486
0.249908
0.237029
0.235101
-0.056923
-0.054441
0.218825
0.177268
0.157206
0.159579
0.251547
0.242620
0.239083
-0.055603
0.234193
0.167731
-0.011040
-0.038211
0.223798
-0.024858
0.029991
-0.047758
-0.049683
0.022668
0.021602
0.025668
0.218992
-0.013030
0.213086
-0.028828
0.020974
-0.032925
0.215114
0.002108
-0.017231
0.198099
0.174612
-0.034802
0.217209
0.233075
0.176147
0.227593
0.234998
-0.051794
0.241756
-0.015807
0.229421
-0.030815
-0.048621
-0.043768
0.182493
0.030364
0.143364
-0.010895
0.194419
0.088402
0.055814
0.001973
0.225092
-0.045507
0.191888
0.247453
0.244990
0.248284
0.212120
-0.003334
-0.065246
-0.052836
0.018518
0.012521
0.026073
0.211471
-0.027194
0.011219
0.201352
0.202930
0.127032
-0.017391
0.220872
0.231212
0.234053
0.148126
0.159309
0.171303
0.188065
0.014965
0.224706
-0.034432
0.109720
0.010647
0.007122
0.003718
0.075146
0.223626
-0.051295
0.205635
0.208141
-0.023916
-0.052697
-0.021447
-0.028254
0.212579
-0.042987
-0.038689
-0.007565
0.043829
0.194462
-0.064319
0.185966
-0.057141
-0.043284
-0.001536
-0.063548
0.187717
0.241554
0.209567
0.204491
0.110083
0.040697
-0.022329
-0.019809
-0.050372
0.246550
-0.046245
0.168376
0.199465
0.221292
-0.060294
0.178923
0.238581
0.177928
0.230104
-0.059369
0.227326
-0.034150
0.165140
-0.014174
-0.036721
-0.026068
-0.017215
-0.011218
-0.008653
0.024328
0.161356
0.156790
0.217180
0.210931
-0.026673
-0.031691
0.215235
-0.032157
-0.025363
0.091642
0.200244
0.100844
0.012240
-0.032889
0.178563
0.223445
0.210439
0.202850
-0.046386
0.004725
-0.015748
0.042257
-0.056299
0.169038
0.220135
0.223720
0.022480
0.126034
0.182412
-0.032308
0.136802
0.202880
-0.008293
-0.000541
-0.004048
-0.057728
-0.059502
0.195287
0.188489
0.245836
0.239991
0.231621
0.227607
-0.062808
0.164692
0.219670
-0.002928
-0.014290
-0.023416
0.023817
0.207678
0.209660
0.137715
0.152957
0.009145
0.199912
-0.015746
0.227360
0.069590
0.069241
-0.031993
0.174145
0.196253
0.038609
0.034805
-0.008458
0.206950
-0.022732
0.009986
-0.018534
0.180620
-0.047548
-0.012531
0.221641
-0.048936
-0.041560
-0.039060
0.217629
0.008894
-0.039838
-0.042417
0.190731
-0.053224
0.184166
-0.049936
0.246646
0.164364
0.237455
0.240187
0.214653
-0.029375
0.232634
0.170041
-0.020716
-0.023319
0.213702
-0.048797
0.207026
-0.013339
-0.035600
0.200333
0.222145
0.192720
0.226875
-0.055278
0.234599
-0.018268
0.179670
-0.005818
0.003018
0.190195
0.244995
0.232558
0.016255
0.243355
-0.050355
0.119799
0.226058
0.019364
-0.028162
0.027512
-0.045017
0.159415
0.022520
-0.032953
0.021855
0.000997
0.043721
0.168409
0.009707
-0.046656
0.222172
0.229192
-0.044822
0.233385
-0.021662
0.002329
-0.041536
-0.033089
0.201197
-0.014221
0.239297
0.156549
0.176390
0.218159
0.195949
0.186853
0.086809
0.015945
0.215508
-0.028950
0.215719
0.031108
0.183145
-0.044327
-0.053667
-0.037640
0.186715
0.243383
0.230235
-0.049430
0.205359
0.006461
0.198326
-0.012712
-0.009807
0.225942
0.192640
-0.014199
-0.030694
0.147819
0.133737
0.018242
0.053189
0.082943
-0.030470
0.118075
0.201558
0.013539
0.036083
-0.015732
-0.046346
-0.019849
-0.021999
0.204058
0.206253
0.181309
-0.009167
-0.006565
0.001333
-0.035211
0.193520