# vtk DataFile Version 2.0
Test
ASCII
DATASET POLYDATA
POINTS 5510 float
0.000000 0.000000 0.000000
0.080000 0.000000 0.000000
0.080000 0.160000 0.000000
0.000000 0.160000 0.000000
0.035000 0.076250 0.000000
0.046500 0.083750 0.000000
0.002000 0.000000 0.000000
0.004000 0.000000 0.000000
0.006000 0.000000 0.000000
0.008000 0.000000 0.000000
0.010000 0.000000 0.000000
0.012000 0.000000 0.000000
0.014000 0.000000 0.000000
0.016000 0.000000 0.000000
0.018000 0.000000 0.000000
0.020000 0.000000 0.000000
0.022000 0.000000 0.000000
0.024000 0.000000 0.000000
0.026000 0.000000 0.000000
0.028000 0.000000 0.000000
0.030000 0.000000 0.000000
0.032000 0.000000 0.000000
0.034000 0.000000 0.000000
0.036000 0.000000 0.000000
0.038000 0.000000 0.000000
0.040000 0.000000 0.000000
0.042000 0.000000 0.000000
0.044000 0.000000 0.000000
0.046000 0.000000 0.000000
0.048000 0.000000 0.000000
0.050000 0.000000 0.000000
0.052000 0.000000 0.000000
0.054000 0.000000 0.000000
0.056000 0.000000 0.000000
0.058000 0.000000 0.000000
0.060000 0.000000 0.000000
0.062000 0.000000 0.000000
0.064000 0.000000 0.000000
0.066000 0.000000 0.000000
0.068000 0.000000 0.000000
0.070000 0.000000 0.000000
0.072000 0.000000 0.000000
0.074000 0.000000 0.000000
0.076000 0.000000 0.000000
0.078000 0.000000 0.000000
0.080000 0.002000 0.000000
0.080000 0.004000 0.000000
0.080000 0.006000 0.000000
0.080000 0.008000 0.000000
0.080000 0.010000 0.000000
0.080000 0.012000 0.000000
0.080000 0.014000 0.000000
0.080000 0.016000 0.000000
0.080000 0.018000 0.000000
0.080000 0.020000 0.000000
0.080000 0.022000 0.000000
0.080000 0.024000 0.000000
0.080000 0.026000 0.000000
0.080000 0.028000 0.000000
0.080000 0.030000 0.000000
0.080000 0.032000 0.000000
0.080000 0.034000 0.000000
0.080000 0.036000 0.000000
0.080000 0.038000 0.000000
0.080000 0.040000 0.000000
0.080000 0.042000 0.000000
0.080000 0.044000 0.000000
0.080000 0.046000 0.000000
0.080000 0.048000 0.000000
0.080000 0.050000 0.000000
0.080000 0.052000 0.000000
0.080000 0.054000 0.000000
0.080000 0.056000 0.000000
0.080000 0.058000 0.000000
0.080000 0.060000 0.000000
0.080000 0.062000 0.000000
0.080000 0.064000 0.000000
0.080000 0.066000 0.000000
0.080000 0.068000 0.000000
0.080000 0.070000 0.000000
0.080000 0.072000 0.000000
0.080000 0.074000 0.000000
0.080000 0.076000 0.000000
0.080000 0.078000 0.000000
0.080000 0.080000 0.000000
0.080000 0.082000 0.000000
0.080000 0.084000 0.000000
0.080000 0.086000 0.000000
0.080000 0.088000 0.000000
0.080000 0.090000 0.000000
0.080000 0.092000 0.000000
0.080000 0.094000 0.000000
0.080000 0.096000 0.000000
0.080000 0.098000 0.000000
0.080000 0.100000 0.000000
0.080000 0.102000 0.000000
0.080000 0.104000 0.000000
0.080000 0.106000 0.000000
0.080000 0.108000 0.000000
0.080000 0.110000 0.000000
0.080000 0.112000 0.000000
0.080000 0.114000 0.000000
0.080000 0.116000 0.000000
0.080000 0.118000 0.000000
0.080000 0.120000 0.000000
0.080000 0.122000 0.000000
0.080000 0.124000 0.000000
0.080000 0.126000 0.000000
0.080000 0.128000 0.000000
0.080000 0.130000 0.000000
0.080000 0.132000 0.000000
0.080000 0.134000 0.000000
0.080000 0.136000 0.000000
0.080000 0.138000 0.000000
0.080000 0.140000 0.000000
0.080000 0.142000 0.000000
0.080000 0.144000 0.000000
0.080000 0.146000 0.000000
0.080000 0.148000 0.000000
0.080000 0.150000 0.000000
0.080000 0.152000 0.000000
0.080000 0.154000 0.000000
0.080000 0.156000 0.000000
0.080000 0.158000 0.000000
0.078000 0.160000 0.000000
0.076000 0.160000 0.000000
0.074000 0.160000 0.000000
0.072000 0.160000 0.000000
0.070000 0.160000 0.000000
0.068000 0.160000 0.000000
0.066000 0.160000 0.000000
0.064000 0.160000 0.000000
0.062000 0.160000 0.000000
0.060000 0.160000 0.000000
0.058000 0.160000 0.000000
0.056000 0.160000 0.000000
0.054000 0.160000 0.000000
0.052000 0.160000 0.000000
0.050000 0.160000 0.000000
0.048000 0.160000 0.000000
0.046000 0.160000 0.000000
0.044000 0.160000 0.000000
0.042000 0.160000 0.000000
0.040000 0.160000 0.000000
0.038000 0.160000 0.000000
0.036000 0.160000 0.000000
0.034000 0.160000 0.000000
0.032000 0.160000 0.000000
0.030000 0.160000 0.000000
0.028000 0.160000 0.000000
0.026000 0.160000 0.000000
0.024000 0.160000 0.000000
0.022000 0.160000 0.000000
0.020000 0.160000 0.000000
0.018000 0.160000 0.000000
0.016000 0.160000 0.000000
0.014000 0.160000 0.000000
0.012000 0.160000 0.000000
0.010000 0.160000 0.000000
0.008000 0.160000 0.000000
0.006000 0.160000 0.000000
0.004000 0.160000 0.000000
0.002000 0.160000 0.000000
0.000000 0.158000 0.000000
0.000000 0.156000 0.000000
0.000000 0.154000 0.000000
0.000000 0.152000 0.000000
0.000000 0.150000 0.000000
0.000000 0.148000 0.000000
0.000000 0.146000 0.000000
0.000000 0.144000 0.000000
0.000000 0.142000 0.000000
0.000000 0.140000 0.000000
0.000000 0.138000 0.000000
0.000000 0.136000 0.000000
0.000000 0.134000 0.000000
0.000000 0.132000 0.000000
0.000000 0.130000 0.000000
0.000000 0.128000 0.000000
0.000000 0.126000 0.000000
0.000000 0.124000 0.000000
0.000000 0.122000 0.000000
0.000000 0.120000 0.000000
0.000000 0.118000 0.000000
0.000000 0.116000 0.000000
0.000000 0.114000 0.000000
0.000000 0.112000 0.000000
0.000000 0.110000 0.000000
0.000000 0.108000 0.000000
0.000000 0.106000 0.000000
0.000000 0.104000 0.000000
0.000000 0.102000 0.000000
0.000000 0.100000 0.000000
0.000000 0.098000 0.000000
0.000000 0.096000 0.000000
0.000000 0.094000 0.000000
0.000000 0.092000 0.000000
0.000000 0.090000 0.000000
0.000000 0.088000 0.000000
0.000000 0.086000 0.000000
0.000000 0.084000 0.000000
0.000000 0.082000 0.000000
0.000000 0.080000 0.000000
0.000000 0.078000 0.000000
0.000000 0.076000 0.000000
0.000000 0.074000 0.000000
0.000000 0.072000 0.000000
0.000000 0.070000 0.000000
0.000000 0.068000 0.000000
0.000000 0.066000 0.000000
0.000000 0.064000 0.000000
0.000000 0.062000 0.000000
0.000000 0.060000 0.000000
0.000000 0.058000 0.000000
0.000000 0.056000 0.000000
0.000000 0.054000 0.000000
0.000000 0.052000 0.000000
0.000000 0.050000 0.000000
0.000000 0.048000 0.000000
0.000000 0.046000 0.000000
0.000000 0.044000 0.000000
0.000000 0.042000 0.000000
0.000000 0.040000 0.000000
0.000000 0.038000 0.000000
0.000000 0.036000 0.000000
0.000000 0.034000 0.000000
0.000000 0.032000 0.000000
0.000000 0.030000 0.000000
0.000000 0.028000 0.000000
0.000000 0.026000 0.000000
0.000000 0.024000 0.000000
0.000000 0.022000 0.000000
0.000000 0.020000 0.000000
0.000000 0.018000 0.000000
0.000000 0.016000 0.000000
0.000000 0.014000 0.000000
0.000000 0.012000 0.000000
0.000000 0.010000 0.000000
0.000000 0.008000 0.000000
0.000000 0.006000 0.000000
0.000000 0.004000 0.000000
0.000000 0.002000 0.000000
0.035411 0.076518 0.000000
0.035821 0.076786 0.000000
0.036232 0.077054 0.000000
0.036643 0.077321 0.000000
0.037054 0.077589 0.000000
0.037464 0.077857 0.000000
0.037875 0.078125 0.000000
0.038286 0.078393 0.000000
0.038696 0.078661 0.000000
0.039107 0.078929 0.000000
0.039518 0.079196 0.000000
0.039929 0.079464 0.000000
0.040339 0.079732 0.000000
0.040750 0.080000 0.000000
0.041161 0.080268 0.000000
0.041571 0.080536 0.000000
0.041982 0.080804 0.000000
0.042393 0.081071 0.000000
0.042804 0.081339 0.000000
0.043214 0.081607 0.000000
0.043625 0.081875 0.000000
0.044036 0.082143 0.000000
0.044446 0.082411 0.000000
0.044857 0.082679 0.000000
0.045268 0.082946 0.000000
0.045679 0.083214 0.000000
0.046089 0.083482 0.000000
0.040000 0.002000 0.000000
0.040001 0.158005 0.000000
0.002000 0.116000 0.000000
0.078000 0.048000 0.000000
0.002000 0.106000 0.000000
0.078000 0.058000 0.000000
0.001986 0.042173 0.000000
0.078015 0.117826 0.000000
0.001985 0.094174 0.000000
0.001985 0.084174 0.000000
0.001914 0.056074 0.000000
0.002000 0.072000 0.000000
0.078015 0.065826 0.000000
0.078016 0.075826 0.000000
0.078000 0.088000 0.000000
0.078000 0.104000 0.000000
0.078003 0.029997 0.000000
0.001998 0.130002 0.000000
0.002000 0.032000 0.000000
0.078013 0.128003 0.000000
0.056000 0.158000 0.000000
0.026000 0.002000 0.000000
0.060000 0.002000 0.000000
0.020000 0.158000 0.000000
0.002000 0.020000 0.000000
0.078000 0.142000 0.000000
0.002000 0.146000 0.000000
0.078000 0.020000 0.000000
0.016000 0.002000 0.000000
0.068000 0.002000 0.000000
0.066000 0.158000 0.000000
0.002000 0.014000 0.000000
0.008000 0.158000 0.000000
0.010000 0.002000 0.000000
0.078000 0.148000 0.000000
0.078000 0.008000 0.000000
0.078005 0.037995 0.000000
0.051991 0.001990 0.000000
0.028000 0.158000 0.000000
0.002000 0.008000 0.000000
0.078000 0.094000 0.000000
0.078000 0.110000 0.000000
0.001983 0.066159 0.000000
0.002000 0.050000 0.000000
0.046000 0.158000 0.000000
0.078000 0.134000 0.000000
0.002000 0.140000 0.000000
0.006000 0.002000 0.000000
0.002000 0.154000 0.000000
0.074000 0.002000 0.000000
0.078000 0.152000 0.000000
0.074000 0.158000 0.000000
0.078000 0.080000 0.000000
0.078000 0.070000 0.000000
0.078000 0.122000 0.000000
0.002000 0.090000 0.000000
0.002000 0.080000 0.000000
0.002000 0.038000 0.000000
0.002000 0.102000 0.000000
0.002000 0.112000 0.000000
0.036000 0.002000 0.000000
0.078000 0.042000 0.000000
0.032000 0.002000 0.000000
0.047987 0.001989 0.000000
0.032008 0.158010 0.000000
0.002000 0.028000 0.000000
0.002000 0.126000 0.000000
0.060000 0.158000 0.000000
0.022000 0.002000 0.000000
0.002000 0.136000 0.000000
0.078000 0.024000 0.000000
0.012000 0.158000 0.000000
0.078000 0.158000 0.000000
0.001947 0.003947 0.000000
0.002000 0.158000 0.000000
0.078000 0.012000 0.000000
0.078000 0.096000 0.000000
0.078000 0.098000 0.000000
0.078000 0.082000 0.000000
0.078111 0.099889 0.000000
0.078035 0.083965 0.000000
0.078000 0.090000 0.000000
0.078000 0.106000 0.000000
0.078000 0.072000 0.000000
0.078000 0.112000 0.000000
0.078043 0.061976 0.000000
0.078000 0.114000 0.000000
0.002000 0.064000 0.000000
0.002000 0.062000 0.000000
0.002000 0.088000 0.000000
0.002000 0.078000 0.000000
0.002000 0.060000 0.000000
0.001966 0.076034 0.000000
0.002000 0.070000 0.000000
0.002000 0.054000 0.000000
0.001957 0.098024 0.000000
0.002000 0.048000 0.000000
0.002000 0.046000 0.000000
[...]
POINT_DATA 5510
SCALARS UX float 1
LOOKUP_TABLE default
0.035418
0.130497
0.000004
-0.093322
0.014142
0.024524
0.037801
0.040184
0.042568
0.044953
0.047339
0.049727
0.052116
0.054507
0.056901
0.059294
0.061689
0.064083
0.066474
0.068863
0.071247
0.073626
0.076002
0.078373
0.080739
0.083101
0.085458
0.087810
0.090159
0.092506
0.094851
0.097196
0.099541
0.101886
0.104234
0.106584
0.108939
0.111299
0.113667
0.116039
0.118419
0.120810
0.123214
0.125636
0.128060
0.128952
0.127431
0.125939
0.124446
0.122997
0.121547
0.120133
0.118720
0.117315
0.115915
0.114518
0.113138
0.111756
0.110371
0.108982
0.107585
0.106177
0.104755
0.103316
0.101857
0.100374
0.098898
0.097401
0.095890
0.094384
0.092846
0.091299
0.089747
0.088194
0.086639
0.085082
0.083526
0.081970
0.080412
0.078852
0.077291
0.075727
0.074162
0.072595
0.071027
0.069460
0.067891
0.066323
0.064755
0.063192
0.061600
0.059973
0.058311
0.056454
0.054085
0.051642
0.049005
0.046318
0.043805
0.041517
0.039462
0.037459
0.035772
0.034113
0.032517
0.030962
0.029411
0.027876
0.026339
0.024803
0.023268
0.021732
0.020196
0.018661
0.017129
0.015600
0.014071
0.012551
0.011032
0.009510
0.007994
0.006425
0.004720
0.002641
-0.000032
-0.002384
-0.004855
-0.007326
-0.009753
-0.012177
-0.014611
-0.017036
-0.019452
-0.021865
-0.024272
-0.026674
-0.029073
-0.031468
-0.033862
-0.036246
-0.038625
-0.041000
-0.043370
-0.045734
-0.048095
-0.050452
-0.052804
-0.055155
-0.057504
-0.059853
-0.062202
-0.064552
-0.066903
-0.069258
-0.071619
-0.073987
-0.076363
-0.078748
-0.081139
-0.083543
-0.085963
-0.088408
-0.090856
-0.091761
-0.090237
-0.088710
-0.087247
-0.085793
-0.084350
-0.082934
-0.081528
-0.080124
-0.078726
-0.077335
-0.075949
-0.074561
-0.073169
-0.071767
-0.070354
-0.068920
-0.067494
-0.066045
-0.064593
-0.063128
-0.061656
-0.060170
-0.058670
-0.057175
-0.055653
-0.054124
-0.052589
-0.051052
-0.049511
-0.047966
-0.046418
-0.044869
-0.043316
-0.041758
-0.040200
-0.038638
-0.037074
-0.035509
-0.033941
-0.032374
-0.030803
-0.029231
-0.027659
-0.026095
-0.024503
-0.022887
-0.021208
-0.019455
-0.017233
-0.014867
-0.012423
-0.009875
-0.007308
-0.004880
-0.002533
-0.000667
0.001111
0.002844
0.004507
0.006108
0.007692
0.009232
0.010771
0.012309
0.013850
0.015389
0.016930
0.018471
0.020012
0.021553
0.023095
0.024636
0.026176
0.027716
0.029257
0.030797
0.032337
0.033877
0.014520
0.014920
0.015475
0.016007
0.016436
0.016753
0.017089
0.017460
0.017714
0.018082
0.018402
0.018668
0.019012
0.019357
0.019755
0.020136
0.020538
0.020921
0.021283
0.021600
0.021910
0.022190
0.022523
0.022841
0.023223
0.023645
0.024032
0.081571
-0.044205
-0.059227
0.093486
-0.051767
0.085832
0.005203
0.031789
-0.042669
-0.034872
-0.009680
-0.025317
0.079766
0.071958
0.062414
0.045914
0.106413
-0.069214
0.013176
0.023948
-0.025118
0.064926
0.105069
-0.067740
0.022401
0.013198
-0.080400
0.113377
0.052961
0.114511
-0.013059
0.027021
-0.081991
0.045797
0.008602
0.121983
0.100812
0.095680
-0.058336
0.031640
0.057600
0.038713
-0.020651
-0.001907
-0.037083
0.019332
-0.076175
0.041027
-0.086229
0.121660
0.005508
-0.003456
0.068672
0.076494
0.028530
-0.039404
-0.031588
0.008565
-0.048702
-0.056289
0.076836
0.097920
0.072085
0.090982
-0.053633
0.016247
-0.066410
-0.020303
0.060139
-0.073383
0.110567
-0.077209
0.000539
0.034698
-0.089266
0.119064
0.055828
0.053664
0.067106
0.051504
0.065609
0.060836
0.043305
0.074931
0.036702
0.082793
0.034908
-0.018782
-0.016730
-0.037843
-0.030021
-0.014432
-0.028517
-0.023737
-0.006850
-0.045684
0.000137
0.001952
0.088926
0.096481
0.091975
-0.054789
-0.062125
0.026997
0.010109
0.086288
-0.048926
-0.041835
0.103638
-0.034700
-0.032311
-0.064986
0.069705
0.100374
-0.063036
0.017785
0.022413
0.017797
0.019324
0.016264
-0.071992
-0.029918
0.109184
-0.078992
-0.017892
0.057746
0.109779
-0.072460
0.011667
0.116206
-0.083293
0.023940
0.028561
-0.010634
0.050572
-0.008232
0.003932
-0.086817
0.038568
0.036082
0.124962
0.119267
0.126489
-0.053912
0.091089
-0.037083
-0.029320
-0.022997
-0.011826
0.000824
0.066408
0.060098
0.048596
0.074171
0.034290
-0.042649
-0.062513
0.021531
0.010957
0.070536
-0.028393
0.018645
0.013875
0.058595
-0.070824
0.108020
-0.018756
0.026328
0.051420
-0.077905
-0.009174
0.042875
0.094137
0.029407
0.003031
0.120125
0.063408
0.051117
0.055193
-0.026315
-0.014232
-0.018121
0.004330
0.059456
0.064194
0.048989
0.070510
0.073457
0.041187
0.078323
0.033341
-0.022361
-0.036368
-0.027098
-0.041228
-0.012098
-0.033422
-0.004434
0.003586
0.081249
-0.044147
0.084353
-0.047234
0.087452
0.030414
-0.050304
0.006636
0.090523
-0.053348
-0.057946
0.095022
-0.060724
0.099398
-0.063586
0.083923
-0.046557
0.079200
-0.039455
0.088631
-0.051274
0.025508
0.011602
0.102234
0.074459
0.093329
-0.055981
-0.033143
0.098024
-0.060682
-0.067816
0.014698
0.020878
0.105024
0.020181
0.067316
0.016935
-0.027519
0.102719
-0.065385
0.020858
0.014734
-0.070603
0.107795
-0.074775
-0.022713
0.062533
-0.077582
0.111965
-0.015477
0.055353
-0.070097
0.107421
-0.074830
0.112140
0.010135
0.025481
-0.079597
0.114783
-0.081839
0.007067
0.117627
0.030100
0.048183
-0.084749
-0.005837
0.120505
0.002278
0.043411
0.033180
-0.084396
0.037103
0.116885
-0.001260
-0.085271
-0.087725
0.123458
0.122529
0.124065
-0.045279
0.082391
-0.009454
0.087110
0.046117
0.021039
-0.054507
0.096536
-0.063874
0.105906
0.115144
-0.073306
0.007726
0.099759
0.077753
-0.078058
-0.082278
0.056979
0.030971
-0.019881
0.079232
0.075828
-0.042135
-0.038716
0.071101
0.068026
-0.034013
-0.030915
0.085390
-0.048254
0.027796
0.014009
-0.049751
0.017107
0.102451
0.018485
-0.065284
0.065773
0.060986
0.053810
0.110621
-0.075051
-0.072225
0.046642
0.032485
-0.079350
0.112278
0.109426
-0.004491
0.001403
0.118057
0.118605
0.058474
0.061586
-0.021364
0.045694
-0.024484
0.032828
-0.009161
-0.001390
0.092620
0.072635
-0.035544
0.006070
0.009351
-0.055432
-0.058271
0.037977
0.040367
0.088122
0.089577
-0.050967
-0.052407
-0.045116
0.053354
0.064937
-0.061101
-0.016315
-0.027845
0.036152
0.096933
0.095536
0.002532
0.012467
0.023082
0.091814
0.072982
-0.035504
0.082481
-0.037993
0.020023
-0.063919
-0.059183
-0.026006
0.068153
0.105222
0.106615
-0.068035
-0.069429
0.012335
0.101214
0.021704
0.024791
-0.030769
0.015411
0.056207
-0.040325
-0.021160
-0.068580
-0.013944
-0.016354
-0.011542
-0.076464
0.049031
0.115355
0.027866
0.030945
0.041872
0.117735
-0.006825
0.039487
0.121016
0.004623
-0.000217
-0.083764
0.035563
-0.082852
0.011717
0.093178
-0.049178
0.030101
-0.028663
-0.036537
-0.019418
-0.038610
0.073645
0.065839
0.056328
-0.058744
0.020719
-0.026853
0.071376
0.102687
0.013029
-0.065492
0.059443
-0.014837
0.027183
0.052274
-0.072532
0.033331
0.001180
-0.007011
0.035836
-0.005460
0.059953
-0.022929
0.008223
0.090451
0.050968
-0.014005
0.019498
0.014825
-0.061406
0.066614
0.047492
0.009265
-0.075420
0.002178
0.042814
0.054760
0.033736
-0.017716
0.069622
0.077473
-0.032533
-0.040376
0.080817
-0.043712
-0.056876
0.062696
0.048289
-0.011695
0.083954
-0.046829
0.007607
-0.025598
0.029121
-0.059592
-0.006160
-0.002911
-0.036338
-0.043467
-0.052061
0.070698
-0.033604
0.098361
-0.049528
0.004858
0.086670
0.094128
0.075318
0.080067
0.089416
0.026206
0.024660
0.101121
0.015548
0.087435
-0.023566
0.103849
-0.056844
-0.066658
0.011476
0.017649
-0.031604
0.063374
0.023236
-0.050295
-0.053128
0.098874
-0.061528
0.104092
0.106910
0.022553
-0.066889
-0.069692
-0.019622
-0.012450
0.016083
0.103560
-0.066227
-0.073636
0.054672
-0.047419
0.110848
0.030256
0.010803
-0.070940
0.108259
-0.010098
0.112984
0.113701
0.116214
0.044257
0.006179
-0.080803
0.116593
0.037947
-0.075676
0.117104
0.119525
0.034024
-0.001018
-0.002317
-0.081332
-0.080449
0.084783
0.037949
-0.046871
-0.015807
-0.006943
0.053048
-0.035015
-0.062985
0.015254
0.085603
0.100190
0.021870
-0.052994
0.095025
0.106745
-0.013355
-0.062360
0.053127
0.111227
0.081277
-0.069425
0.114707
-0.074159
0.045838
-0.044168
0.097254
0.010626
-0.004512
0.066897
-0.030117
-0.041069
-0.037590
0.078162
0.074694
0.076231
-0.064137
-0.022044
0.025621
0.061826
0.108343
0.008412
0.034868
-0.078925
-0.000487
0.069429
-0.032349
0.010229
0.033887
-0.021628
0.058267
0.031841
-0.046029
0.083121
0.086311
-0.009870
0.091787
-0.047931
-0.055970
-0.054398
-0.057410
0.064086
-0.027070
0.060953
0.022220
0.025564
-0.023887
0.073713
-0.048238
-0.045758
0.052761
-0.015688
0.072085
-0.034993
0.040239
0.013285
0.101290
0.094554
0.003135
0.090293
0.028668
-0.062762
-0.060064
0.080892
-0.024479
-0.051645
0.024072
0.064229
0.019185
0.068971
-0.055345
0.017975
0.016361
0.088784
0.006495
0.105495
0.097369
-0.029228
0.098592
-0.033965
-0.068284
-0.071109
0.014568
0.009949
0.024921
-0.064712
0.102048
0.028713
0.057057
0.111465
-0.017229
0.049880
-0.011011
0.031789
-0.057677
0.006863
0.003759
0.113836
0.114151
0.115622
0.042718
0.045107
0.036408
0.040332
-0.073975
-0.007773
-0.076887
-0.079834
-0.041137
-0.003247
0.000574
0.090797
0.079538
-0.030240
-0.024040
0.006943
-0.006626
0.067337
0.061252
0.074543
-0.051517
0.093533
-0.060857
-0.022962
-0.011914
-0.068617
0.031095
-0.053879
0.006030
0.014058
0.065080
0.083995
0.071810
-0.034695
0.034178
0.048347
0.043567
-0.072972
-0.077418
-0.041945
0.051055
0.039925
0.057745
0.054182
-0.020812
-0.017263
-0.014014
0.088202
0.035511
0.003500
0.098849
0.012179
0.063832
0.060292
0.103003
0.055513
0.037255
0.001338
-0.004121
-0.037312
-0.056341
-0.058953
-0.061636
0.048115
0.043578
-0.052421
0.031840
0.028212
-0.011855
0.076185
-0.039089
-0.045248
-0.042467
-0.042530
0.079629
0.085142
0.027175
0.023921
0.068670
-0.031565
-0.004405
-0.032697
-0.030063
0.015628
-0.044437
0.016757
0.019916
0.018796
-0.050633
-0.048093
0.010177
0.095920
0.092671
-0.020493
0.087952
0.013729
0.083197
0.026432
0.085163
0.101600
0.069812
-0.050791
-0.065776
-0.064380
0.020321
0.109780
-0.060012
0.099707
0.023397
0.009105
0.050735
0.105858
-0.018102
-0.015717
-0.027701
0.099921
-0.053838
-0.067063
0.109100
-0.070058
0.104393
0.028023
0.005321
0.112327
0.111731
0.112686
-0.008692
-0.071790
-0.001827
0.113214
0.041179
0.038793
-0.076534
-0.078353
0.078548
-0.026608
-0.002284
0.067838
-0.030748
0.016373
-0.043462
0.081759
-0.015161
-0.028628
0.050680
0.065558
-0.033509
0.014443
0.024228
-0.059170
-0.050013
0.096346
0.008266
0.053980
0.100537
-0.066159
-0.040647
0.028818
-0.067909
0.046142
0.024740
-0.037629
-0.040914
0.074722
0.077942
0.080651
-0.028540
-0.021367
0.021534
0.079372
0.093437
0.084089
-0.061892
0.099128
-0.058533
0.049203
0.002913
0.105233
0.109955
-0.075924
-0.008680
-0.028784
0.065811
0.026844
0.056083
0.059670
-0.018823
0.012522
-0.022411
-0.035720
0.072815
0.030214
0.089426
0.082207
0.037679
-0.002256
0.031689
0.005339
-0.004379
-0.013635
0.017127
0.070151
0.018423
-0.033048
-0.044742
-0.043679
0.076869
0.096130
-0.060304
0.097470
0.091192
0.041018
0.008690
0.011349
0.092115
0.062406
0.086477
0.021232
-0.049399
-0.057596
-0.056166
0.062671
0.007581
0.107321
0.110259
-0.016604
0.057892
0.025768
-0.067194
-0.049178
-0.046779
0.072152
0.032629
0.086457
-0.014248
0.004471
0.104428
-0.025328
-0.071509
-0.009596
0.029558
0.045954
-0.070276
-0.075025
0.042030
0.095861
-0.074444
-0.063197
0.109333
0.110827
0.035715
-0.002646
-0.000250
0.039642
-0.006387
0.067442
-0.039637
-0.055045
-0.025181
-0.028311
0.002029
-0.010239
0.064928
0.049576
-0.039314
0.076409
0.041191
0.059058
0.088359
-0.041843
0.074636
0.007529
-0.013071
-0.001489
0.077646
0.026573
0.065917
0.089707
-0.051733
-0.015140
0.103441
-0.059341
0.033480
-0.037541
-0.032854
0.069951
0.003650
0.107851
-0.066404
-0.069074
-0.024618
0.061998
0.027543
0.085839
0.059233
0.055745
0.052837
0.077493
0.080460
0.019724
-0.038348
-0.022153
-0.053973
-0.023721
-0.064717
0.061140
0.056359
-0.010488
0.044418
-0.004978
0.072991
-0.027291
0.064420
-0.018632
-0.005920
0.048954
0.037461
0.033056
0.014513
0.011833
-0.040706
0.029580
-0.042067
0.000258
-0.002461
0.023121
0.017930
-0.011896
-0.000122
0.067947
-0.030894
0.016034
-0.030931
0.024922
-0.035814
0.019301
-0.045375
-0.042942
-0.056521
0.093668
0.043383
-0.026197
0.012919
0.088815
0.027265
0.089651
-0.045925
0.081680
-0.060505
0.082876
-0.063296
0.097724
-0.054690
-0.052330
-0.048514
0.022606
-0.018966
0.009827
0.094754
0.098196
-0.029620
0.066735
0.035023
0.040493
-0.057829
0.051587
0.002070
-0.001079
-0.065542
-0.067611
0.046815
0.107587
0.108787
0.006748
0.010961
0.100551
-0.007289
0.102885
0.106965
-0.073523
0.036565
0.030385
0.108457
0.038105
-0.072644
0.068290
-0.072022
0.092021
0.094983
-0.047709
0.003726
0.047802
0.039368
-0.036046
0.073142
0.025340
0.057569
-0.016449
0.016977
0.085895
-0.034085
0.071188
-0.025325
0.050463
0.062633
0.040761
-0.036619
0.013738
-0.054155
-0.027204
-0.046215
0.066762
0.092534
-0.059444
0.088197
0.054827
0.007464
0.031165
-0.063736
0.067458
-0.030352
0.035870
0.001228
0.096686
0.047673
0.099025
0.105468
0.092361
-0.050865
-0.064042
0.106375
0.042879
0.038958
-0.069645
0.045116
-0.014460
0.070769
-0.033678
0.054255
0.013871
0.055641
-0.020228
-0.049837
-0.038784
0.078967
0.087041
-0.039405
0.000617
0.035231
-0.040511
0.005370
0.060506
0.076140
0.017673
0.022671
0.020765
0.082494
-0.029856
-0.055283
-0.039137
0.079931
-0.009636
-0.011375
0.090945
0.010545
-0.041585
-0.023266
-0.052700
-0.024577
0.084958
-0.042747
0.048595
0.087337
0.063735
-0.026589
0.079599
-0.026179
0.024827
0.021329
-0.056710
0.036586
0.005225
-0.060862
-0.019836
0.093906
-0.047178
0.063535
0.101985
0.084128
0.058730
-0.061683
0.104904
-0.017481
0.106075
0.052447
0.031925
-0.065194
-0.012804
-0.003472
-0.068764
0.004398
0.101380
0.028089
0.000510
0.063043
0.009316
-0.057019
-0.005842
-0.008171
-0.071142
-0.070549
0.094342
0.070626
0.018575
0.075313
0.066092
-0.028984
0.001648
0.029859
-0.032010
0.057700
-0.007507
-0.003733
0.071767
-0.034674
0.053452
0.013447
0.023760
-0.017387
0.029236
-0.019997
0.019198
-0.039578
-0.028486
-0.020225
0.065591
-0.012623
0.000970
0.048261
-0.035404
0.027254
-0.025450
0.090088
-0.057061
0.053295
-0.016019
0.022373
-0.061341
-0.057827
-0.062547
0.076097
-0.007886
0.097531
0.005860
-0.035454
0.070097
-0.033006
0.083606
0.009665
0.088594
0.059928
0.061991
-0.009035
0.034298
0.057196
0.002823
0.099567
0.041344
-0.004300
-0.068150
-0.067274
0.013065
0.091183
-0.018033
0.020246
-0.038466
0.027124
0.084649
0.068542
-0.031465
-0.038053
0.073975
0.075756
0.022892
0.032721
0.057661
-0.028285
-0.022679
0.078581
0.015309
-0.051690
-0.049623
-0.047526
-0.024052
0.079011
0.087195
-0.037870
0.012161
0.061190
0.029589
0.085856
0.038574
0.002844
0.064904
-0.027758
-0.011015
0.081152
-0.055429
-0.043775
0.080626
0.032736
-0.048514
-0.003602
0.009024
0.072546
0.064378
0.098117
-0.046244
0.103989
-0.000323
-0.022194
0.096677
-0.058077
-0.013692
0.045268
-0.066664
0.037404
0.095278
-0.001905
0.005928
0.104604
-0.062278
0.028880
0.071465
0.069095
0.050057
0.034652
0.101037
-0.053184
0.103722
0.090504
0.046653
-0.052879
0.031057
-0.034309
-0.043916
0.056297
0.053625
0.020297
0.042926
0.018615
-0.015715
0.051609
0.015604
0.027997
0.055159
-0.051256
0.011628
-0.036964
0.082110
-0.036360
0.070628
-0.023471
-0.010707
0.055817
0.060765
0.036389
-0.034203
0.013096
-0.049502
0.076889
0.067561
0.029549
0.086676
-0.047065
0.094280
0.006672
-0.014568
0.033494
0.002026
-0.033566
-0.045240
-0.026328
0.030634
0.042836
0.023416
0.085073
0.088752
-0.033130
-0.051787
0.025462
0.027828
0.055662
0.053827
0.036658
0.048534
0.097174
0.062816
0.095179
-0.059888
0.043728
0.102251
0.049648
0.015770
0.066160
-0.029072
-0.008796
0.077218
0.007809
0.025488
0.017167
0.061967
0.064294
-0.024827
-0.027175
-0.021116
0.002297
-0.050629
-0.022096
-0.030679
0.009807
0.058248
0.068284
-0.031199
-0.040617
-0.054367
0.000437
-0.002738
0.032613
-0.001098
0.083449
-0.055687
0.046618
-0.005523
0.024006
0.092833
-0.058476
0.059565
-0.044976
-0.042428
-0.036847
0.102512
-0.065780
0.003759
-0.060169
-0.006672
0.099869
-0.018343
0.081803
-0.023054
0.101628
-0.064889
0.050914
-0.055499
0.091473
0.103113
0.039805
-0.011365
0.005143
0.030390
-0.062807
-0.049364
0.020754
0.011409
0.058689
0.073784
0.089885
-0.040147
0.040916
-0.013802
-0.016369
0.021248
0.052583
0.018559
0.017707
0.024937
-0.049084
-0.018733
-0.036675
0.074533
0.017509
-0.020741
0.002985
0.047860
0.040547
0.059268
0.030232
0.086337
-0.011956
-0.045572
-0.052024
-0.056109
0.004377
0.054142
0.008217
-0.000370
0.093685
0.075091
-0.005953
-0.058654
-0.009900
-0.018433
-0.028329
0.004554
0.014822
0.052064
-0.058971
-0.016883
-0.005120
-0.063424
0.042186
0.100143
0.049395
0.087448
-0.038640
0.021303
0.011904
-0.032373
0.081244
0.072803
0.016300
0.078879
0.027919
0.056982
-0.047377
-0.022105
0.034518
-0.035018
-0.035254
0.083802
-0.037569
0.011512
0.045018
0.063159
-0.026021
0.031916
-0.001603
-0.050588
0.054531
0.029082
0.050896
0.081984
0.046338
0.038418
0.059443
-0.041647
-0.009308
-0.044696
0.008257
0.035084
0.098407
0.095735
0.065186
-0.026687
-0.053051
-0.032077
0.069302
0.063799
0.060408
0.098648
0.046133
-0.020679
0.038239
-0.020885
-0.064291
-0.001148
0.078378
0.058007
0.003604
0.026220
-0.044014
-0.012236
0.099280
0.087667
0.086196
-0.054009
-0.051673
0.069926
0.031158
0.013802
0.015272
0.100763
0.092864
0.088984
-0.053340
0.084374
0.022325
-0.014775
-0.036419
0.074594
-0.023923
0.026018
-0.046798
-0.048406
0.020369
0.019343
0.022971
0.072387
-0.016149
0.067110
-0.030012
0.018923
-0.033329
0.068708
-0.008976
-0.019383
0.054063
0.046003
-0.033211
0.068406
0.083936
0.030142
0.078167
0.085159
-0.049743
0.091911
-0.015420
0.080965
-0.031672
-0.047188
-0.042993
0.035908
0.025670
0.042546
-0.010770
0.051906
0.035783
0.031644
0.001262
0.077594
-0.043285
0.044558
0.096948
0.094832
0.097812
0.063638
-0.003555
-0.061945
-0.050198
0.016520
0.010894
0.023213
0.065531
-0.028437
-0.007957
0.056622
0.057998
0.005637
-0.019692
0.073931
0.082534
0.085020
0.009892
0.044576
0.025648
0.049248
0.013162
0.075445
-0.034657
0.038474
0.009165
0.005939
0.002845
0.000530
0.076334
-0.049529
0.060389
0.062605
-0.025476
-0.050766
-0.023243
-0.029379
0.066488
-0.040911
-0.038581
-0.007527
-0.003217
0.047012
-0.060981
0.039059
-0.054708
-0.042823
-0.001920
-0.060427
0.040651
0.091316
0.061249
0.056492
0.004530
0.028673
-0.021553
-0.019185
-0.047873
0.096034
-0.045142
0.022871
0.051758
0.072240
-0.057519
0.032665
0.089057
0.031799
0.080536
-0.056314
0.079464
-0.034677
0.019834
-0.016947
-0.035014
-0.025039
-0.019455
-0.014679
-0.013134
0.021847
0.016727
0.013936
0.070598
0.065091
-0.027990
-0.030311
0.068680
-0.032456
-0.026676
0.003309
0.055590
0.036530
0.010687
-0.031404
0.032367
0.074265
0.062063
0.054971
-0.044135
0.003686
-0.018068
0.028343
-0.053770
0.023411
0.073037
0.076065
-0.005302
0.006739
0.047241
-0.032868
0.040968
0.057878
-0.012635
-0.001131
-0.004317
-0.054818
-0.056650
0.047855
0.041465
0.095479
0.089880
0.082641
0.079129
-0.059627
0.019434
0.070714
-0.010243
-0.016922
-0.024948
0.021419
0.062072
0.063764
0.008257
0.012163
-0.007562
0.055422
-0.018166
0.079110
0.033503
0.000611
-0.032711
0.028274
0.052864
-0.003210
0.027200
-0.008450
0.061554
-0.024405
0.008569
-0.020546
0.034206
-0.046274
-0.015540
0.074344
-0.047202
-0.039575
-0.037216
0.070879
0.007557
-0.039561
-0.041808
0.050118
-0.051015
0.037423
-0.048336
0.096330
0.044569
0.087482
0.090498
0.066010
-0.030371
0.083770
0.024441
-0.020031
-0.022466
0.067452
-0.046416
0.058869
-0.013089
-0.035662
0.052611
0.073038
0.045420
0.078804
-0.052504
0.085301
-0.017735
0.033410
-0.005930
0.002118
0.043017
0.094618
0.082853
0.014412
0.093355
-0.048465
0.006553
0.076732
0.017398
-0.026987
0.024150
-0.044087
0.015469
0.020328
-0.031475
0.019744
-0.008602
-0.001842
0.044415
0.008380
-0.044960
0.073077
0.080274
-0.042680
0.083664
-0.020892
0.001456
-0.040777
-0.033237
0.053435
-0.013937
0.089538
0.014298
0.030330
0.071072
0.052392
0.048202
0.003578
0.014249
0.068800
-0.029850
0.067005
0.025301
0.036595
-0.043212
-0.051025
-0.035883
0.039848
0.093146
0.081415
-0.047431
0.057317
0.005288
0.053999
-0.015502
-0.013480
0.077639
0.050615
-0.016723
-0.029344
0.010431
0.008713
-0.005217
0.030387
0.034306
-0.031186
0.038655
0.056726
0.011955
0.026815
-0.017980
-0.044931
-0.021726
-0.023654
0.058904
0.060799