# vtk DataFile Version 2.0
Test
ASCII
DATASET POLYDATA
POINTS 5510 float
0.000000 0.000000 0.000000
0.080000 0.000000 0.000000
0.080000 0.160000 0.000000
0.000000 0.160000 0.000000
0.035000 0.076250 0.000000
0.046500 0.083750 0.000000
0.002000 0.000000 0.000000
0.004000 0.000000 0.000000
0.006000 0.000000 0.000000
0.008000 0.000000 0.000000
0.010000 0.000000 0.000000
0.012000 0.000000 0.000000
0.014000 0.000000 0.000000
0.016000 0.000000 0.000000
0.018000 0.000000 0.000000
0.020000 0.000000 0.000000
0.022000 0.000000 0.000000
0.024000 0.000000 0.000000
0.026000 0.000000 0.000000
0.028000 0.000000 0.000000
0.030000 0.000000 0.000000
0.032000 0.000000 0.000000
0.034000 0.000000 0.000000
0.036000 0.000000 0.000000
0.038000 0.000000 0.000000
0.040000 0.000000 0.000000
0.042000 0.000000 0.000000
0.044000 0.000000 0.000000
0.046000 0.000000 0.000000
0.048000 0.000000 0.000000
0.050000 0.000000 0.000000
0.052000 0.000000 0.000000
0.054000 0.000000 0.000000
0.056000 0.000000 0.000000
0.058000 0.000000 0.000000
0.060000 0.000000 0.000000
0.062000 0.000000 0.000000
0.064000 0.000000 0.000000
0.066000 0.000000 0.000000
0.068000 0.000000 0.000000
0.070000 0.000000 0.000000
0.072000 0.000000 0.000000
0.074000 0.000000 0.000000
0.076000 0.000000 0.000000
0.078000 0.000000 0.000000
0.080000 0.002000 0.000000
0.080000 0.004000 0.000000
0.080000 0.006000 0.000000
0.080000 0.008000 0.000000
0.080000 0.010000 0.000000
0.080000 0.012000 0.000000
0.080000 0.014000 0.000000
0.080000 0.016000 0.000000
0.080000 0.018000 0.000000
0.080000 0.020000 0.000000
0.080000 0.022000 0.000000
0.080000 0.024000 0.000000
0.080000 0.026000 0.000000
0.080000 0.028000 0.000000
0.080000 0.030000 0.000000
0.080000 0.032000 0.000000
0.080000 0.034000 0.000000
0.080000 0.036000 0.000000
0.080000 0.038000 0.000000
0.080000 0.040000 0.000000
0.080000 0.042000 0.000000
0.080000 0.044000 0.000000
0.080000 0.046000 0.000000
0.080000 0.048000 0.000000
0.080000 0.050000 0.000000
0.080000 0.052000 0.000000
0.080000 0.054000 0.000000
0.080000 0.056000 0.000000
0.080000 0.058000 0.000000
0.080000 0.060000 0.000000
0.080000 0.062000 0.000000
0.080000 0.064000 0.000000
0.080000 0.066000 0.000000
0.080000 0.068000 0.000000
0.080000 0.070000 0.000000
0.080000 0.072000 0.000000
0.080000 0.074000 0.000000
0.080000 0.076000 0.000000
0.080000 0.078000 0.000000
0.080000 0.080000 0.000000
0.080000 0.082000 0.000000
0.080000 0.084000 0.000000
0.080000 0.086000 0.000000
0.080000 0.088000 0.000000
0.080000 0.090000 0.000000
0.080000 0.092000 0.000000
0.080000 0.094000 0.000000
0.080000 0.096000 0.000000
0.080000 0.098000 0.000000
0.080000 0.100000 0.000000
0.080000 0.102000 0.000000
0.080000 0.104000 0.000000
0.080000 0.106000 0.000000
0.080000 0.108000 0.000000
0.080000 0.110000 0.000000
0.080000 0.112000 0.000000
0.080000 0.114000 0.000000
0.080000 0.116000 0.000000
0.080000 0.118000 0.000000
0.080000 0.120000 0.000000
0.080000 0.122000 0.000000
0.080000 0.124000 0.000000
0.080000 0.126000 0.000000
0.080000 0.128000 0.000000
0.080000 0.130000 0.000000
0.080000 0.132000 0.000000
0.080000 0.134000 0.000000
0.080000 0.136000 0.000000
0.080000 0.138000 0.000000
0.080000 0.140000 0.000000
0.080000 0.142000 0.000000
0.080000 0.144000 0.000000
0.080000 0.146000 0.000000
0.080000 0.148000 0.000000
0.080000 0.150000 0.000000
0.080000 0.152000 0.000000
0.080000 0.154000 0.000000
0.080000 0.156000 0.000000
0.080000 0.158000 0.000000
0.078000 0.160000 0.000000
0.076000 0.160000 0.000000
0.074000 0.160000 0.000000
0.072000 0.160000 0.000000
0.070000 0.160000 0.000000
0.068000 0.160000 0.000000
0.066000 0.160000 0.000000
0.064000 0.160000 0.000000
0.062000 0.160000 0.000000
0.060000 0.160000 0.000000
0.058000 0.160000 0.000000
0.056000 0.160000 0.000000
0.054000 0.160000 0.000000
0.052000 0.160000 0.000000
0.050000 0.160000 0.000000
0.048000 0.160000 0.000000
0.046000 0.160000 0.000000
0.044000 0.160000 0.000000
0.042000 0.160000 0.000000
0.040000 0.160000 0.000000
0.038000 0.160000 0.000000
0.036000 0.160000 0.000000
0.034000 0.160000 0.000000
0.032000 0.160000 0.000000
0.030000 0.160000 0.000000
0.028000 0.160000 0.000000
0.026000 0.160000 0.000000
0.024000 0.160000 0.000000
0.022000 0.160000 0.000000
0.020000 0.160000 0.000000
0.018000 0.160000 0.000000
0.016000 0.160000 0.000000
0.014000 0.160000 0.000000
0.012000 0.160000 0.000000
0.010000 0.160000 0.000000
0.008000 0.160000 0.000000
0.006000 0.160000 0.000000
0.004000 0.160000 0.000000
0.002000 0.160000 0.000000
0.000000 0.158000 0.000000
0.000000 0.156000 0.000000
0.000000 0.154000 0.000000
0.000000 0.152000 0.000000
0.000000 0.150000 0.000000
0.000000 0.148000 0.000000
0.000000 0.146000 0.000000
0.000000 0.144000 0.000000
0.000000 0.142000 0.000000
0.000000 0.140000 0.000000
0.000000 0.138000 0.000000
0.000000 0.136000 0.000000
0.000000 0.134000 0.000000
0.000000 0.132000 0.000000
0.000000 0.130000 0.000000
0.000000 0.128000 0.000000
0.000000 0.126000 0.000000
0.000000 0.124000 0.000000
0.000000 0.122000 0.000000
0.000000 0.120000 0.000000
0.000000 0.118000 0.000000
0.000000 0.116000 0.000000
0.000000 0.114000 0.000000
0.000000 0.112000 0.000000
0.000000 0.110000 0.000000
0.000000 0.108000 0.000000
0.000000 0.106000 0.000000
0.000000 0.104000 0.000000
0.000000 0.102000 0.000000
0.000000 0.100000 0.000000
0.000000 0.098000 0.000000
0.000000 0.096000 0.000000
0.000000 0.094000 0.000000
0.000000 0.092000 0.000000
0.000000 0.090000 0.000000
0.000000 0.088000 0.000000
0.000000 0.086000 0.000000
0.000000 0.084000 0.000000
0.000000 0.082000 0.000000
0.000000 0.080000 0.000000
0.000000 0.078000 0.000000
0.000000 0.076000 0.000000
0.000000 0.074000 0.000000
0.000000 0.072000 0.000000
0.000000 0.070000 0.000000
0.000000 0.068000 0.000000
0.000000 0.066000 0.000000
0.000000 0.064000 0.000000
0.000000 0.062000 0.000000
0.000000 0.060000 0.000000
0.000000 0.058000 0.000000
0.000000 0.056000 0.000000
0.000000 0.054000 0.000000
0.000000 0.052000 0.000000
0.000000 0.050000 0.000000
0.000000 0.048000 0.000000
0.000000 0.046000 0.000000
0.000000 0.044000 0.000000
0.000000 0.042000 0.000000
0.000000 0.040000 0.000000
0.000000 0.038000 0.000000
0.000000 0.036000 0.000000
0.000000 0.034000 0.000000
0.000000 0.032000 0.000000
0.000000 0.030000 0.000000
0.000000 0.028000 0.000000
0.000000 0.026000 0.000000
0.000000 0.024000 0.000000
0.000000 0.022000 0.000000
0.000000 0.020000 0.000000
0.000000 0.018000 0.000000
0.000000 0.016000 0.000000
0.000000 0.014000 0.000000
0.000000 0.012000 0.000000
0.000000 0.010000 0.000000
0.000000 0.008000 0.000000
0.000000 0.006000 0.000000
0.000000 0.004000 0.000000
0.000000 0.002000 0.000000
0.035411 0.076518 0.000000
0.035821 0.076786 0.000000
0.036232 0.077054 0.000000
0.036643 0.077321 0.000000
0.037054 0.077589 0.000000
0.037464 0.077857 0.000000
0.037875 0.078125 0.000000
0.038286 0.078393 0.000000
0.038696 0.078661 0.000000
0.039107 0.078929 0.000000
0.039518 0.079196 0.000000
0.039929 0.079464 0.000000
0.040339 0.079732 0.000000
0.040750 0.080000 0.000000
0.041161 0.080268 0.000000
0.041571 0.080536 0.000000
0.041982 0.080804 0.000000
0.042393 0.081071 0.000000
0.042804 0.081339 0.000000
0.043214 0.081607 0.000000
0.043625 0.081875 0.000000
0.044036 0.082143 0.000000
0.044446 0.082411 0.000000
0.044857 0.082679 0.000000
0.045268 0.082946 0.000000
0.045679 0.083214 0.000000
0.046089 0.083482 0.000000
0.040000 0.002000 0.000000
0.040001 0.158005 0.000000
0.002000 0.116000 0.000000
0.078000 0.048000 0.000000
0.002000 0.106000 0.000000
0.078000 0.058000 0.000000
0.001986 0.042173 0.000000
0.078015 0.117826 0.000000
0.001985 0.094174 0.000000
0.001985 0.084174 0.000000
0.001914 0.056074 0.000000
0.002000 0.072000 0.000000
0.078015 0.065826 0.000000
0.078016 0.075826 0.000000
0.078000 0.088000 0.000000
0.078000 0.104000 0.000000
0.078003 0.029997 0.000000
0.001998 0.130002 0.000000
0.002000 0.032000 0.000000
0.078013 0.128003 0.000000
0.056000 0.158000 0.000000
0.026000 0.002000 0.000000
0.060000 0.002000 0.000000
0.020000 0.158000 0.000000
0.002000 0.020000 0.000000
0.078000 0.142000 0.000000
0.002000 0.146000 0.000000
0.078000 0.020000 0.000000
0.016000 0.002000 0.000000
0.068000 0.002000 0.000000
0.066000 0.158000 0.000000
0.002000 0.014000 0.000000
0.008000 0.158000 0.000000
0.010000 0.002000 0.000000
0.078000 0.148000 0.000000
0.078000 0.008000 0.000000
0.078005 0.037995 0.000000
0.051991 0.001990 0.000000
0.028000 0.158000 0.000000
0.002000 0.008000 0.000000
0.078000 0.094000 0.000000
0.078000 0.110000 0.000000
0.001983 0.066159 0.000000
0.002000 0.050000 0.000000
0.046000 0.158000 0.000000
0.078000 0.134000 0.000000
0.002000 0.140000 0.000000
0.006000 0.002000 0.000000
0.002000 0.154000 0.000000
0.074000 0.002000 0.000000
0.078000 0.152000 0.000000
0.074000 0.158000 0.000000
0.078000 0.080000 0.000000
0.078000 0.070000 0.000000
0.078000 0.122000 0.000000
0.002000 0.090000 0.000000
0.002000 0.080000 0.000000
0.002000 0.038000 0.000000
0.002000 0.102000 0.000000
0.002000 0.112000 0.000000
0.036000 0.002000 0.000000
0.078000 0.042000 0.000000
0.032000 0.002000 0.000000
0.047987 0.001989 0.000000
0.032008 0.158010 0.000000
0.002000 0.028000 0.000000
0.002000 0.126000 0.000000
0.060000 0.158000 0.000000
0.022000 0.002000 0.000000
0.002000 0.136000 0.000000
0.078000 0.024000 0.000000
0.012000 0.158000 0.000000
0.078000 0.158000 0.000000
0.001947 0.003947 0.000000
0.002000 0.158000 0.000000
0.078000 0.012000 0.000000
0.078000 0.096000 0.000000
0.078000 0.098000 0.000000
0.078000 0.082000 0.000000
0.078111 0.099889 0.000000
0.078035 0.083965 0.000000
0.078000 0.090000 0.000000
0.078000 0.106000 0.000000
0.078000 0.072000 0.000000
0.078000 0.112000 0.000000
0.078043 0.061976 0.000000
0.078000 0.114000 0.000000
0.002000 0.064000 0.000000
0.002000 0.062000 0.000000
0.002000 0.088000 0.000000
0.002000 0.078000 0.000000
0.002000 0.060000 0.000000
0.001966 0.076034 0.000000
0.002000 0.070000 0.000000
0.002000 0.054000 0.000000
0.001957 0.098024 0.000000
0.002000 0.048000 0.000000
0.002000 0.046000 0.000000
[...]
POINT_DATA 5510
SCALARS UX float 1
LOOKUP_TABLE default
-0.004574
0.033396
0.000001
-0.037229
-0.004168
0.000946
-0.003623
-0.002671
-0.001720
-0.000767
0.000186
0.001139
0.002092
0.003045
0.003998
0.004950
0.005901
0.006852
0.007802
0.008751
0.009699
0.010646
0.011592
0.012537
0.013482
0.014426
0.015369
0.016312
0.017255
0.018198
0.019140
0.020083
0.021027
0.021971
0.022915
0.023861
0.024808
0.025756
0.026706
0.027657
0.028609
0.029563
0.030519
0.031477
0.032436
0.032998
0.032602
0.032210
0.031818
0.031429
0.031040
0.030655
0.030271
0.029888
0.029506
0.029125
0.028748
0.028371
0.027998
0.027627
0.027257
0.026889
0.026523
0.026159
0.025795
0.025430
0.025067
0.024702
0.024336
0.023971
0.023602
0.023229
0.022853
0.022475
0.022092
0.021706
0.021317
0.020926
0.020532
0.020134
0.019736
0.019332
0.018926
0.018517
0.018104
0.017689
0.017266
0.016834
0.016392
0.015944
0.015472
0.014985
0.014487
0.013968
0.013429
0.012894
0.012361
0.011831
0.011326
0.010837
0.010369
0.009906
0.009473
0.009045
0.008627
0.008218
0.007812
0.007413
0.007016
0.006622
0.006229
0.005838
0.005447
0.005056
0.004667
0.004278
0.003889
0.003502
0.003116
0.002731
0.002350
0.001963
0.001539
0.000964
-0.000008
-0.000995
-0.001984
-0.002965
-0.003934
-0.004899
-0.005862
-0.006822
-0.007781
-0.008738
-0.009693
-0.010646
-0.011599
-0.012550
-0.013501
-0.014449
-0.015396
-0.016343
-0.017288
-0.018233
-0.019177
-0.020121
-0.021065
-0.022008
-0.022951
-0.023895
-0.024839
-0.025784
-0.026729
-0.027675
-0.028623
-0.029572
-0.030523
-0.031476
-0.032430
-0.033386
-0.034344
-0.035305
-0.036266
-0.036829
-0.036434
-0.036038
-0.035649
-0.035260
-0.034872
-0.034488
-0.034105
-0.033723
-0.033343
-0.032964
-0.032589
-0.032213
-0.031842
-0.031472
-0.031104
-0.030737
-0.030371
-0.030006
-0.029642
-0.029278
-0.028913
-0.028548
-0.028180
-0.027813
-0.027441
-0.027067
-0.026689
-0.026308
-0.025924
-0.025536
-0.025146
-0.024754
-0.024358
-0.023960
-0.023561
-0.023156
-0.022750
-0.022341
-0.021928
-0.021513
-0.021091
-0.020660
-0.020221
-0.019777
-0.019312
-0.018834
-0.018341
-0.017839
-0.017313
-0.016784
-0.016260
-0.015736
-0.015229
-0.014736
-0.014249
-0.013797
-0.013355
-0.012920
-0.012494
-0.012080
-0.011668
-0.011266
-0.010867
-0.010470
-0.010075
-0.009681
-0.009288
-0.008897
-0.008505
-0.008113
-0.007722
-0.007330
-0.006938
-0.006545
-0.006152
-0.005758
-0.005364
-0.004970
-0.003968
-0.003769
-0.003493
-0.003225
-0.003013
-0.002860
-0.002693
-0.002509
-0.002387
-0.002207
-0.002053
-0.001927
-0.001758
-0.001589
-0.001389
-0.001198
-0.001007
-0.000813
-0.000638
-0.000504
-0.000363
-0.000230
-0.000069
0.000083
0.000270
0.000481
0.000683
0.014033
-0.017840
-0.027943
0.023370
-0.026114
0.021527
-0.011976
0.008103
-0.023859
-0.021861
-0.015307
-0.019282
0.020031
0.018038
0.015454
0.011338
0.026650
-0.030496
-0.009901
0.006056
-0.010250
0.007406
0.023468
-0.027282
-0.007550
0.003320
-0.033519
0.028536
0.002648
0.027261
-0.005467
-0.006377
-0.032988
-0.000210
0.002154
0.030856
0.025183
0.019689
-0.023502
-0.005200
0.014019
0.009826
-0.017916
-0.013720
-0.015001
0.004877
-0.032371
-0.002115
-0.035075
0.030121
0.001376
-0.001629
0.017175
0.019202
0.007241
-0.023027
-0.020997
-0.011100
-0.025362
-0.027218
0.012143
0.024455
0.010251
0.017801
-0.021614
-0.009113
-0.029759
-0.008340
0.005505
-0.031614
0.027773
-0.031079
0.000099
-0.004428
-0.035865
0.030077
0.013505
0.012969
0.016757
0.012509
0.016354
0.014991
0.010816
0.018803
0.009359
0.020790
0.008913
-0.017368
-0.016845
-0.022627
-0.020579
-0.016312
-0.020176
-0.018825
-0.014724
-0.024621
-0.013250
-0.012799
0.022274
0.024105
0.023006
-0.026852
-0.028668
0.006842
-0.010697
0.015920
-0.019728
-0.016895
0.025915
-0.014054
-0.013104
-0.029394
0.009304
0.021578
-0.025391
-0.008721
0.005664
0.004488
-0.008331
0.004098
-0.031239
-0.012154
0.027397
-0.033136
-0.007384
0.004553
0.025362
-0.029178
0.002931
0.029304
-0.034295
-0.007159
-0.005985
-0.004505
0.001696
-0.003546
0.000985
-0.034903
-0.003117
-0.004136
0.031641
0.029166
0.032036
-0.026273
0.022422
-0.022116
-0.020107
-0.018356
-0.015379
-0.012742
0.016289
0.014529
0.011547
0.018292
0.008431
-0.017435
-0.028434
0.005090
-0.010147
0.009853
-0.011768
-0.008155
0.003144
0.005110
-0.030642
0.026803
-0.007947
-0.006205
0.002253
-0.032555
-0.004127
0.010346
0.023188
-0.005423
0.000406
0.029724
0.015482
0.012033
0.013066
-0.019301
-0.015911
-0.016920
-0.011872
0.014586
0.015966
0.011964
0.017667
0.018431
0.010385
0.019674
0.008513
-0.018427
-0.022253
-0.019789
-0.023500
-0.015811
-0.021488
-0.014248
-0.012393
0.020406
-0.024235
0.021173
-0.025006
0.021926
0.007744
-0.025763
-0.011609
0.022664
-0.026507
-0.027632
0.023749
-0.028321
0.024828
-0.029040
0.014971
-0.018779
0.013084
-0.015945
0.016857
-0.020667
0.006460
-0.010312
0.025549
0.011195
0.018744
-0.022556
-0.013653
0.020632
-0.024444
-0.030127
-0.009511
0.005272
0.026280
-0.007764
0.008355
0.003920
-0.011202
0.022522
-0.026335
-0.007942
0.003711
-0.030865
0.027021
-0.031992
-0.009296
0.006456
-0.032753
0.028153
-0.006426
0.003601
-0.028229
0.024414
-0.030128
0.026310
0.002543
-0.006768
-0.032033
0.028919
-0.033906
0.001767
0.029690
-0.005593
0.000743
-0.034684
-0.002586
0.030465
0.000566
-0.001163
-0.004807
-0.033945
-0.003462
0.028213
-0.000707
-0.034506
-0.035468
0.031247
0.030681
0.031077
-0.024177
0.020342
-0.014522
0.016464
0.010634
-0.007200
-0.022180
0.020249
-0.025944
0.024020
0.028726
-0.029732
0.001585
0.024599
0.012722
-0.031636
-0.033721
0.013629
0.007579
-0.017471
0.019595
0.018723
-0.023424
-0.022547
0.017516
0.016722
-0.021336
-0.020538
0.021080
-0.024919
0.006748
-0.009350
-0.020273
-0.008550
0.025304
0.004315
-0.029160
0.007960
0.006060
0.003206
0.025916
-0.031785
-0.031021
0.000348
-0.004641
-0.032942
0.027954
0.027184
-0.002232
-0.000002
0.029505
0.029330
0.014056
0.014977
-0.017888
0.010977
-0.018797
0.008070
-0.014814
-0.013259
0.022829
0.017909
-0.021730
-0.011448
-0.010578
-0.026661
-0.027363
0.009316
0.009842
0.021717
0.022066
-0.025563
-0.025913
-0.018418
0.012589
0.015891
-0.028075
-0.016442
-0.019710
0.008883
0.023869
0.023521
-0.012330
-0.009753
0.005494
0.018351
0.010823
-0.014591
0.014610
-0.015579
0.004707
-0.028802
-0.024058
-0.010821
0.008905
0.026048
0.026424
-0.029892
-0.030266
0.002753
0.022131
-0.007378
-0.006594
-0.012711
0.003534
0.004160
-0.016509
-0.008901
-0.027835
-0.006036
-0.006993
-0.005080
-0.032168
0.001301
0.027817
-0.005815
-0.005033
-0.001557
0.028770
-0.003178
-0.002510
0.030287
0.000803
-0.000414
-0.034113
-0.003856
-0.033548
-0.009638
0.022600
-0.024802
0.007044
-0.019658
-0.021692
-0.017075
-0.016041
0.017876
0.015875
0.013161
-0.027153
0.004551
-0.011375
0.010401
0.025086
0.002582
-0.028927
0.005664
-0.006606
-0.005639
0.002812
-0.030819
-0.004080
-0.012348
-0.014003
0.008486
-0.002812
0.014258
-0.018112
-0.010567
0.021962
0.011695
-0.015578
-0.007597
-0.008812
-0.027844
0.008511
0.000907
0.001974
-0.031591
-0.000158
0.010003
0.012732
0.007992
-0.016597
0.017131
0.019140
-0.020950
-0.022967
0.019961
-0.023793
-0.027010
0.015014
0.011068
-0.015020
0.020722
-0.024559
-0.011066
-0.018828
0.007084
-0.027691
-0.014213
-0.013515
-0.015137
-0.017975
-0.021200
0.017116
-0.020935
0.024235
-0.025210
-0.011431
0.021367
0.019281
0.011754
0.013647
0.017389
0.006314
0.005907
0.024955
-0.008952
0.021190
-0.009854
0.025680
-0.023118
-0.029524
0.002187
0.003758
-0.013260
0.007008
-0.006990
-0.025044
-0.025770
0.021190
-0.025001
0.025463
0.026218
-0.006817
-0.029302
-0.030054
-0.008508
-0.005651
0.003359
0.023076
-0.026890
-0.031402
0.003767
-0.019341
0.027568
-0.004860
0.002364
-0.028783
0.024967
-0.004702
0.026865
0.028339
0.028375
-0.000605
0.001194
-0.033330
0.029115
-0.002903
-0.030683
0.028937
0.029895
-0.004248
-0.000956
-0.001312
-0.033153
-0.032591
0.015534
0.008959
-0.023894
-0.015796
-0.013659
0.011999
-0.014825
-0.027975
0.002811
0.016076
0.024134
-0.006653
-0.021790
0.019858
0.024572
-0.006219
-0.025552
0.003370
0.027377
0.019733
-0.028390
0.027982
-0.030289
0.010246
-0.023571
0.023646
0.001627
-0.013524
0.016138
-0.020076
-0.022807
-0.021954
0.018973
0.018132
0.012332
-0.028567
-0.009469
-0.006037
0.006611
0.026604
0.001411
-0.003689
-0.032196
-0.012691
0.016804
-0.020626
-0.010036
0.007731
-0.017730
0.013746
0.007501
-0.024025
0.020168
0.020947
-0.014299
0.022263
-0.024491
-0.026471
-0.026082
-0.026811
0.015395
-0.019217
0.014493
0.004940
0.005840
-0.018337
0.011331
-0.019883
-0.018892
0.012144
-0.015993
0.017460
-0.021281
0.009451
-0.009218
0.024714
0.022949
-0.011862
0.017957
0.006665
-0.028202
-0.027491
0.014191
-0.010433
-0.025371
-0.006431
0.007564
0.004153
0.009447
-0.022734
-0.007991
-0.008410
0.021511
-0.011014
0.025839
0.020800
-0.012317
0.023997
-0.014197
-0.029676
-0.030436
0.002974
0.001801
-0.005872
-0.026497
0.022683
-0.005252
0.004716
0.026470
-0.007557
0.001859
-0.005272
-0.004472
-0.023670
0.001018
0.000236
0.027422
0.028156
0.028546
-0.000998
-0.000045
-0.003296
-0.001951
-0.031205
-0.003756
-0.031981
-0.032761
-0.017047
-0.001882
-0.000556
0.021680
0.018966
-0.019794
-0.018165
-0.010596
-0.013280
0.015979
0.014394
0.011877
-0.021416
0.019476
-0.025164
-0.010048
-0.005837
-0.029477
-0.004301
-0.025618
0.000461
-0.008709
0.008118
0.020038
0.017144
-0.020958
-0.003518
0.001467
-0.000438
-0.030632
-0.031803
-0.017584
0.011437
0.009112
0.013390
0.012334
-0.017267
-0.016203
-0.015290
0.021083
0.008096
-0.011503
0.023781
0.002025
0.015072
0.006218
0.024882
0.004319
-0.002736
-0.000719
-0.002444
-0.015740
-0.026228
-0.026909
-0.027617
0.010781
0.009781
-0.025259
0.007174
0.006218
-0.014752
0.018500
-0.022328
-0.023497
-0.022817
-0.023166
0.019329
0.020656
0.006261
0.005396
0.016293
-0.020103
-0.013140
-0.013906
-0.012865
-0.008287
-0.018580
0.003198
0.004022
-0.007452
-0.020843
-0.024164
-0.009751
0.023300
0.018912
-0.009069
0.017018
0.002421
0.015114
-0.005489
0.020291
0.024510
0.009996
-0.024840
-0.028719
-0.028347
-0.007056
0.026990
-0.024608
0.021740
-0.006261
0.001241
0.002418
0.025645
-0.008118
-0.007167
-0.011927
0.024348
-0.022347
-0.027441
0.025519
-0.029860
0.023626
-0.005082
0.000629
0.027029
0.027199
0.027766
-0.004327
-0.029339
-0.001506
0.027590
-0.001391
-0.002344
-0.031241
-0.032370
0.013258
-0.018845
-0.013066
0.016373
-0.020189
-0.007792
-0.022729
0.019148
-0.015398
-0.019118
0.011109
0.015247
-0.014441
0.002277
-0.005714
-0.026678
-0.021032
0.022829
0.000688
0.003926
0.022290
-0.028523
-0.017283
-0.004542
-0.027996
0.010058
0.005364
-0.021640
-0.022443
0.017810
0.018583
0.019199
-0.012475
-0.009627
0.004463
0.013801
0.022357
0.015687
-0.027396
0.023560
-0.024230
0.002026
-0.000326
0.024178
0.026077
-0.031412
-0.013717
-0.019401
0.015560
0.005879
0.012865
0.013910
-0.016651
-0.009165
-0.017674
-0.021148
0.017323
0.006771
0.021348
0.019595
0.008599
-0.012723
0.006901
-0.010998
-0.012790
-0.014960
-0.007891
0.016678
0.003633
-0.020494
-0.023030
-0.023087
0.012804
0.023061
-0.027265
0.023416
0.018535
0.008937
-0.010144
0.001479
0.022016
0.014680
0.016644
-0.006500
-0.024482
-0.026550
-0.023280
0.007162
0.000855
0.026032
0.026810
-0.007729
0.005264
-0.005318
-0.029097
-0.020477
-0.019517
0.010927
-0.003911
0.020600
-0.006782
0.000067
0.025261
-0.010987
-0.030244
-0.004894
-0.004691
0.000514
-0.028945
-0.030849
-0.000831
0.020410
-0.031021
-0.026104
0.026245
0.026637
-0.003128
-0.002062
-0.001113
-0.001783
-0.003383
0.009057
-0.016666
-0.025894
-0.018454
-0.019358
-0.011839
-0.014065
0.015349
0.011088
-0.022046
0.018212
0.009304
0.013800
0.020749
-0.022048
0.017442
-0.010170
-0.014591
-0.011896
0.013329
-0.004785
0.008665
0.018156
-0.024765
-0.007342
0.024698
-0.024772
-0.003350
-0.021278
-0.020209
0.016388
-0.000485
0.025857
-0.027606
-0.029289
-0.018057
0.014349
0.005759
0.020172
0.013603
0.012605
0.011803
0.018135
0.018837
-0.006906
-0.016367
-0.017420
-0.025320
-0.010562
-0.028142
0.006770
0.004871
-0.005457
0.000121
-0.003006
0.011475
-0.018764
0.014963
-0.016408
-0.012833
0.010630
0.008238
0.007197
-0.008351
-0.009062
-0.022064
0.006273
-0.022391
-0.011855
-0.012429
0.004879
-0.007369
-0.014486
-0.012296
0.015831
-0.013399
0.002699
-0.019675
0.005073
-0.015360
0.003574
-0.019172
-0.018201
-0.025981
0.022126
0.009422
-0.011545
0.001883
0.017581
-0.004938
0.021080
-0.023303
0.014726
-0.027029
0.019396
-0.027767
0.023189
-0.022905
-0.021960
-0.023954
-0.006158
-0.008672
0.001090
0.022699
0.021348
-0.019339
0.015532
-0.002958
-0.001223
-0.026325
0.002974
-0.000885
-0.001672
-0.027045
-0.028905
0.001076
0.025124
0.026420
0.000302
-0.009232
0.023935
-0.003951
0.023234
0.025298
-0.030457
-0.002566
-0.004141
0.025687
-0.002175
-0.029895
0.009607
-0.030065
0.019085
0.022470
-0.020107
-0.011148
0.010376
0.008646
-0.020928
0.017096
0.005471
0.013205
-0.015771
-0.007350
0.019815
-0.020109
0.016279
-0.017993
0.010863
0.014262
0.008572
-0.015892
0.001789
-0.025077
-0.012147
-0.019728
0.009217
0.021535
-0.026454
0.017768
0.004477
0.000154
-0.003608
-0.027575
0.015454
-0.019269
-0.002401
-0.001442
0.022616
0.001635
0.021898
0.024908
0.021784
-0.021591
-0.026658
0.025469
-0.000273
-0.001614
-0.029116
0.009498
-0.015004
0.016544
-0.020370
0.012132
-0.008252
0.012430
-0.016789
-0.024297
-0.021269
0.018479
0.020432
-0.021753
-0.011500
0.007739
-0.021703
-0.010765
0.013923
0.017808
0.003129
0.004525
0.003965
0.015267
-0.013191
-0.025659
-0.016898
0.014242
-0.013680
-0.014108
0.021415
0.000949
-0.017875
-0.017689
-0.024991
-0.011112
0.016254
-0.022229
0.010316
0.017206
0.014521
-0.018315
0.018302
-0.018492
-0.005260
-0.006200
-0.025739
0.007776
-0.000085
-0.026826
-0.009224
0.021893
-0.023610
0.007720
0.024315
0.019697
0.005813
-0.025711
0.025083
-0.008282
0.024730
0.003532
-0.003748
-0.027955
-0.006397
-0.002620
-0.028553
-0.000633
0.022844
-0.004395
-0.001275
0.014592
-0.009691
-0.023839
-0.003571
-0.004515
-0.029506
-0.029676
0.020016
0.010537
-0.006909
0.012401
0.015094
-0.018904
-0.011635
0.006192
-0.014059
0.013148
-0.013125
-0.012361
0.016773
-0.020601
0.011924
-0.008577
0.004770
-0.016043
0.006276
-0.016813
-0.006458
-0.021171
-0.018526
-0.016656
0.014712
-0.014274
-0.011102
0.010025
-0.015620
-0.004303
-0.011666
0.020597
-0.025529
0.004083
-0.007895
0.004082
-0.026633
-0.024381
-0.026273
0.012929
-0.013008
0.021513
-0.010361
-0.020444
0.016051
-0.019881
0.019316
-0.009338
0.020513
0.013532
0.007322
-0.005074
-0.002805
0.005418
-0.011008
0.023368
-0.000664
-0.003175
-0.028726
-0.028168
-0.008387
0.021183
-0.016025
0.003587
-0.021278
0.005422
0.019522
0.015692
-0.019522
-0.020788
0.017027
0.017386
-0.005770
0.006869
0.012942
-0.012778
-0.017292
0.018076
0.002214
-0.024440
-0.023936
-0.023410
-0.017658
0.014089
0.020149
-0.016606
0.001371
0.013859
-0.004012
0.016831
0.008136
-0.001028
0.014802
-0.018596
-0.013798
0.014948
-0.025408
-0.022455
0.018520
-0.003205
-0.020649
-0.012055
0.000557
0.016617
0.008270
0.022990
-0.023077
0.024523
-0.001831
-0.010164
0.020953
-0.026097
-0.006957
0.000678
-0.028339
-0.002010
0.022248
-0.002227
-0.000241
0.024352
-0.027194
-0.003868
0.011085
0.010145
0.002583
0.007351
0.023753
-0.022519
0.023785
0.018693
0.009826
-0.024745
0.006445
-0.014976
-0.018807
0.012544
0.011770
-0.006421
0.009040
0.003100
-0.015383
0.011185
-0.007697
0.005613
0.012627
-0.024699
-0.009371
-0.020838
0.018537
-0.020073
0.015861
-0.017261
-0.013532
0.012217
0.013530
0.007393
-0.015352
0.001329
-0.023600
0.013454
0.009751
-0.003392
0.017377
-0.020287
0.021679
-0.000371
-0.007509
-0.002681
-0.001569
-0.019699
-0.022539
-0.012194
0.006088
0.008706
-0.005378
0.019323
0.020253
-0.014716
-0.024171
0.004937
0.005378
0.005023
0.011708
-0.001866
0.002193
0.022427
0.007865
0.020568
-0.026257
0.000284
0.023408
0.010430
-0.007475
0.014791
-0.018616
-0.013170
0.017720
-0.009848
-0.004784
0.002720
0.013811
0.014376
-0.017606
-0.018182
-0.016854
-0.010874
-0.024182
-0.016904
-0.013742
0.000449
0.012853
0.015311
-0.019147
-0.021390
-0.024835
-0.001975
-0.002781
0.006610
-0.011529
0.015869
-0.025174
0.009580
-0.012417
0.004544
0.019627
-0.025894
0.006359
-0.022753
-0.018429
-0.020492
0.024138
-0.027781
-0.010901
-0.025318
-0.004122
0.022451
-0.008829
0.018803
-0.010713
0.023581
-0.027213
0.003138
-0.023446
0.020955
0.023965
-0.001058
-0.006015
-0.000767
-0.003479
-0.027012
-0.021207
-0.006034
-0.008854
0.013199
0.012010
0.020847
-0.017517
0.008351
-0.014611
-0.015508
0.003810
0.011466
0.002893
-0.006855
0.004591
-0.023861
-0.016184
-0.020564
0.017105
-0.006757
-0.016330
-0.010408
0.009728
0.007959
0.012896
0.005756
0.019325
-0.013897
-0.019906
-0.023927
-0.024965
-0.001281
0.004634
-0.009485
-0.002509
0.020185
0.016899
-0.012283
-0.024927
-0.005631
-0.015950
-0.013012
-0.010347
0.001833
0.011135
-0.025696
-0.008442
-0.003723
-0.026839
-0.000112
0.023197
0.002749
0.019919
-0.017131
-0.005609
-0.008465
-0.014622
0.018418
0.016381
0.002194
0.014253
-0.003835
0.012522
-0.023075
-0.016681
0.007016
-0.020077
-0.019820
0.018987
-0.020365
0.000905
0.009181
0.014100
-0.017896
-0.003088
-0.011360
-0.023866
0.011847
0.005679
0.010805
0.015492
0.009298
0.007792
0.013165
-0.021623
-0.013133
-0.019338
0.000044
-0.002272
0.022079
0.022056
0.008806
-0.017808
-0.024496
-0.019304
0.015522
0.013996
0.006908
0.022810
0.001239
-0.009765
-0.001459
-0.016582
-0.027396
-0.002379
0.017654
0.005955
-0.001164
0.005408
-0.022220
-0.006570
0.022642
0.019662
0.019600
-0.023066
-0.022131
0.010690
-0.002962
-0.007911
-0.007514
0.023024
0.021313
0.018301
-0.024260
0.016455
-0.005609
-0.014859
-0.016240
0.012546
-0.011262
0.004852
-0.022991
-0.023332
0.003274
0.003031
0.003979
0.016399
-0.015317
0.015033
-0.018859
0.002639
-0.019031
0.015107
-0.012857
-0.015755
0.011528
0.009024
-0.015144
0.010302
0.018397
-0.002946
0.014191
0.016988
-0.023034
0.020748
-0.008054
0.017974
-0.018966
-0.022713
-0.021684
-0.001728
0.004527
0.008368
-0.006188
0.010955
0.006986
0.006101
-0.002087
0.017508
-0.018989
0.000830
0.021708
0.021499
0.022266
0.008406
-0.003326
-0.026459
-0.021756
0.002074
0.000453
0.003888
0.014377
-0.018206
-0.012767
0.012199
0.012567
-0.010183
-0.016263
0.016621
0.018377
0.018990
-0.009031
0.008840
-0.004483
0.010132
0.001127
0.013089
-0.019371
0.007556
-0.000005
-0.000868
-0.001677
-0.010914
0.017211
-0.023297
0.013166
0.013695
-0.017498
-0.023610
-0.016958
-0.018409
0.014582
-0.018039
-0.020591
-0.004680
-0.011632
0.001803
-0.025859
-0.000915
-0.024606
-0.021915
-0.002905
-0.026069
-0.000506
0.019235
0.007457
0.005566
-0.010110
0.005335
-0.010316
-0.009367
-0.020826
0.021127
-0.022223
-0.005184
0.003687
0.011613
-0.025323
-0.002574
0.020019
-0.002496
0.015139
-0.023991
0.017911
-0.019761
-0.006005
-0.015513
-0.015887
-0.011872
-0.015976
-0.014711
-0.014249
0.003698
-0.006866
-0.007655
0.015675
0.014337
-0.018159
-0.013805
0.014913
-0.018564
-0.017503
-0.010069
0.011715
0.006878
0.000181
-0.014611
-0.002061
0.012846
0.007995
0.005176
-0.019545
-0.001763
-0.015391
0.005029
-0.024042
-0.004765
0.016094
0.016772
-0.011845
-0.009551
0.009378
-0.019034
0.007768
0.012313
-0.013935
-0.003024
-0.003845
-0.023607
-0.024771
0.002352
0.000032
0.021333
0.018876
0.018073
0.017227
-0.025530
-0.005971
0.011222
-0.013227
-0.015301
-0.017135
0.003303
0.013326
0.013670
-0.009250
-0.008158
-0.012455
0.011879
-0.015631
0.017438
0.006515
-0.010631
-0.019192
-0.003512
0.011186
-0.011393
0.004946
-0.005263
0.013447
-0.017239
-0.000433
-0.016048
-0.002176
-0.022507
-0.014918
0.016418
-0.022396
-0.017719
-0.016774
0.015591
-0.000435
-0.020810
-0.021376
0.010364
-0.023346
-0.001342
-0.022998
0.021885
0.008635
0.017916
0.020386
0.009349
-0.018622
0.018676
-0.004756
-0.009908
-0.010882
0.014781
-0.020458
0.006511
-0.007118
-0.019603
0.004239
0.012134
0.001386
0.017474
-0.022679
0.018741
-0.008985
-0.002064
-0.004264
-0.002177
0.000433
0.020775
0.016064
0.001414
0.021119
-0.022717
-0.009403
0.013834
0.002228
-0.012708
0.004093
-0.021967
-0.007211
0.003019
-0.014453
0.002628
-0.012587
-0.010859
0.008407
-0.000684
-0.021522
0.012574
0.017156
-0.019176
0.016606
-0.010452
-0.002647
-0.020842
-0.018725
0.004779
-0.007663
0.019814
-0.007322
-0.002677
0.015328
0.010888
0.009645
-0.009737
0.001155
0.014796
-0.018222
0.009942
0.004194