# vtk DataFile Version 2.0
Test
ASCII
DATASET POLYDATA
POINTS 5510 float
0.000000 0.000000 0.000000
0.080000 0.000000 0.000000
0.080000 0.160000 0.000000
0.000000 0.160000 0.000000
0.035000 0.076250 0.000000
0.046500 0.083750 0.000000
0.002000 0.000000 0.000000
0.004000 0.000000 0.000000
0.006000 0.000000 0.000000
0.008000 0.000000 0.000000
0.010000 0.000000 0.000000
0.012000 0.000000 0.000000
0.014000 0.000000 0.000000
0.016000 0.000000 0.000000
0.018000 0.000000 0.000000
0.020000 0.000000 0.000000
0.022000 0.000000 0.000000
0.024000 0.000000 0.000000
0.026000 0.000000 0.000000
0.028000 0.000000 0.000000
0.030000 0.000000 0.000000
0.032000 0.000000 0.000000
0.034000 0.000000 0.000000
0.036000 0.000000 0.000000
0.038000 0.000000 0.000000
0.040000 0.000000 0.000000
0.042000 0.000000 0.000000
0.044000 0.000000 0.000000
0.046000 0.000000 0.000000
0.048000 0.000000 0.000000
0.050000 0.000000 0.000000
0.052000 0.000000 0.000000
0.054000 0.000000 0.000000
0.056000 0.000000 0.000000
0.058000 0.000000 0.000000
0.060000 0.000000 0.000000
0.062000 0.000000 0.000000
0.064000 0.000000 0.000000
0.066000 0.000000 0.000000
0.068000 0.000000 0.000000
0.070000 0.000000 0.000000
0.072000 0.000000 0.000000
0.074000 0.000000 0.000000
0.076000 0.000000 0.000000
0.078000 0.000000 0.000000
0.080000 0.002000 0.000000
0.080000 0.004000 0.000000
0.080000 0.006000 0.000000
0.080000 0.008000 0.000000
0.080000 0.010000 0.000000
0.080000 0.012000 0.000000
0.080000 0.014000 0.000000
0.080000 0.016000 0.000000
0.080000 0.018000 0.000000
0.080000 0.020000 0.000000
0.080000 0.022000 0.000000
0.080000 0.024000 0.000000
0.080000 0.026000 0.000000
0.080000 0.028000 0.000000
0.080000 0.030000 0.000000
0.080000 0.032000 0.000000
0.080000 0.034000 0.000000
0.080000 0.036000 0.000000
0.080000 0.038000 0.000000
0.080000 0.040000 0.000000
0.080000 0.042000 0.000000
0.080000 0.044000 0.000000
0.080000 0.046000 0.000000
0.080000 0.048000 0.000000
0.080000 0.050000 0.000000
0.080000 0.052000 0.000000
0.080000 0.054000 0.000000
0.080000 0.056000 0.000000
0.080000 0.058000 0.000000
0.080000 0.060000 0.000000
0.080000 0.062000 0.000000
0.080000 0.064000 0.000000
0.080000 0.066000 0.000000
0.080000 0.068000 0.000000
0.080000 0.070000 0.000000
0.080000 0.072000 0.000000
0.080000 0.074000 0.000000
0.080000 0.076000 0.000000
0.080000 0.078000 0.000000
0.080000 0.080000 0.000000
0.080000 0.082000 0.000000
0.080000 0.084000 0.000000
0.080000 0.086000 0.000000
0.080000 0.088000 0.000000
0.080000 0.090000 0.000000
0.080000 0.092000 0.000000
0.080000 0.094000 0.000000
0.080000 0.096000 0.000000
0.080000 0.098000 0.000000
0.080000 0.100000 0.000000
0.080000 0.102000 0.000000
0.080000 0.104000 0.000000
0.080000 0.106000 0.000000
0.080000 0.108000 0.000000
0.080000 0.110000 0.000000
0.080000 0.112000 0.000000
0.080000 0.114000 0.000000
0.080000 0.116000 0.000000
0.080000 0.118000 0.000000
0.080000 0.120000 0.000000
0.080000 0.122000 0.000000
0.080000 0.124000 0.000000
0.080000 0.126000 0.000000
0.080000 0.128000 0.000000
0.080000 0.130000 0.000000
0.080000 0.132000 0.000000
0.080000 0.134000 0.000000
0.080000 0.136000 0.000000
0.080000 0.138000 0.000000
0.080000 0.140000 0.000000
0.080000 0.142000 0.000000
0.080000 0.144000 0.000000
0.080000 0.146000 0.000000
0.080000 0.148000 0.000000
0.080000 0.150000 0.000000
0.080000 0.152000 0.000000
0.080000 0.154000 0.000000
0.080000 0.156000 0.000000
0.080000 0.158000 0.000000
0.078000 0.160000 0.000000
0.076000 0.160000 0.000000
0.074000 0.160000 0.000000
0.072000 0.160000 0.000000
0.070000 0.160000 0.000000
0.068000 0.160000 0.000000
0.066000 0.160000 0.000000
0.064000 0.160000 0.000000
0.062000 0.160000 0.000000
0.060000 0.160000 0.000000
0.058000 0.160000 0.000000
0.056000 0.160000 0.000000
0.054000 0.160000 0.000000
0.052000 0.160000 0.000000
0.050000 0.160000 0.000000
0.048000 0.160000 0.000000
0.046000 0.160000 0.000000
0.044000 0.160000 0.000000
0.042000 0.160000 0.000000
0.040000 0.160000 0.000000
0.038000 0.160000 0.000000
0.036000 0.160000 0.000000
0.034000 0.160000 0.000000
0.032000 0.160000 0.000000
0.030000 0.160000 0.000000
0.028000 0.160000 0.000000
0.026000 0.160000 0.000000
0.024000 0.160000 0.000000
0.022000 0.160000 0.000000
0.020000 0.160000 0.000000
0.018000 0.160000 0.000000
0.016000 0.160000 0.000000
0.014000 0.160000 0.000000
0.012000 0.160000 0.000000
0.010000 0.160000 0.000000
0.008000 0.160000 0.000000
0.006000 0.160000 0.000000
0.004000 0.160000 0.000000
0.002000 0.160000 0.000000
0.000000 0.158000 0.000000
0.000000 0.156000 0.000000
0.000000 0.154000 0.000000
0.000000 0.152000 0.000000
0.000000 0.150000 0.000000
0.000000 0.148000 0.000000
0.000000 0.146000 0.000000
0.000000 0.144000 0.000000
0.000000 0.142000 0.000000
0.000000 0.140000 0.000000
0.000000 0.138000 0.000000
0.000000 0.136000 0.000000
0.000000 0.134000 0.000000
0.000000 0.132000 0.000000
0.000000 0.130000 0.000000
0.000000 0.128000 0.000000
0.000000 0.126000 0.000000
0.000000 0.124000 0.000000
0.000000 0.122000 0.000000
0.000000 0.120000 0.000000
0.000000 0.118000 0.000000
0.000000 0.116000 0.000000
0.000000 0.114000 0.000000
0.000000 0.112000 0.000000
0.000000 0.110000 0.000000
0.000000 0.108000 0.000000
0.000000 0.106000 0.000000
0.000000 0.104000 0.000000
0.000000 0.102000 0.000000
0.000000 0.100000 0.000000
0.000000 0.098000 0.000000
0.000000 0.096000 0.000000
0.000000 0.094000 0.000000
0.000000 0.092000 0.000000
0.000000 0.090000 0.000000
0.000000 0.088000 0.000000
0.000000 0.086000 0.000000
0.000000 0.084000 0.000000
0.000000 0.082000 0.000000
0.000000 0.080000 0.000000
0.000000 0.078000 0.000000
0.000000 0.076000 0.000000
0.000000 0.074000 0.000000
0.000000 0.072000 0.000000
0.000000 0.070000 0.000000
0.000000 0.068000 0.000000
0.000000 0.066000 0.000000
0.000000 0.064000 0.000000
0.000000 0.062000 0.000000
0.000000 0.060000 0.000000
0.000000 0.058000 0.000000
0.000000 0.056000 0.000000
0.000000 0.054000 0.000000
0.000000 0.052000 0.000000
0.000000 0.050000 0.000000
0.000000 0.048000 0.000000
0.000000 0.046000 0.000000
0.000000 0.044000 0.000000
0.000000 0.042000 0.000000
0.000000 0.040000 0.000000
0.000000 0.038000 0.000000
0.000000 0.036000 0.000000
0.000000 0.034000 0.000000
0.000000 0.032000 0.000000
0.000000 0.030000 0.000000
0.000000 0.028000 0.000000
0.000000 0.026000 0.000000
0.000000 0.024000 0.000000
0.000000 0.022000 0.000000
0.000000 0.020000 0.000000
0.000000 0.018000 0.000000
0.000000 0.016000 0.000000
0.000000 0.014000 0.000000
0.000000 0.012000 0.000000
0.000000 0.010000 0.000000
0.000000 0.008000 0.000000
0.000000 0.006000 0.000000
0.000000 0.004000 0.000000
0.000000 0.002000 0.000000
0.035411 0.076518 0.000000
0.035821 0.076786 0.000000
0.036232 0.077054 0.000000
0.036643 0.077321 0.000000
0.037054 0.077589 0.000000
0.037464 0.077857 0.000000
0.037875 0.078125 0.000000
0.038286 0.078393 0.000000
0.038696 0.078661 0.000000
0.039107 0.078929 0.000000
0.039518 0.079196 0.000000
0.039929 0.079464 0.000000
0.040339 0.079732 0.000000
0.040750 0.080000 0.000000
0.041161 0.080268 0.000000
0.041571 0.080536 0.000000
0.041982 0.080804 0.000000
0.042393 0.081071 0.000000
0.042804 0.081339 0.000000
0.043214 0.081607 0.000000
0.043625 0.081875 0.000000
0.044036 0.082143 0.000000
0.044446 0.082411 0.000000
0.044857 0.082679 0.000000
0.045268 0.082946 0.000000
0.045679 0.083214 0.000000
0.046089 0.083482 0.000000
0.040000 0.002000 0.000000
0.040001 0.158005 0.000000
0.002000 0.116000 0.000000
0.078000 0.048000 0.000000
0.002000 0.106000 0.000000
0.078000 0.058000 0.000000
0.001986 0.042173 0.000000
0.078015 0.117826 0.000000
0.001985 0.094174 0.000000
0.001985 0.084174 0.000000
0.001914 0.056074 0.000000
0.002000 0.072000 0.000000
0.078015 0.065826 0.000000
0.078016 0.075826 0.000000
0.078000 0.088000 0.000000
0.078000 0.104000 0.000000
0.078003 0.029997 0.000000
0.001998 0.130002 0.000000
0.002000 0.032000 0.000000
0.078013 0.128003 0.000000
0.056000 0.158000 0.000000
0.026000 0.002000 0.000000
0.060000 0.002000 0.000000
0.020000 0.158000 0.000000
0.002000 0.020000 0.000000
0.078000 0.142000 0.000000
0.002000 0.146000 0.000000
0.078000 0.020000 0.000000
0.016000 0.002000 0.000000
0.068000 0.002000 0.000000
0.066000 0.158000 0.000000
0.002000 0.014000 0.000000
0.008000 0.158000 0.000000
0.010000 0.002000 0.000000
0.078000 0.148000 0.000000
0.078000 0.008000 0.000000
0.078005 0.037995 0.000000
0.051991 0.001990 0.000000
0.028000 0.158000 0.000000
0.002000 0.008000 0.000000
0.078000 0.094000 0.000000
0.078000 0.110000 0.000000
0.001983 0.066159 0.000000
0.002000 0.050000 0.000000
0.046000 0.158000 0.000000
0.078000 0.134000 0.000000
0.002000 0.140000 0.000000
0.006000 0.002000 0.000000
0.002000 0.154000 0.000000
0.074000 0.002000 0.000000
0.078000 0.152000 0.000000
0.074000 0.158000 0.000000
0.078000 0.080000 0.000000
0.078000 0.070000 0.000000
0.078000 0.122000 0.000000
0.002000 0.090000 0.000000
0.002000 0.080000 0.000000
0.002000 0.038000 0.000000
0.002000 0.102000 0.000000
0.002000 0.112000 0.000000
0.036000 0.002000 0.000000
0.078000 0.042000 0.000000
0.032000 0.002000 0.000000
0.047987 0.001989 0.000000
0.032008 0.158010 0.000000
0.002000 0.028000 0.000000
0.002000 0.126000 0.000000
0.060000 0.158000 0.000000
0.022000 0.002000 0.000000
0.002000 0.136000 0.000000
0.078000 0.024000 0.000000
0.012000 0.158000 0.000000
0.078000 0.158000 0.000000
0.001947 0.003947 0.000000
0.002000 0.158000 0.000000
0.078000 0.012000 0.000000
0.078000 0.096000 0.000000
0.078000 0.098000 0.000000
0.078000 0.082000 0.000000
0.078111 0.099889 0.000000
0.078035 0.083965 0.000000
0.078000 0.090000 0.000000
0.078000 0.106000 0.000000
0.078000 0.072000 0.000000
0.078000 0.112000 0.000000
0.078043 0.061976 0.000000
0.078000 0.114000 0.000000
0.002000 0.064000 0.000000
0.002000 0.062000 0.000000
0.002000 0.088000 0.000000
0.002000 0.078000 0.000000
0.002000 0.060000 0.000000
0.001966 0.076034 0.000000
0.002000 0.070000 0.000000
0.002000 0.054000 0.000000
0.001957 0.098024 0.000000
0.002000 0.048000 0.000000
0.002000 0.046000 0.000000
[...]
POINT_DATA 5510
SCALARS UX float 1
LOOKUP_TABLE default
0.242119
0.303793
0.000007
-0.061012
0.087974
0.119277
0.243706
0.245302
0.246900
0.248501
0.250091
0.251670
0.253235
0.254782
0.256309
0.257821
0.259318
0.260804
0.262284
0.263764
0.265249
0.266742
0.268243
0.269753
0.271274
0.272804
0.274343
0.275890
0.277442
0.278997
0.280555
0.282113
0.283672
0.285231
0.286789
0.288346
0.289901
0.291455
0.293009
0.294565
0.296126
0.297698
0.299287
0.300846
0.302346
0.303058
0.302446
0.301908
0.301344
0.300745
0.300148
0.299551
0.298955
0.298363
0.297774
0.297188
0.296611
0.296035
0.295469
0.294909
0.294354
0.293804
0.293259
0.292718
0.292182
0.291654
0.291127
0.290612
0.290106
0.289600
0.289121
0.288657
0.288218
0.287799
0.287408
0.287048
0.286718
0.286413
0.286143
0.285928
0.285723
0.285618
0.285550
0.285541
0.285619
0.285749
0.285984
0.286375
0.286822
0.287457
0.287180
0.285310
0.282862
0.277695
0.256034
0.229778
0.186095
0.163122
0.125132
0.088670
0.058859
0.030853
0.025031
0.019907
0.016773
0.015204
0.013683
0.012837
0.012008
0.011195
0.010424
0.009679
0.008943
0.008241
0.007564
0.006892
0.006224
0.005591
0.004966
0.004347
0.003738
0.003114
0.002418
0.001445
-0.000059
-0.001615
-0.003225
-0.004835
-0.006424
-0.008006
-0.009568
-0.011116
-0.012646
-0.014160
-0.015661
-0.017156
-0.018650
-0.020146
-0.021645
-0.023162
-0.024692
-0.026234
-0.027789
-0.029358
-0.030937
-0.032525
-0.034119
-0.035718
-0.037317
-0.038917
-0.040515
-0.042112
-0.043706
-0.045296
-0.046883
-0.048465
-0.050044
-0.051620
-0.053195
-0.054766
-0.056333
-0.057895
-0.059456
-0.060395
-0.059777
-0.059161
-0.058538
-0.057914
-0.057290
-0.056668
-0.056046
-0.055425
-0.054808
-0.054195
-0.053590
-0.052985
-0.052395
-0.051813
-0.051238
-0.050671
-0.050105
-0.049555
-0.049007
-0.048466
-0.047932
-0.047404
-0.046888
-0.046372
-0.045879
-0.045396
-0.044932
-0.044482
-0.044053
-0.043649
-0.043269
-0.042908
-0.042575
-0.042284
-0.041998
-0.041789
-0.041611
-0.041483
-0.041442
-0.041441
-0.041547
-0.041787
-0.042062
-0.042522
-0.042671
-0.042401
-0.041137
-0.040883
-0.031255
-0.020641
-0.006632
0.016762
0.068762
0.124776
0.159740
0.180232
0.195784
0.209295
0.219681
0.224806
0.229095
0.229988
0.230912
0.231769
0.232573
0.233367
0.234106
0.234828
0.235548
0.236245
0.236924
0.237595
0.238259
0.238907
0.239552
0.240195
0.240840
0.241483
0.089117
0.090446
0.091666
0.092926
0.093465
0.094487
0.095843
0.097249
0.097903
0.100040
0.101766
0.103379
0.105089
0.106725
0.108677
0.109399
0.111076
0.111549
0.112989
0.113185
0.114455
0.116007
0.116658
0.116917
0.117231
0.117656
0.118815
0.272203
-0.028742
-0.046351
0.288515
-0.043809
0.286187
0.216607
0.017062
-0.041356
-0.040100
0.004371
-0.040915
0.284844
0.284055
0.285693
0.170524
0.293331
-0.050225
0.232674
0.010337
-0.016565
0.261700
0.287735
-0.044664
0.237209
0.005277
-0.055088
0.296209
0.254168
0.293952
-0.008955
0.239231
-0.054144
0.249456
0.003360
0.299795
0.291143
0.281497
-0.038283
0.241158
0.283587
0.065593
-0.041617
0.154690
-0.024092
0.008036
-0.053222
0.246261
-0.057598
0.298598
0.002111
-0.002674
0.284189
0.284329
0.013156
-0.040691
-0.039934
0.229212
-0.042888
-0.045302
0.269160
0.290071
0.266153
0.278379
-0.035082
0.234301
-0.049079
-0.013563
0.258727
-0.051998
0.295033
-0.050996
0.000061
0.242407
-0.058842
0.298596
0.278674
0.260807
0.284397
0.237546
0.284742
0.285809
0.133633
0.284182
0.039065
0.285470
0.026750
-0.040320
-0.032117
-0.040449
-0.039995
-0.018077
-0.040208
-0.041383
0.055213
-0.042088
0.175721
0.193917
0.287055
0.289569
0.288018
-0.044796
-0.047423
0.012130
0.230721
0.275281
-0.031898
-0.027177
0.292230
-0.022568
-0.021058
-0.048521
0.264664
0.284619
-0.041478
0.235058
0.009580
0.007321
0.235777
0.006630
-0.051399
-0.019557
0.294462
-0.054465
-0.012041
0.257218
0.290845
-0.047837
0.004627
0.297397
-0.056344
0.237895
0.239877
-0.007391
0.252609
-0.005822
0.001483
-0.057281
0.244575
0.242869
0.300956
0.297055
0.301576
-0.043766
0.286976
-0.039194
-0.038580
-0.039734
-0.010813
0.170671
0.282907
0.284325
0.219889
0.282840
0.030626
-0.028117
-0.046965
0.008780
0.231013
0.265551
-0.018970
0.235953
0.005030
0.258114
-0.050417
0.293469
-0.012950
0.239529
0.253542
-0.053514
-0.006813
0.140141
0.288085
0.240850
0.000495
0.297953
0.283567
0.249366
0.279762
-0.038931
-0.026702
-0.040626
0.202801
0.285356
0.285123
0.213801
0.284108
0.284118
0.103431
0.284625
0.021038
-0.041728
-0.040278
-0.040485
-0.041071
-0.005856
-0.040021
0.101761
0.205647
0.285147
-0.041713
0.285831
-0.042495
0.286648
0.015007
-0.043378
0.223768
0.287566
-0.044334
-0.045900
0.289057
-0.046909
0.290620
-0.047985
0.273729
-0.030308
0.270670
-0.025624
0.276823
-0.033481
0.011222
0.231763
0.291686
0.267649
0.279935
-0.036679
-0.021965
0.283056
-0.039877
-0.049649
0.233493
0.008796
0.292775
0.236707
0.263180
0.006434
-0.018061
0.286175
-0.043070
0.236495
0.005954
-0.050806
0.293890
-0.052607
-0.015069
0.260217
-0.053842
0.295618
-0.010506
0.255702
-0.046253
0.289291
-0.049419
0.292399
0.003987
0.238565
-0.052571
0.296799
-0.055717
0.002740
0.297995
0.240520
0.251040
-0.056971
-0.004246
0.299198
0.000808
0.247860
0.241796
-0.055715
0.244028
0.295505
-0.001187
-0.056661
-0.058222
0.300385
0.299456
0.300112
-0.041070
0.284386
0.004611
0.276220
0.201327
0.237555
-0.036083
0.282462
-0.042444
0.288679
0.296442
-0.048790
0.002399
0.290152
0.270125
-0.051947
-0.055405
0.282684
0.017348
-0.040650
0.283749
0.283098
-0.040328
-0.039544
0.282670
0.282759
-0.038807
-0.038624
0.285233
-0.041972
0.013047
0.233346
-0.032865
0.235144
0.291199
0.007195
-0.048082
0.262583
0.259610
0.255083
0.291787
-0.052262
-0.051024
0.250414
0.242131
-0.054144
0.295244
0.294053
-0.003721
-0.000165
0.297650
0.297329
0.284178
0.284139
-0.040337
0.177571
-0.039388
0.023225
0.011284
0.126110
0.287576
0.282742
-0.038994
0.215323
0.228706
-0.044330
-0.045358
0.073837
0.103632
0.286022
0.286491
-0.042793
-0.043270
-0.029748
0.266822
0.283147
-0.046420
-0.034558
-0.038676
0.051245
0.289074
0.288565
0.186470
0.232267
0.009667
0.279327
0.267084
-0.023468
0.273184
-0.025065
0.007977
-0.047528
-0.039262
-0.017480
0.264062
0.292320
0.292889
-0.049227
-0.049818
0.004348
0.285569
0.237425
0.238862
-0.020464
0.005736
0.256609
-0.026590
-0.014460
-0.045620
-0.009900
-0.011431
-0.008359
-0.052885
0.251989
0.294888
0.240201
0.241495
0.247227
0.296429
-0.005266
0.245628
0.298853
0.001132
-0.000819
-0.056035
0.243398
-0.055093
0.230915
0.287082
-0.041541
0.017617
-0.037281
-0.038148
-0.038949
-0.025871
0.281731
0.281522
0.281854
-0.044930
0.008195
-0.018366
0.266444
0.290769
0.004156
-0.047663
0.258987
-0.010828
0.240485
0.254458
-0.050685
0.243108
0.151364
0.027159
0.058865
-0.004725
0.282715
-0.038043
0.221379
0.286176
0.256185
-0.029479
0.236720
0.233748
-0.045980
0.263458
0.251356
0.003032
-0.051941
-0.000463
0.151172
0.279539
0.033180
-0.039253
0.282645
0.283371
-0.038659
-0.039886
0.284019
-0.040658
-0.044835
0.281925
0.228489
-0.014746
0.284795
-0.041514
0.223747
-0.037388
0.014542
-0.045844
0.051534
0.099181
-0.024393
-0.029068
-0.034427
0.281380
-0.037637
0.289614
-0.042326
0.198859
0.285566
0.280864
0.268570
0.271618
0.277742
0.011699
0.010654
0.290681
0.234276
0.285067
-0.015962
0.291765
-0.037672
-0.048649
0.003441
0.006435
-0.021369
0.261095
0.238151
-0.041853
-0.042898
0.284016
-0.040853
0.291342
0.292498
0.238303
-0.048254
-0.049452
-0.013841
-0.009301
0.005633
0.287125
-0.044034
-0.051641
0.255990
-0.031298
0.294646
0.241818
0.003686
-0.047205
0.290234
-0.007775
0.293339
0.295840
0.295806
0.248823
0.001761
-0.054775
0.297046
0.244999
-0.050371
0.296714
0.298250
0.242765
-0.001744
-0.002243
-0.054467
-0.053522
0.274695
0.087903
-0.040081
-0.036491
0.016851
0.275298
-0.023935
-0.046123
0.004931
0.275629
0.289240
0.238245
-0.035476
0.281860
0.289621
-0.010216
-0.041820
0.255345
0.294291
0.283235
-0.046576
0.295185
-0.049740
0.209130
-0.039948
0.288617
0.002605
0.062590
0.281355
-0.037486
-0.039093
-0.038336
0.282456
0.281851
0.269531
-0.047099
-0.015357
0.239778
0.260475
0.293094
0.002109
0.243740
-0.052896
0.126133
0.281376
-0.037541
0.228570
0.047871
-0.038340
0.282880
0.022347
-0.040504
0.283732
0.284756
-0.007611
0.286598
-0.041115
-0.043919
-0.043348
-0.044417
0.281680
-0.037222
0.282060
0.009142
0.011564
-0.037537
0.267926
-0.032261
-0.030598
0.269437
-0.035659
0.281464
-0.037812
0.123727
0.232526
0.290209
0.287592
0.181739
0.278724
0.015066
-0.046532
-0.045442
0.272548
-0.016878
-0.042310
0.239047
0.261971
0.007303
0.264934
-0.037069
0.235844
0.234830
0.285512
0.211571
0.291916
0.283414
-0.019861
0.289138
-0.022872
-0.048847
-0.050066
0.004894
0.002778
0.239873
-0.043408
0.286516
0.241158
0.257490
0.292726
-0.012336
0.252915
-0.008709
0.242463
-0.038649
0.001455
0.000171
0.294271
0.295500
0.296106
0.248197
0.249783
0.244372
0.246600
-0.051312
-0.006251
-0.052573
-0.053837
-0.027527
-0.003234
-0.001109
0.285606
0.281943
-0.036199
-0.036201
0.208717
0.013069
0.280047
0.280735
0.268840
-0.034903
0.281276
-0.041207
-0.016269
-0.009610
-0.048504
0.242757
-0.042538
0.000552
0.232694
0.262847
0.283301
0.280516
-0.036933
0.244074
0.252281
0.249152
-0.050370
-0.052266
-0.028481
0.263104
0.125978
0.281344
0.278058
-0.036775
-0.036869
-0.031920
0.284770
0.067047
0.173110
0.288708
0.003359
0.280236
0.259850
0.290378
0.256853
0.245344
-0.001402
-0.004188
-0.025433
-0.043442
-0.044473
-0.045566
0.233941
0.182132
-0.042014
0.028530
0.014824
-0.021658
0.282095
-0.038652
-0.039546
-0.038677
-0.039475
0.282797
0.284359
0.013165
0.010303
0.279992
-0.036233
0.051502
-0.022438
-0.020759
0.234046
-0.030142
0.005779
0.007708
0.236361
-0.033877
-0.040439
0.226103
0.288108
0.280298
-0.014722
0.277177
0.004133
0.274053
0.240632
0.283633
0.289810
0.265827
-0.041400
-0.047295
-0.046707
0.237332
0.293690
-0.040230
0.284964
0.239079
0.001906
0.253820
0.291550
-0.013220
-0.011718
-0.019257
0.289660
-0.036469
-0.044989
0.291172
-0.049122
0.288067
0.241381
0.000812
0.293652
0.293960
0.294895
-0.007201
-0.048160
-0.002674
0.294570
0.247568
0.245973
-0.051320
-0.053206
0.271032
-0.036029
0.096908
0.281263
-0.037305
0.234448
-0.038296
0.281892
-0.034908
-0.035019
0.266187
0.278793
-0.023356
0.004326
0.239749
-0.044053
-0.034319
0.287182
0.001106
0.256207
0.285911
-0.046951
-0.028052
0.242183
-0.045949
0.220173
0.011183
-0.037395
-0.038235
0.280805
0.281517
0.282191
-0.020161
-0.015598
0.008792
0.271959
0.286592
0.275040
-0.045170
0.288287
-0.039638
0.253175
-0.000759
0.289010
0.292110
-0.051635
-0.004969
-0.036024
0.279944
0.013214
0.280894
0.280782
-0.036967
0.231169
-0.036143
-0.036920
0.280410
0.019342
0.285132
0.282707
0.097092
0.084434
0.033598
0.194425
0.039098
-0.032383
0.235192
0.280151
0.006765
-0.036498
-0.038696
-0.038994
0.270338
0.287632
-0.045021
0.288160
0.279725
0.159152
0.220476
0.002637
0.286095
0.280358
0.276613
0.237914
-0.040884
-0.043927
-0.038040
0.261338
0.001225
0.292149
0.293356
-0.012595
0.258347
0.240607
-0.047898
-0.033324
-0.031711
0.267313
0.243418
0.284061
-0.011100
-0.000108
0.290960
-0.017759
-0.049743
-0.008118
0.242073
0.250722
-0.047532
-0.050692
0.248518
0.282815
-0.051002
-0.042783
0.292424
0.293036
0.244710
-0.003598
-0.002047
0.246937
-0.005690
0.264333
-0.026961
-0.042941
-0.036020
-0.036341
0.150139
-0.016169
0.280076
0.249916
-0.037789
0.281140
0.150945
0.281356
0.284117
-0.037201
0.279839
0.207613
-0.031618
0.067270
0.271241
0.241248
0.263724
0.279153
-0.041166
-0.011968
0.290029
-0.040591
0.244336
-0.036494
-0.035674
0.279239
-0.000984
0.291819
-0.045330
-0.048179
-0.034802
0.279100
0.014422
0.283321
0.279533
0.279785
0.275652
0.280613
0.281481
0.236907
-0.026532
-0.035094
-0.041984
-0.017088
-0.046346
0.260710
0.257705
-0.009001
0.250085
-0.005115
0.268235
-0.034881
0.278841
-0.035423
0.014098
0.251797
0.107469
0.049708
0.232994
0.229343
-0.037442
0.021310
-0.037854
0.108009
0.067059
0.009946
0.235609
-0.024883
0.118101
0.278819
-0.021654
0.005262
-0.035189
0.011380
-0.024866
0.007339
-0.031205
-0.029582
-0.042982
0.286131
0.187934
-0.018662
0.003469
0.278155
0.241395
0.284596
-0.039063
0.273468
-0.044596
0.282216
-0.045754
0.287724
-0.037462
-0.035876
-0.039986
0.238785
-0.014084
0.001867
0.287095
0.284360
-0.035002
0.278769
0.245005
0.247878
-0.043509
0.254693
-0.001660
-0.002964
-0.044360
-0.047563
0.251640
0.290558
0.292751
0.000402
0.226475
0.288860
-0.006622
0.287461
0.290894
-0.050063
0.245661
0.242931
0.291501
0.246303
-0.049111
0.265229
-0.049431
0.280682
0.286644
-0.032770
0.162752
0.239713
0.134694
-0.036150
0.279541
0.011704
0.280349
-0.035369
0.235170
0.282627
-0.034800
0.278193
-0.033645
0.268793
0.277732
0.165236
-0.025817
0.003788
-0.041534
-0.019658
-0.032205
0.264627
0.285150
-0.043649
0.278569
0.257052
0.000384
0.243690
-0.045407
0.277823
-0.034228
0.245892
-0.002523
0.286777
0.252522
0.285308
0.290288
0.285625
-0.035319
-0.043747
0.291218
0.249437
0.247233
-0.047865
0.218178
-0.033388
0.279203
-0.035702
0.278865
0.232518
0.278798
-0.034728
-0.040486
-0.036163
0.281023
0.283671
-0.037068
0.101796
0.075545
-0.036731
0.186419
0.279134
0.280236
0.006277
0.009678
0.008339
0.274407
-0.021362
-0.042495
-0.027487
0.272730
-0.015827
-0.025682
0.285084
0.001981
-0.029114
-0.034832
-0.041494
-0.017981
0.276024
-0.037420
0.255324
0.277590
0.277600
-0.033718
0.280565
-0.034912
0.240212
0.237995
-0.042543
0.106238
-0.000298
-0.044229
-0.014951
0.285685
-0.039494
0.262219
0.289440
0.282630
0.259195
-0.042163
0.290622
-0.013455
0.289946
0.255549
0.243638
-0.046010
-0.010480
-0.004500
-0.046906
-0.001089
0.286860
0.242089
-0.002311
0.278843
0.219953
-0.039028
-0.006021
-0.007517
-0.048489
-0.048802
0.282214
0.266724
0.236200
0.269733
0.277608
-0.033929
0.131790
0.024755
-0.022788
0.279671
-0.002129
0.037934
0.279310
-0.035862
0.277779
0.232254
0.010431
-0.035434
0.018415
-0.035328
0.237046
-0.035825
-0.033013
-0.033928
0.276611
-0.031146
0.093504
0.258533
-0.025443
0.241813
-0.018911
0.283654
-0.042155
0.256389
-0.012825
0.009225
-0.043870
-0.039984
-0.043141
0.270642
-0.008783
0.284721
0.180496
-0.035171
0.278068
-0.034635
0.281964
0.217935
0.283640
0.277814
0.261585
-0.008375
0.245179
0.258547
0.134611
0.287921
0.248784
-0.005373
-0.047239
-0.046294
0.230444
0.284625
-0.034028
0.007902
-0.036252
0.013982
0.282223
0.277860
-0.034357
-0.035317
0.279066
0.279408
0.239010
0.053710
0.278213
-0.020734
-0.033597
0.280281
0.004729
-0.040575
-0.039838
-0.039075
-0.033598
0.272535
0.283110
-0.027081
0.002877
0.277669
0.242892
0.277030
0.136200
-0.001803
0.277560
-0.033776
-0.026591
0.273941
-0.042037
-0.037718
0.280839
0.244450
-0.033745
0.031641
0.001177
0.278552
0.263104
0.287345
-0.038593
0.289692
-0.003189
-0.016455
0.283755
-0.043096
-0.011339
0.250982
-0.046620
0.246565
0.286219
-0.003853
-0.000367
0.289359
-0.044806
0.242744
0.267646
0.266126
0.254037
0.078083
0.288509
-0.036871
0.288401
0.280090
0.235345
-0.041032
0.036924
-0.024303
-0.030668
0.278299
0.277812
0.237358
0.189634
0.006822
-0.034032
0.273738
0.234287
0.016474
0.280545
-0.041090
0.230142
-0.035649
0.280653
-0.034178
0.277380
-0.032449
-0.027438
0.276985
0.276551
0.117390
-0.025077
0.003234
-0.039235
0.271554
0.265523
0.243367
0.277985
-0.033211
0.285278
-0.000301
-0.012194
0.245175
-0.002575
-0.033999
-0.037696
-0.019825
0.040050
0.203685
0.239483
0.281789
0.283144
-0.023943
-0.040085
0.011961
0.016936
0.257891
0.277012
0.246694
0.253374
0.286410
0.262466
0.283169
-0.043283
0.250317
0.287822
0.267542
0.234558
0.276493
-0.032960
-0.015285
0.279804
0.202815
0.240759
0.005887
0.276392
0.276420
-0.032520
-0.032739
-0.033578
0.116271
-0.040197
-0.032418
-0.022329
0.001367
0.276644
0.276877
-0.033446
-0.036097
-0.041092
-0.003308
-0.004710
0.061125
0.061966
0.275451
-0.041609
0.242066
0.010642
0.010512
0.281623
-0.042720
0.260046
-0.038133
-0.030116
-0.034941
0.289100
-0.045679
0.152770
-0.041548
-0.006875
0.286257
-0.014315
0.281220
-0.017357
0.288171
-0.044707
0.254881
-0.038421
0.284190
0.288762
0.248114
-0.009856
-0.001073
0.243569
-0.044465
-0.034743
0.237962
0.226197
0.277954
0.269148
0.284128
-0.028597
0.178595
-0.032116
-0.033748
0.008514
0.275975
0.006614
0.236153
0.011081
-0.039753
-0.033724
-0.035125
0.279087
0.236151
-0.031316
0.112952
0.261018
0.182265
0.275328
0.043927
0.281670
-0.030219
-0.032648
-0.039636
-0.041214
-0.001762
0.257239
0.197704
-0.004067
0.282590
0.278545
0.001168
-0.040941
-0.009215
-0.032801
-0.021187
0.148491
0.004281
0.275399
-0.042338
-0.013690
-0.006204
-0.044119
0.249639
0.287581
0.254213
0.282650
-0.028038
0.238789
0.225931
-0.023863
0.280547
0.277946
0.005153
0.272862
0.242451
0.276830
-0.038468
-0.031359
0.089998
-0.034462
-0.033871
0.281300
-0.034553
0.002323
0.225584
0.276373
-0.032598
0.244375
0.046409
-0.039627
0.276919
0.027083
0.273104
0.274890
0.245859
0.145881
0.276508
-0.036403
-0.021119
-0.031629
0.000530
0.245951
0.285691
0.285847
0.263990
-0.031844
-0.040576
-0.033527
0.277013
0.275443
0.260921
0.286992
0.251851
-0.015820
0.247418
-0.032416
-0.045070
-0.004018
0.279482
0.259386
-0.001827
0.012768
-0.037238
-0.010700
0.286648
0.282168
0.282185
-0.037842
-0.036283
0.267049
0.244252
0.231054
0.233540
0.287232
0.284727
0.279501
-0.040139
0.276472
0.238903
-0.032314
-0.026556
0.270073
-0.018293
0.011989
-0.038371
-0.038843
0.007506
0.006975
0.009205
0.278090
-0.032929
0.276674
-0.033186
0.006097
-0.032629
0.276234
-0.022616
-0.030192
0.275727
0.248882
-0.024806
0.266463
0.280199
0.244041
0.272823
0.277406
-0.038204
0.283789
-0.013062
0.279717
-0.032869
-0.037825
-0.036347
0.246706
0.012181
0.206551
-0.010058
0.274865
0.120141
0.060326
-0.003292
0.279322
-0.031124
0.251148
0.285129
0.284916
0.286075
0.263369
-0.005520
-0.043524
-0.035722
0.005005
0.001705
0.008849
0.275605
-0.032119
-0.013515
0.275456
0.275379
0.167192
-0.032486
0.278205
0.280292
0.281176
0.214350
0.227604
0.241126
0.269000
0.003058
0.271016
-0.033066
0.154970
0.000762
-0.000960
-0.002523
0.072007
0.278943
-0.038690
0.275253
0.275283
-0.031605
-0.039158
-0.031390
-0.032273
0.275734
-0.029546
-0.034840
-0.007716
0.027808
0.252702
-0.042492
0.248219
-0.040666
-0.036807
-0.004781
-0.042916
0.248950
0.281033
0.261820
0.258748
0.138960
0.029356
-0.016739
-0.015189
-0.034177
0.284135
-0.037118
0.239660
0.255716
0.268552
-0.041764
0.245047
0.282700
0.244926
0.274377
-0.039383
0.279818
-0.033866
0.237948
-0.032756
-0.026051
-0.019352
-0.031231
-0.031598
-0.031034
0.008497
0.235282
0.230380
0.276972
0.275723
-0.032194
-0.022506
0.275817
-0.031837
-0.031013
0.104853
0.274263
0.139337
0.001274
-0.023997
0.245646
0.270683
0.262727
0.258103
-0.032121
-0.002444
-0.030050
0.032521
-0.039715
0.240486
0.277307
0.278106
0.000178
0.165935
0.260940
-0.032732
0.197120
0.274211
-0.029791
-0.004793
-0.006273
-0.038798
-0.040821
0.253524
0.249736
0.284562
0.280500
0.279724
0.278520
-0.041988
0.237895
0.267968
-0.027339
-0.031389
-0.030788
0.007386
0.274396
0.274511
0.188675
0.224194
-0.015336
0.275578
-0.031259
0.278931
0.087857
0.063779
-0.033099
0.242950
0.275338
0.021746
0.018628
-0.008586
0.275245
-0.031476
0.000098
-0.030230
0.245844
-0.037530
-0.031422
0.277711
-0.037254
-0.029094
-0.027525
0.276722
-0.000104
-0.035121
-0.035906
0.271582
-0.038668
0.247439
-0.038245
0.285498
0.233590
0.278928
0.283247
0.264908
-0.032459
0.280719
0.240541
-0.016106
-0.017719
0.275876
-0.033636
0.260280
-0.011547
-0.033354
0.256575
0.269455
0.251975
0.279049
-0.037255
0.280705
-0.014584
0.245772
-0.007004
-0.003225
0.250451
0.283607
0.275893
0.003670
0.284345
-0.037732
0.151031
0.272302
0.005309
-0.020764
0.009508
-0.036752
0.233382
0.006844
-0.023657
0.005747
-0.023217
0.029497
0.238939
-0.000361
-0.035863
0.270298
0.278276
-0.031586
0.276845
-0.017063
-0.003943
-0.035019
-0.032014
0.257449
-0.012428
0.282292
0.229665
0.244502
0.276134
0.274254
0.267214
0.090234
0.003136
0.275538
-0.031702
0.265918
0.013366
0.247377
-0.035913
-0.036692
-0.027074
0.248967
0.283045
0.279286
-0.036744
0.259629
-0.001624
0.274231
-0.030052
-0.029964
0.277925
0.272909
-0.030007
-0.022594
0.212219
0.178862
-0.004256
0.055032
0.109506
-0.032052
0.167133
0.274235
0.001863
0.021271
-0.029075
-0.036444
-0.030289
-0.030423
0.274149
0.274096
0.246536