# vtk DataFile Version 2.0
Test
ASCII
DATASET POLYDATA
POINTS 5510 float
0.000000 0.000000 0.000000
0.080000 0.000000 0.000000
0.080000 0.160000 0.000000
0.000000 0.160000 0.000000
0.035000 0.076250 0.000000
0.046500 0.083750 0.000000
0.002000 0.000000 0.000000
0.004000 0.000000 0.000000
0.006000 0.000000 0.000000
0.008000 0.000000 0.000000
0.010000 0.000000 0.000000
0.012000 0.000000 0.000000
0.014000 0.000000 0.000000
0.016000 0.000000 0.000000
0.018000 0.000000 0.000000
0.020000 0.000000 0.000000
0.022000 0.000000 0.000000
0.024000 0.000000 0.000000
0.026000 0.000000 0.000000
0.028000 0.000000 0.000000
0.030000 0.000000 0.000000
0.032000 0.000000 0.000000
0.034000 0.000000 0.000000
0.036000 0.000000 0.000000
0.038000 0.000000 0.000000
0.040000 0.000000 0.000000
0.042000 0.000000 0.000000
0.044000 0.000000 0.000000
0.046000 0.000000 0.000000
0.048000 0.000000 0.000000
0.050000 0.000000 0.000000
0.052000 0.000000 0.000000
0.054000 0.000000 0.000000
0.056000 0.000000 0.000000
0.058000 0.000000 0.000000
0.060000 0.000000 0.000000
0.062000 0.000000 0.000000
0.064000 0.000000 0.000000
0.066000 0.000000 0.000000
0.068000 0.000000 0.000000
0.070000 0.000000 0.000000
0.072000 0.000000 0.000000
0.074000 0.000000 0.000000
0.076000 0.000000 0.000000
0.078000 0.000000 0.000000
0.080000 0.002000 0.000000
0.080000 0.004000 0.000000
0.080000 0.006000 0.000000
0.080000 0.008000 0.000000
0.080000 0.010000 0.000000
0.080000 0.012000 0.000000
0.080000 0.014000 0.000000
0.080000 0.016000 0.000000
0.080000 0.018000 0.000000
0.080000 0.020000 0.000000
0.080000 0.022000 0.000000
0.080000 0.024000 0.000000
0.080000 0.026000 0.000000
0.080000 0.028000 0.000000
0.080000 0.030000 0.000000
0.080000 0.032000 0.000000
0.080000 0.034000 0.000000
0.080000 0.036000 0.000000
0.080000 0.038000 0.000000
0.080000 0.040000 0.000000
0.080000 0.042000 0.000000
0.080000 0.044000 0.000000
0.080000 0.046000 0.000000
0.080000 0.048000 0.000000
0.080000 0.050000 0.000000
0.080000 0.052000 0.000000
0.080000 0.054000 0.000000
0.080000 0.056000 0.000000
0.080000 0.058000 0.000000
0.080000 0.060000 0.000000
0.080000 0.062000 0.000000
0.080000 0.064000 0.000000
0.080000 0.066000 0.000000
0.080000 0.068000 0.000000
0.080000 0.070000 0.000000
0.080000 0.072000 0.000000
0.080000 0.074000 0.000000
0.080000 0.076000 0.000000
0.080000 0.078000 0.000000
0.080000 0.080000 0.000000
0.080000 0.082000 0.000000
0.080000 0.084000 0.000000
0.080000 0.086000 0.000000
0.080000 0.088000 0.000000
0.080000 0.090000 0.000000
0.080000 0.092000 0.000000
0.080000 0.094000 0.000000
0.080000 0.096000 0.000000
0.080000 0.098000 0.000000
0.080000 0.100000 0.000000
0.080000 0.102000 0.000000
0.080000 0.104000 0.000000
0.080000 0.106000 0.000000
0.080000 0.108000 0.000000
0.080000 0.110000 0.000000
0.080000 0.112000 0.000000
0.080000 0.114000 0.000000
0.080000 0.116000 0.000000
0.080000 0.118000 0.000000
0.080000 0.120000 0.000000
0.080000 0.122000 0.000000
0.080000 0.124000 0.000000
0.080000 0.126000 0.000000
0.080000 0.128000 0.000000
0.080000 0.130000 0.000000
0.080000 0.132000 0.000000
0.080000 0.134000 0.000000
0.080000 0.136000 0.000000
0.080000 0.138000 0.000000
0.080000 0.140000 0.000000
0.080000 0.142000 0.000000
0.080000 0.144000 0.000000
0.080000 0.146000 0.000000
0.080000 0.148000 0.000000
0.080000 0.150000 0.000000
0.080000 0.152000 0.000000
0.080000 0.154000 0.000000
0.080000 0.156000 0.000000
0.080000 0.158000 0.000000
0.078000 0.160000 0.000000
0.076000 0.160000 0.000000
0.074000 0.160000 0.000000
0.072000 0.160000 0.000000
0.070000 0.160000 0.000000
0.068000 0.160000 0.000000
0.066000 0.160000 0.000000
0.064000 0.160000 0.000000
0.062000 0.160000 0.000000
0.060000 0.160000 0.000000
0.058000 0.160000 0.000000
0.056000 0.160000 0.000000
0.054000 0.160000 0.000000
0.052000 0.160000 0.000000
0.050000 0.160000 0.000000
0.048000 0.160000 0.000000
0.046000 0.160000 0.000000
0.044000 0.160000 0.000000
0.042000 0.160000 0.000000
0.040000 0.160000 0.000000
0.038000 0.160000 0.000000
0.036000 0.160000 0.000000
0.034000 0.160000 0.000000
0.032000 0.160000 0.000000
0.030000 0.160000 0.000000
0.028000 0.160000 0.000000
0.026000 0.160000 0.000000
0.024000 0.160000 0.000000
0.022000 0.160000 0.000000
0.020000 0.160000 0.000000
0.018000 0.160000 0.000000
0.016000 0.160000 0.000000
0.014000 0.160000 0.000000
0.012000 0.160000 0.000000
0.010000 0.160000 0.000000
0.008000 0.160000 0.000000
0.006000 0.160000 0.000000
0.004000 0.160000 0.000000
0.002000 0.160000 0.000000
0.000000 0.158000 0.000000
0.000000 0.156000 0.000000
0.000000 0.154000 0.000000
0.000000 0.152000 0.000000
0.000000 0.150000 0.000000
0.000000 0.148000 0.000000
0.000000 0.146000 0.000000
0.000000 0.144000 0.000000
0.000000 0.142000 0.000000
0.000000 0.140000 0.000000
0.000000 0.138000 0.000000
0.000000 0.136000 0.000000
0.000000 0.134000 0.000000
0.000000 0.132000 0.000000
0.000000 0.130000 0.000000
0.000000 0.128000 0.000000
0.000000 0.126000 0.000000
0.000000 0.124000 0.000000
0.000000 0.122000 0.000000
0.000000 0.120000 0.000000
0.000000 0.118000 0.000000
0.000000 0.116000 0.000000
0.000000 0.114000 0.000000
0.000000 0.112000 0.000000
0.000000 0.110000 0.000000
0.000000 0.108000 0.000000
0.000000 0.106000 0.000000
0.000000 0.104000 0.000000
0.000000 0.102000 0.000000
0.000000 0.100000 0.000000
0.000000 0.098000 0.000000
0.000000 0.096000 0.000000
0.000000 0.094000 0.000000
0.000000 0.092000 0.000000
0.000000 0.090000 0.000000
0.000000 0.088000 0.000000
0.000000 0.086000 0.000000
0.000000 0.084000 0.000000
0.000000 0.082000 0.000000
0.000000 0.080000 0.000000
0.000000 0.078000 0.000000
0.000000 0.076000 0.000000
0.000000 0.074000 0.000000
0.000000 0.072000 0.000000
0.000000 0.070000 0.000000
0.000000 0.068000 0.000000
0.000000 0.066000 0.000000
0.000000 0.064000 0.000000
0.000000 0.062000 0.000000
0.000000 0.060000 0.000000
0.000000 0.058000 0.000000
0.000000 0.056000 0.000000
0.000000 0.054000 0.000000
0.000000 0.052000 0.000000
0.000000 0.050000 0.000000
0.000000 0.048000 0.000000
0.000000 0.046000 0.000000
0.000000 0.044000 0.000000
0.000000 0.042000 0.000000
0.000000 0.040000 0.000000
0.000000 0.038000 0.000000
0.000000 0.036000 0.000000
0.000000 0.034000 0.000000
0.000000 0.032000 0.000000
0.000000 0.030000 0.000000
0.000000 0.028000 0.000000
0.000000 0.026000 0.000000
0.000000 0.024000 0.000000
0.000000 0.022000 0.000000
0.000000 0.020000 0.000000
0.000000 0.018000 0.000000
0.000000 0.016000 0.000000
0.000000 0.014000 0.000000
0.000000 0.012000 0.000000
0.000000 0.010000 0.000000
0.000000 0.008000 0.000000
0.000000 0.006000 0.000000
0.000000 0.004000 0.000000
0.000000 0.002000 0.000000
0.035411 0.076518 0.000000
0.035821 0.076786 0.000000
0.036232 0.077054 0.000000
0.036643 0.077321 0.000000
0.037054 0.077589 0.000000
0.037464 0.077857 0.000000
0.037875 0.078125 0.000000
0.038286 0.078393 0.000000
0.038696 0.078661 0.000000
0.039107 0.078929 0.000000
0.039518 0.079196 0.000000
0.039929 0.079464 0.000000
0.040339 0.079732 0.000000
0.040750 0.080000 0.000000
0.041161 0.080268 0.000000
0.041571 0.080536 0.000000
0.041982 0.080804 0.000000
0.042393 0.081071 0.000000
0.042804 0.081339 0.000000
0.043214 0.081607 0.000000
0.043625 0.081875 0.000000
0.044036 0.082143 0.000000
0.044446 0.082411 0.000000
0.044857 0.082679 0.000000
0.045268 0.082946 0.000000
0.045679 0.083214 0.000000
0.046089 0.083482 0.000000
0.040000 0.002000 0.000000
0.040001 0.158005 0.000000
0.002000 0.116000 0.000000
0.078000 0.048000 0.000000
0.002000 0.106000 0.000000
0.078000 0.058000 0.000000
0.001986 0.042173 0.000000
0.078015 0.117826 0.000000
0.001985 0.094174 0.000000
0.001985 0.084174 0.000000
0.001914 0.056074 0.000000
0.002000 0.072000 0.000000
0.078015 0.065826 0.000000
0.078016 0.075826 0.000000
0.078000 0.088000 0.000000
0.078000 0.104000 0.000000
0.078003 0.029997 0.000000
0.001998 0.130002 0.000000
0.002000 0.032000 0.000000
0.078013 0.128003 0.000000
0.056000 0.158000 0.000000
0.026000 0.002000 0.000000
0.060000 0.002000 0.000000
0.020000 0.158000 0.000000
0.002000 0.020000 0.000000
0.078000 0.142000 0.000000
0.002000 0.146000 0.000000
0.078000 0.020000 0.000000
0.016000 0.002000 0.000000
0.068000 0.002000 0.000000
0.066000 0.158000 0.000000
0.002000 0.014000 0.000000
0.008000 0.158000 0.000000
0.010000 0.002000 0.000000
0.078000 0.148000 0.000000
0.078000 0.008000 0.000000
0.078005 0.037995 0.000000
0.051991 0.001990 0.000000
0.028000 0.158000 0.000000
0.002000 0.008000 0.000000
0.078000 0.094000 0.000000
0.078000 0.110000 0.000000
0.001983 0.066159 0.000000
0.002000 0.050000 0.000000
0.046000 0.158000 0.000000
0.078000 0.134000 0.000000
0.002000 0.140000 0.000000
0.006000 0.002000 0.000000
0.002000 0.154000 0.000000
0.074000 0.002000 0.000000
0.078000 0.152000 0.000000
0.074000 0.158000 0.000000
0.078000 0.080000 0.000000
0.078000 0.070000 0.000000
0.078000 0.122000 0.000000
0.002000 0.090000 0.000000
0.002000 0.080000 0.000000
0.002000 0.038000 0.000000
0.002000 0.102000 0.000000
0.002000 0.112000 0.000000
0.036000 0.002000 0.000000
0.078000 0.042000 0.000000
0.032000 0.002000 0.000000
0.047987 0.001989 0.000000
0.032008 0.158010 0.000000
0.002000 0.028000 0.000000
0.002000 0.126000 0.000000
0.060000 0.158000 0.000000
0.022000 0.002000 0.000000
0.002000 0.136000 0.000000
0.078000 0.024000 0.000000
0.012000 0.158000 0.000000
0.078000 0.158000 0.000000
0.001947 0.003947 0.000000
0.002000 0.158000 0.000000
0.078000 0.012000 0.000000
0.078000 0.096000 0.000000
0.078000 0.098000 0.000000
0.078000 0.082000 0.000000
0.078111 0.099889 0.000000
0.078035 0.083965 0.000000
0.078000 0.090000 0.000000
0.078000 0.106000 0.000000
0.078000 0.072000 0.000000
0.078000 0.112000 0.000000
0.078043 0.061976 0.000000
0.078000 0.114000 0.000000
0.002000 0.064000 0.000000
0.002000 0.062000 0.000000
0.002000 0.088000 0.000000
0.002000 0.078000 0.000000
0.002000 0.060000 0.000000
0.001966 0.076034 0.000000
0.002000 0.070000 0.000000
0.002000 0.054000 0.000000
0.001957 0.098024 0.000000
0.002000 0.048000 0.000000
0.002000 0.046000 0.000000
[...]
POINT_DATA 5510
SCALARS UX float 1
LOOKUP_TABLE default
-0.009623
0.010737
0.000000
-0.019949
-0.006061
-0.002826
-0.009111
-0.008600
-0.008089
-0.007577
-0.007066
-0.006555
-0.006044
-0.005534
-0.005024
-0.004515
-0.004005
-0.003497
-0.002989
-0.002481
-0.001974
-0.001467
-0.000960
-0.000454
0.000052
0.000558
0.001064
0.001570
0.002076
0.002582
0.003088
0.003594
0.004101
0.004608
0.005116
0.005624
0.006133
0.006642
0.007152
0.007663
0.008174
0.008686
0.009198
0.009711
0.010224
0.010614
0.010491
0.010369
0.010247
0.010125
0.010004
0.009884
0.009764
0.009644
0.009524
0.009406
0.009288
0.009171
0.009054
0.008939
0.008825
0.008713
0.008601
0.008491
0.008382
0.008274
0.008167
0.008061
0.007956
0.007852
0.007748
0.007644
0.007540
0.007435
0.007328
0.007220
0.007110
0.006998
0.006883
0.006765
0.006645
0.006519
0.006389
0.006255
0.006115
0.005972
0.005822
0.005664
0.005501
0.005333
0.005158
0.004978
0.004796
0.004612
0.004429
0.004248
0.004073
0.003899
0.003735
0.003577
0.003425
0.003275
0.003135
0.002997
0.002863
0.002733
0.002603
0.002477
0.002352
0.002229
0.002107
0.001985
0.001864
0.001743
0.001624
0.001504
0.001384
0.001265
0.001146
0.001029
0.000912
0.000796
0.000665
0.000456
-0.000003
-0.000540
-0.001069
-0.001593
-0.002111
-0.002627
-0.003142
-0.003655
-0.004167
-0.004679
-0.005189
-0.005699
-0.006208
-0.006717
-0.007225
-0.007733
-0.008240
-0.008747
-0.009253
-0.009760
-0.010266
-0.010772
-0.011279
-0.011785
-0.012292
-0.012799
-0.013306
-0.013814
-0.014322
-0.014830
-0.015339
-0.015849
-0.016360
-0.016871
-0.017382
-0.017895
-0.018408
-0.018921
-0.019435
-0.019825
-0.019702
-0.019580
-0.019458
-0.019337
-0.019216
-0.019096
-0.018977
-0.018857
-0.018739
-0.018621
-0.018504
-0.018387
-0.018272
-0.018158
-0.018045
-0.017933
-0.017822
-0.017712
-0.017603
-0.017495
-0.017388
-0.017282
-0.017176
-0.017071
-0.016966
-0.016861
-0.016755
-0.016648
-0.016540
-0.016429
-0.016317
-0.016203
-0.016086
-0.015966
-0.015845
-0.015718
-0.015587
-0.015453
-0.015313
-0.015171
-0.015023
-0.014867
-0.014706
-0.014543
-0.014371
-0.014196
-0.014018
-0.013839
-0.013659
-0.013482
-0.013308
-0.013136
-0.012972
-0.012813
-0.012656
-0.012510
-0.012367
-0.012227
-0.012090
-0.011958
-0.011827
-0.011700
-0.011574
-0.011449
-0.011326
-0.011203
-0.011081
-0.010960
-0.010838
-0.010717
-0.010596
-0.010475
-0.010354
-0.010233
-0.010112
-0.009990
-0.009868
-0.009745
-0.005933
-0.005806
-0.005632
-0.005462
-0.005328
-0.005231
-0.005125
-0.005008
-0.004930
-0.004817
-0.004719
-0.004640
-0.004533
-0.004427
-0.004300
-0.004177
-0.004058
-0.003934
-0.003824
-0.003745
-0.003658
-0.003573
-0.003472
-0.003376
-0.003258
-0.003125
-0.002995
0.000437
-0.009638
-0.016870
0.007438
-0.016348
0.006924
-0.011718
0.002488
-0.015713
-0.015103
-0.012806
-0.014200
0.006508
0.005906
0.004995
0.003540
0.008422
-0.017640
-0.011056
0.001837
-0.005577
-0.003111
0.005502
-0.014708
-0.010325
0.000990
-0.018581
0.009009
-0.005657
0.007540
-0.003020
-0.009963
-0.017771
-0.007189
0.000632
0.009733
0.007973
0.003471
-0.012677
-0.009600
0.004460
0.003046
-0.013698
-0.012282
-0.008118
0.001469
-0.018223
-0.008212
-0.019066
0.009074
0.000393
-0.000965
0.005617
0.006265
0.002210
-0.015466
-0.014814
-0.011436
-0.016138
-0.016660
-0.000576
0.007754
-0.001589
0.002457
-0.011662
-0.010809
-0.017414
-0.004556
-0.004128
-0.017987
0.008771
-0.016748
-0.000010
-0.009367
-0.019311
0.009490
0.004274
0.004087
0.005471
0.003940
0.005330
0.004821
0.003369
0.006144
0.002895
0.006725
0.002749
-0.013498
-0.013316
-0.015343
-0.014670
-0.013133
-0.014529
-0.014031
-0.012607
-0.015935
-0.012129
-0.011983
0.007130
0.007654
0.007335
-0.016556
-0.017084
0.002084
-0.011307
0.001448
-0.010651
-0.009132
0.008196
-0.007611
-0.007103
-0.017303
-0.002096
0.004486
-0.013692
-0.010687
0.001715
0.001349
-0.010566
0.001229
-0.017870
-0.006595
0.008654
-0.018461
-0.004045
-0.004637
0.006520
-0.015727
0.000870
0.009249
-0.018823
-0.010204
-0.009842
-0.002506
-0.006167
-0.001993
0.000274
-0.018797
-0.008758
-0.009316
0.009977
0.008562
0.010100
-0.016157
0.006935
-0.014980
-0.014340
-0.013706
-0.012639
-0.011772
0.005145
0.004501
0.003451
0.005780
0.002400
-0.009509
-0.016792
0.001320
-0.010928
-0.001713
-0.006477
-0.010295
0.000716
-0.004250
-0.017471
0.008255
-0.004435
-0.009692
-0.005779
-0.018066
-0.002391
0.003027
0.007169
-0.009451
-0.000124
0.008951
0.004862
0.003586
0.003956
-0.014060
-0.012815
-0.013176
-0.011488
0.004674
0.005189
0.003753
0.005788
0.006034
0.003233
0.006410
0.002624
-0.013888
-0.015231
-0.014391
-0.015612
-0.012969
-0.014984
-0.012457
-0.011855
0.006617
-0.015825
0.006831
-0.016043
0.007038
0.002376
-0.016254
-0.011603
0.007243
-0.016462
-0.016783
0.007551
-0.016984
0.007867
-0.017198
0.000939
-0.010141
-0.000072
-0.008623
0.001951
-0.011154
0.001965
-0.011187
0.008084
-0.001084
0.002963
-0.012168
-0.007486
0.003978
-0.013183
-0.017527
-0.010934
0.001592
0.008308
-0.010174
-0.002603
0.000956
-0.006086
0.004993
-0.014199
-0.010446
0.001110
-0.017755
0.008537
-0.018104
-0.005067
-0.003619
-0.018342
0.008889
-0.003533
-0.005147
-0.015217
0.006010
-0.016237
0.007029
0.000751
-0.010084
-0.017259
0.009128
-0.018702
0.000513
0.009369
-0.009721
-0.006678
-0.018944
-0.001478
0.009611
0.000144
-0.007700
-0.009478
-0.018284
-0.008845
0.008051
-0.000462
-0.018674
-0.019188
0.009855
0.009464
0.009587
-0.015578
0.006365
-0.012180
0.001827
0.002950
-0.009784
-0.012055
0.003861
-0.014078
0.005888
0.008855
-0.016114
0.000237
0.007578
-0.000178
-0.017136
-0.018430
0.004184
0.002128
-0.013397
0.006177
0.005915
-0.015384
-0.015120
0.005549
0.005296
-0.014745
-0.014492
0.006577
-0.015793
0.001866
-0.010674
-0.011031
-0.010420
0.007790
0.001079
-0.017014
-0.002725
-0.003742
-0.005269
0.006907
-0.017826
-0.017588
-0.006800
-0.009209
-0.018187
0.008614
0.008373
-0.001371
-0.000250
0.009098
0.008829
0.004328
0.004680
-0.013537
0.003269
-0.013880
0.002290
-0.012454
-0.011956
0.007073
0.005670
-0.014868
-0.011362
-0.011073
-0.016277
-0.016477
0.002696
0.002867
0.006741
0.006838
-0.015961
-0.016059
-0.010035
0.003789
0.005005
-0.016687
-0.013007
-0.014201
0.002552
0.007357
0.007257
-0.011641
-0.010803
0.001450
0.002841
-0.001195
-0.007987
0.000833
-0.008515
0.001201
-0.016905
-0.013064
-0.005971
-0.002220
0.008020
0.008137
-0.017238
-0.017354
0.000596
0.004873
-0.010055
-0.009811
-0.006982
0.000837
-0.004758
-0.009013
-0.004945
-0.015095
-0.003413
-0.003925
-0.002902
-0.017946
-0.006289
0.007928
-0.009571
-0.009330
-0.007822
0.008439
-0.001880
-0.008334
0.009342
-0.000003
-0.000377
-0.018552
-0.008967
-0.018161
-0.010572
0.006763
-0.015536
0.001766
-0.014024
-0.014665
-0.013089
-0.008850
0.005468
0.004848
0.003835
-0.016192
0.000945
-0.006356
-0.001333
0.007508
0.000327
-0.016725
-0.003865
-0.003807
-0.009299
-0.005390
-0.017312
-0.008818
-0.011476
-0.012004
0.002243
-0.001768
0.004267
-0.013486
-0.010880
0.006606
0.003315
-0.012551
-0.009910
-0.010300
-0.016396
-0.002343
-0.006411
0.000356
-0.017552
-0.000516
0.002754
0.003701
0.002084
-0.012927
0.005425
0.006037
-0.014620
-0.015243
0.006262
-0.015472
-0.016372
0.004538
0.003085
-0.012351
0.006470
-0.015685
-0.011250
-0.013732
0.001965
-0.016572
-0.012258
-0.012008
-0.008366
-0.009885
-0.011529
0.005233
-0.014430
0.007467
-0.015861
-0.011162
0.006642
0.003341
-0.000696
0.000318
0.002325
0.001716
0.001584
0.007686
-0.010547
0.006361
-0.005455
0.007907
-0.012559
-0.017125
0.000203
0.000692
-0.007364
-0.003234
-0.009935
-0.015585
-0.015811
0.004366
-0.013571
0.007626
0.007859
-0.009665
-0.016842
-0.017074
-0.004824
-0.003295
0.000567
0.005380
-0.014587
-0.017707
-0.004879
-0.010531
0.008493
-0.009059
0.000477
-0.015604
0.006397
-0.002785
0.007417
0.008734
0.008317
-0.007311
0.000117
-0.018308
0.008976
-0.008456
-0.016625
0.008707
0.009219
-0.009088
-0.000760
-0.000869
-0.018038
-0.017648
0.001329
0.002391
-0.015056
-0.012479
-0.011729
0.003283
-0.008286
-0.016218
0.000188
0.001707
0.007002
-0.009404
-0.011934
0.003740
0.006274
-0.003686
-0.013957
-0.005003
0.008220
0.005972
-0.015482
0.008194
-0.016502
0.002658
-0.015187
0.007072
-0.000185
-0.011857
0.004926
-0.014185
-0.014972
-0.014739
0.005761
0.005536
-0.000300
-0.016615
-0.005337
-0.009424
-0.003359
0.007980
-0.000035
-0.008698
-0.017526
-0.011582
0.005146
-0.014343
-0.010704
0.001832
-0.013338
0.004061
0.001916
-0.015313
0.006086
0.006311
-0.011949
0.006674
-0.015444
-0.016008
-0.015897
-0.016091
0.004675
-0.013863
0.004326
0.001069
0.001375
-0.013544
-0.000834
-0.010909
-0.010377
0.003468
-0.012686
0.005331
-0.014529
0.002558
-0.010433
0.007396
0.006865
-0.011304
0.002718
0.001644
-0.016505
-0.016290
0.000697
-0.005852
-0.015675
-0.009546
-0.002849
0.000817
-0.001842
-0.012442
-0.010036
-0.010170
0.006449
-0.011026
0.007742
0.004246
-0.006859
0.007178
-0.007864
-0.016957
-0.017193
0.000448
0.000085
-0.009159
-0.014465
0.005259
-0.009180
-0.004372
0.007294
-0.004316
-0.005901
-0.003178
-0.008939
-0.012945
-0.000156
-0.000396
0.007805
0.008463
0.008585
-0.007433
-0.006921
-0.008577
-0.007944
-0.017432
-0.002276
-0.017673
-0.017916
-0.009389
-0.001263
-0.000638
0.006272
0.005533
-0.013898
-0.013360
-0.010709
-0.011448
0.004704
0.004187
-0.000455
-0.011822
0.003623
-0.013838
-0.005734
-0.003568
-0.016681
-0.008670
-0.015536
-0.000544
-0.010079
-0.002465
0.005829
0.005073
-0.014270
-0.008428
-0.006022
-0.007043
-0.017039
-0.017404
-0.009763
0.003069
0.002310
0.003807
0.003408
-0.013033
-0.012617
-0.012288
0.006138
0.001941
-0.011035
0.006896
-0.000059
0.004415
-0.003480
0.007231
-0.004496
-0.008186
-0.000907
-0.001654
-0.008776
-0.015698
-0.015898
-0.016110
0.002865
0.002502
-0.015439
0.001616
0.001297
-0.012103
0.005639
-0.014845
-0.014943
-0.014753
-0.015071
0.005858
0.006223
0.001508
0.001224
0.004783
-0.013975
-0.011553
-0.007794
-0.007240
-0.009936
-0.010298
0.000311
0.000578
-0.009662
-0.011425
-0.015113
-0.010429
0.006969
0.003231
-0.005212
0.002213
0.000065
0.001192
-0.009040
0.005881
0.007117
-0.001461
-0.015312
-0.016447
-0.016333
-0.009535
0.008100
-0.013449
0.004751
-0.009280
-0.000304
-0.005513
0.007469
-0.004703
-0.004194
-0.006739
0.007283
-0.012322
-0.014972
0.006783
-0.016800
0.005765
-0.008912
-0.000275
0.007683
0.007951
0.008342
-0.002669
-0.015992
-0.001147
0.008073
-0.007554
-0.008065
-0.017013
-0.017795
0.000197
-0.013590
-0.011703
0.004996
-0.014191
-0.009591
-0.014510
0.005352
-0.012201
-0.013522
0.002822
0.004301
-0.008167
-0.000183
-0.008901
-0.015610
-0.011704
0.006390
-0.000687
-0.004618
0.005137
-0.016171
-0.009689
-0.008534
-0.015360
0.002475
0.001061
-0.014432
-0.014652
0.005224
0.005429
0.005574
-0.007119
-0.005596
0.000733
0.000576
0.006468
0.001587
-0.015826
0.006611
-0.013335
-0.005634
-0.000786
0.006152
0.007172
-0.017282
-0.011595
-0.013764
0.004556
0.001202
0.003587
0.003985
-0.012780
-0.010257
-0.013158
-0.014280
0.005076
0.001492
0.006186
0.005698
0.002117
-0.011423
0.001391
-0.010839
-0.011270
-0.012038
-0.009807
0.004904
0.000453
-0.014101
-0.014587
-0.014811
0.000041
0.006678
-0.016005
0.006785
0.003117
0.002062
-0.010560
-0.000437
0.006369
0.004273
0.002101
-0.009160
-0.015201
-0.015790
-0.012824
-0.002976
-0.000423
0.007588
0.007830
-0.004582
-0.003990
-0.008775
-0.016564
-0.011317
-0.010801
-0.000963
-0.008549
0.005964
-0.004074
-0.000666
0.007349
-0.006236
-0.016919
-0.003061
-0.008790
-0.006533
-0.015870
-0.016892
-0.007165
0.004125
-0.017161
-0.014343
0.007440
0.007561
-0.008307
-0.001536
-0.001027
-0.007675
-0.002161
-0.001963
-0.009272
-0.015601
-0.013450
-0.013799
-0.011142
-0.011709
0.004500
0.002960
-0.014538
0.005328
0.002343
0.003980
0.005776
-0.014130
0.004890
-0.010406
-0.011776
-0.010820
0.000410
-0.008404
-0.002085
0.003002
-0.015070
-0.004461
0.006961
-0.013716
-0.008160
-0.014101
-0.013860
0.004660
-0.001051
0.007319
-0.015240
-0.016408
-0.013168
0.004028
0.000975
0.005655
0.003768
0.003392
0.003126
0.005082
0.005268
-0.009299
-0.009199
-0.012963
-0.015213
-0.006096
-0.016054
-0.003098
-0.004112
-0.003449
-0.006654
-0.002044
-0.000583
-0.013405
0.004217
-0.012578
-0.011152
0.002635
0.001837
0.001468
-0.009815
-0.010049
-0.014329
0.001129
-0.014418
-0.010962
-0.011162
0.000867
-0.009445
-0.011861
-0.011290
0.004461
-0.007608
-0.000041
-0.013670
0.000757
-0.008659
0.000257
-0.010704
-0.010182
-0.015402
0.006179
0.002228
-0.006621
-0.000309
0.002604
-0.008658
0.005872
-0.014651
0.001072
-0.015714
0.005404
-0.015940
0.006497
-0.012711
-0.012203
-0.014841
-0.009058
-0.005086
-0.000560
0.006569
0.004630
-0.013568
0.004377
-0.008039
-0.007286
-0.015505
-0.005127
-0.001175
-0.001417
-0.014849
-0.016289
-0.006143
0.006660
0.007709
-0.000807
-0.010071
0.006726
-0.002553
0.005644
0.006931
-0.016770
-0.007917
-0.008407
0.007051
-0.007796
-0.016380
-0.001581
-0.016649
0.003502
0.006282
-0.011206
-0.010752
0.002561
0.001984
-0.014015
0.004806
0.001064
0.003660
-0.012338
-0.009273
0.005280
-0.013560
0.004352
-0.012995
0.002620
0.003845
0.001791
-0.009030
-0.000528
-0.014919
-0.007026
-0.011090
-0.001703
0.005783
-0.015323
0.002883
-0.004235
-0.001060
-0.008033
-0.015664
0.004181
-0.013378
-0.007652
-0.001562
0.006107
-0.005755
0.005015
0.006811
0.006078
-0.012093
-0.014730
0.007199
-0.006777
-0.007407
-0.016140
0.002120
-0.011937
0.004673
-0.013877
0.003192
-0.009619
0.003242
-0.012677
-0.014946
-0.013892
0.005170
0.005699
-0.014246
-0.010705
0.001665
-0.014021
-0.010632
0.003866
0.004992
0.000101
0.000608
0.000389
0.001450
-0.007580
-0.015310
-0.009570
0.000900
-0.011450
-0.011591
0.005969
-0.000806
-0.010094
-0.013039
-0.015119
-0.006476
0.001980
-0.014153
0.002402
0.002492
0.003910
-0.013093
0.004900
-0.013327
-0.008571
-0.008893
-0.015109
0.001545
-0.000927
-0.015436
-0.005467
0.005890
-0.014736
-0.002590
0.006843
0.005484
-0.003609
-0.014221
0.007080
-0.004964
0.006537
-0.004741
-0.008284
-0.015781
-0.003954
-0.001925
-0.015748
-0.001308
0.005524
-0.008280
-0.001295
0.004090
-0.010238
-0.013214
-0.002436
-0.002944
-0.016260
-0.016528
0.004003
-0.001083
-0.009117
-0.000086
0.004065
-0.013258
-0.010927
0.001013
-0.008049
0.003586
-0.011230
-0.010983
0.004725
-0.013931
0.003133
-0.009855
0.000661
-0.012438
0.001186
-0.012738
-0.008794
-0.013669
-0.012979
-0.012555
0.003783
-0.011544
-0.010412
0.002180
-0.008970
-0.008061
-0.006857
0.005282
-0.014827
-0.004359
-0.004842
0.000239
-0.015160
-0.013595
-0.014612
0.000283
-0.011087
0.004897
-0.010338
-0.013654
0.004313
-0.013521
0.005200
-0.009966
0.005484
0.003593
-0.002715
-0.003330
-0.007779
-0.003733
-0.010528
0.006336
-0.006899
-0.002311
-0.016018
-0.015630
-0.009617
0.005679
-0.012313
0.000118
-0.013951
0.000726
0.005216
0.004228
-0.013434
-0.013556
0.004606
0.004659
-0.008741
0.001221
0.003399
-0.007446
-0.012761
0.004852
-0.000380
-0.014739
-0.014619
-0.014478
-0.012885
0.000904
0.005377
-0.009499
-0.000668
0.003698
-0.008160
0.002379
0.001645
-0.001431
0.003984
-0.013168
-0.011356
0.001366
-0.015014
-0.014197
0.004937
-0.007906
-0.011586
-0.010747
-0.000931
0.004451
-0.002209
0.006221
-0.014377
0.006692
-0.001682
-0.005970
0.004507
-0.015216
-0.004340
-0.006268
-0.015899
-0.007531
0.005995
-0.001804
-0.001185
0.006423
-0.015547
-0.007913
-0.000704
-0.001206
-0.005249
0.001400
0.006455
-0.012592
0.006030
0.003380
0.002226
-0.014824
0.001071
-0.008541
-0.010595
0.003243
0.002948
-0.008935
0.001962
-0.000077
-0.012087
0.002733
-0.009378
0.000764
0.003520
-0.015091
-0.010305
-0.013780
0.004682
-0.013154
0.004049
-0.012605
-0.011151
0.003014
0.003457
0.001251
-0.008911
-0.000856
-0.014288
0.000649
-0.001330
-0.007574
0.002761
-0.011480
0.005605
-0.001426
-0.004720
-0.007536
-0.001808
-0.013256
-0.014018
-0.007213
0.000808
0.001703
-0.008457
0.004927
0.005182
-0.008487
-0.014434
0.000540
0.000572
-0.003857
0.002854
-0.007277
-0.005370
0.005833
-0.002338
0.004389
-0.015045
-0.006391
0.005916
0.002337
-0.009197
0.003764
-0.012967
-0.011108
0.004738
-0.010152
-0.008230
-0.000203
0.003525
0.003677
-0.012709
-0.012869
-0.012599
-0.010361
-0.014679
-0.012491
-0.007966
-0.001156
0.003225
0.003909
-0.013120
-0.013704
-0.014624
-0.001935
-0.002189
0.001003
-0.010560
0.001862
-0.014722
0.002011
-0.010853
0.000408
0.003882
-0.014937
-0.003230
-0.014279
-0.010480
-0.013472
0.006574
-0.015511
-0.010544
-0.014098
-0.002819
0.005401
-0.005341
0.005010
-0.006349
0.006186
-0.015117
-0.004865
-0.013091
0.005389
0.006304
-0.007022
-0.003835
-0.001552
-0.007789
-0.015276
-0.011975
-0.008646
-0.009790
0.003478
-0.000208
0.005580
-0.009989
0.001597
-0.011667
-0.012096
0.000166
0.002834
-0.000263
-0.008927
0.000301
-0.014646
-0.012349
-0.013569
0.004590
-0.008804
-0.012169
-0.010043
0.001961
0.001317
0.003100
0.000566
0.004687
-0.011291
-0.011363
-0.014138
-0.014439
-0.001912
-0.003978
-0.009879
-0.002307
0.004271
0.004305
-0.010697
-0.013977
-0.003715
-0.012178
-0.007659
-0.010162
-0.000659
0.002601
-0.014658
-0.005219
-0.002693
-0.015005
-0.006516
0.006068
-0.004986
0.005086
-0.009870
-0.008336
-0.009505
-0.008521
0.004725
0.004188
-0.000557
0.001080
-0.007728
0.003115
-0.014160
-0.012278
0.001129
-0.013378
-0.013096
0.004823
-0.013230
-0.001001
0.001866
0.003603
-0.012788
-0.007666
-0.010375
-0.014351
0.002871
0.000663
0.002484
0.001744
0.001795
0.001381
0.003326
-0.013753
-0.010998
-0.010969
-0.001289
-0.007406
0.005290
0.005720
-0.001835
-0.012592
-0.014526
-0.013126
0.003944
0.003397
-0.002849
0.005950
-0.005880
-0.005842
-0.007147
-0.012382
-0.015393
-0.002063
0.004476
-0.003359
-0.001679
0.000860
-0.013922
-0.004217
0.005682
0.004783
0.004997
-0.012976
-0.012472
-0.000828
-0.007426
-0.009290
-0.009154
0.005799
0.005495
0.003258
-0.014232
0.002265
-0.008499
-0.011740
-0.009390
0.000165
-0.006726
0.000370
-0.014186
-0.014225
-0.000196
-0.000260
0.000045
0.004271
-0.011949
0.003838
-0.013043
-0.000560
-0.012661
0.003648
-0.010790
-0.011846
0.002648
0.001589
-0.008877
-0.000948
0.004191
-0.007251
0.001136
0.002640
-0.013658
0.005106
-0.005096
0.004318
-0.012871
-0.013814
-0.013566
-0.007028
0.000122
0.001457
-0.004098
0.002454
0.000978
0.000679
-0.002171
0.004471
-0.010869
-0.006012
0.005179
0.005334
0.005568
-0.001962
-0.002568
-0.014889
-0.012359
-0.000704
-0.001326
-0.000080
0.003474
-0.012681
-0.010862
0.002871
0.002996
-0.010153
-0.012272
0.004232
0.004433
0.004591
-0.009715
0.001625
-0.007974
0.002112
-0.001057
0.000539
-0.012763
0.001186
-0.001480
-0.001774
-0.002039
-0.010216
0.004398
-0.013964
0.003172
0.003308
-0.012498
-0.014050
-0.012354
-0.012718
0.003512
-0.010358
-0.013276
-0.003205
-0.010442
-0.005491
-0.014478
-0.006769
-0.014332
-0.013833
-0.002432
-0.014770
-0.006640
0.003760
-0.002470
-0.003480
-0.009960
0.000409
-0.006221
-0.005714
-0.011859
0.004779
-0.013707
-0.008188
-0.004484
-0.000333
-0.014544
-0.007303
0.004889
-0.007093
0.001647
-0.013474
0.004537
-0.013135
-0.008472
-0.012005
-0.009285
-0.007120
-0.012043
-0.011615
-0.011430
-0.000036
-0.008781
-0.009073
0.003879
0.003508
-0.012710
-0.008085
0.003470
-0.012355
-0.012301
-0.009797
0.002582
0.000820
-0.001548
-0.008668
-0.006776
0.000500
-0.002095
-0.003602
-0.011256
-0.002253
-0.011716
0.000176
-0.013943
-0.007882
0.003875
0.004009
-0.010400
-0.009741
0.001724
-0.012741
0.001125
0.002774
-0.011211
-0.002668
-0.002932
-0.013356
-0.014159
-0.005112
-0.006265
0.005066
0.003656
0.004101
0.003895
-0.014390
-0.008376
-0.000455
-0.010933
-0.011813
-0.012237
-0.000339
0.003044
0.003093
-0.009674
-0.009259
-0.010636
0.002762
-0.011924
0.004118
0.000818
-0.009996
-0.012916
-0.007483
0.002518
-0.010248
0.000273
-0.003604
0.003246
-0.012429
-0.001786
-0.011934
-0.007176
-0.013779
-0.011672
0.003966
-0.013481
-0.010272
-0.009763
0.003753
-0.001626
-0.013318
-0.013474
0.002187
-0.013741
-0.006908
-0.013886
0.005451
0.001441
0.003140
0.004997
-0.001458
-0.012758
0.004505
-0.008038
-0.006088
-0.006608
0.003545
-0.011748
-0.002975
-0.004595
-0.012815
-0.004103
0.000028
-0.005628
0.004215
-0.012855
0.004290
-0.005594
-0.006944
-0.003069
-0.002392
-0.006137
0.004678
0.002144
-0.000987
0.005218
-0.013572
-0.009591
0.001032
-0.000700
-0.007591
-0.000039
-0.013648
-0.008902
-0.000429
-0.008507
-0.000702
-0.010591
-0.009947
0.001255
-0.001990
-0.013013
0.000436
0.003611
-0.011144