# vtk DataFile Version 2.0
Test
ASCII
DATASET POLYDATA
POINTS 5510 float
0.000000 0.000000 0.000000
0.080000 0.000000 0.000000
0.080000 0.160000 0.000000
0.000000 0.160000 0.000000
0.035000 0.076250 0.000000
0.046500 0.083750 0.000000
0.002000 0.000000 0.000000
0.004000 0.000000 0.000000
0.006000 0.000000 0.000000
0.008000 0.000000 0.000000
0.010000 0.000000 0.000000
0.012000 0.000000 0.000000
0.014000 0.000000 0.000000
0.016000 0.000000 0.000000
0.018000 0.000000 0.000000
0.020000 0.000000 0.000000
0.022000 0.000000 0.000000
0.024000 0.000000 0.000000
0.026000 0.000000 0.000000
0.028000 0.000000 0.000000
0.030000 0.000000 0.000000
0.032000 0.000000 0.000000
0.034000 0.000000 0.000000
0.036000 0.000000 0.000000
0.038000 0.000000 0.000000
0.040000 0.000000 0.000000
0.042000 0.000000 0.000000
0.044000 0.000000 0.000000
0.046000 0.000000 0.000000
0.048000 0.000000 0.000000
0.050000 0.000000 0.000000
0.052000 0.000000 0.000000
0.054000 0.000000 0.000000
0.056000 0.000000 0.000000
0.058000 0.000000 0.000000
0.060000 0.000000 0.000000
0.062000 0.000000 0.000000
0.064000 0.000000 0.000000
0.066000 0.000000 0.000000
0.068000 0.000000 0.000000
0.070000 0.000000 0.000000
0.072000 0.000000 0.000000
0.074000 0.000000 0.000000
0.076000 0.000000 0.000000
0.078000 0.000000 0.000000
0.080000 0.002000 0.000000
0.080000 0.004000 0.000000
0.080000 0.006000 0.000000
0.080000 0.008000 0.000000
0.080000 0.010000 0.000000
0.080000 0.012000 0.000000
0.080000 0.014000 0.000000
0.080000 0.016000 0.000000
0.080000 0.018000 0.000000
0.080000 0.020000 0.000000
0.080000 0.022000 0.000000
0.080000 0.024000 0.000000
0.080000 0.026000 0.000000
0.080000 0.028000 0.000000
0.080000 0.030000 0.000000
0.080000 0.032000 0.000000
0.080000 0.034000 0.000000
0.080000 0.036000 0.000000
0.080000 0.038000 0.000000
0.080000 0.040000 0.000000
0.080000 0.042000 0.000000
0.080000 0.044000 0.000000
0.080000 0.046000 0.000000
0.080000 0.048000 0.000000
0.080000 0.050000 0.000000
0.080000 0.052000 0.000000
0.080000 0.054000 0.000000
0.080000 0.056000 0.000000
0.080000 0.058000 0.000000
0.080000 0.060000 0.000000
0.080000 0.062000 0.000000
0.080000 0.064000 0.000000
0.080000 0.066000 0.000000
0.080000 0.068000 0.000000
0.080000 0.070000 0.000000
0.080000 0.072000 0.000000
0.080000 0.074000 0.000000
0.080000 0.076000 0.000000
0.080000 0.078000 0.000000
0.080000 0.080000 0.000000
0.080000 0.082000 0.000000
0.080000 0.084000 0.000000
0.080000 0.086000 0.000000
0.080000 0.088000 0.000000
0.080000 0.090000 0.000000
0.080000 0.092000 0.000000
0.080000 0.094000 0.000000
0.080000 0.096000 0.000000
0.080000 0.098000 0.000000
0.080000 0.100000 0.000000
0.080000 0.102000 0.000000
0.080000 0.104000 0.000000
0.080000 0.106000 0.000000
0.080000 0.108000 0.000000
0.080000 0.110000 0.000000
0.080000 0.112000 0.000000
0.080000 0.114000 0.000000
0.080000 0.116000 0.000000
0.080000 0.118000 0.000000
0.080000 0.120000 0.000000
0.080000 0.122000 0.000000
0.080000 0.124000 0.000000
0.080000 0.126000 0.000000
0.080000 0.128000 0.000000
0.080000 0.130000 0.000000
0.080000 0.132000 0.000000
0.080000 0.134000 0.000000
0.080000 0.136000 0.000000
0.080000 0.138000 0.000000
0.080000 0.140000 0.000000
0.080000 0.142000 0.000000
0.080000 0.144000 0.000000
0.080000 0.146000 0.000000
0.080000 0.148000 0.000000
0.080000 0.150000 0.000000
0.080000 0.152000 0.000000
0.080000 0.154000 0.000000
0.080000 0.156000 0.000000
0.080000 0.158000 0.000000
0.078000 0.160000 0.000000
0.076000 0.160000 0.000000
0.074000 0.160000 0.000000
0.072000 0.160000 0.000000
0.070000 0.160000 0.000000
0.068000 0.160000 0.000000
0.066000 0.160000 0.000000
0.064000 0.160000 0.000000
0.062000 0.160000 0.000000
0.060000 0.160000 0.000000
0.058000 0.160000 0.000000
0.056000 0.160000 0.000000
0.054000 0.160000 0.000000
0.052000 0.160000 0.000000
0.050000 0.160000 0.000000
0.048000 0.160000 0.000000
0.046000 0.160000 0.000000
0.044000 0.160000 0.000000
0.042000 0.160000 0.000000
0.040000 0.160000 0.000000
0.038000 0.160000 0.000000
0.036000 0.160000 0.000000
0.034000 0.160000 0.000000
0.032000 0.160000 0.000000
0.030000 0.160000 0.000000
0.028000 0.160000 0.000000
0.026000 0.160000 0.000000
0.024000 0.160000 0.000000
0.022000 0.160000 0.000000
0.020000 0.160000 0.000000
0.018000 0.160000 0.000000
0.016000 0.160000 0.000000
0.014000 0.160000 0.000000
0.012000 0.160000 0.000000
0.010000 0.160000 0.000000
0.008000 0.160000 0.000000
0.006000 0.160000 0.000000
0.004000 0.160000 0.000000
0.002000 0.160000 0.000000
0.000000 0.158000 0.000000
0.000000 0.156000 0.000000
0.000000 0.154000 0.000000
0.000000 0.152000 0.000000
0.000000 0.150000 0.000000
0.000000 0.148000 0.000000
0.000000 0.146000 0.000000
0.000000 0.144000 0.000000
0.000000 0.142000 0.000000
0.000000 0.140000 0.000000
0.000000 0.138000 0.000000
0.000000 0.136000 0.000000
0.000000 0.134000 0.000000
0.000000 0.132000 0.000000
0.000000 0.130000 0.000000
0.000000 0.128000 0.000000
0.000000 0.126000 0.000000
0.000000 0.124000 0.000000
0.000000 0.122000 0.000000
0.000000 0.120000 0.000000
0.000000 0.118000 0.000000
0.000000 0.116000 0.000000
0.000000 0.114000 0.000000
0.000000 0.112000 0.000000
0.000000 0.110000 0.000000
0.000000 0.108000 0.000000
0.000000 0.106000 0.000000
0.000000 0.104000 0.000000
0.000000 0.102000 0.000000
0.000000 0.100000 0.000000
0.000000 0.098000 0.000000
0.000000 0.096000 0.000000
0.000000 0.094000 0.000000
0.000000 0.092000 0.000000
0.000000 0.090000 0.000000
0.000000 0.088000 0.000000
0.000000 0.086000 0.000000
0.000000 0.084000 0.000000
0.000000 0.082000 0.000000
0.000000 0.080000 0.000000
0.000000 0.078000 0.000000
0.000000 0.076000 0.000000
0.000000 0.074000 0.000000
0.000000 0.072000 0.000000
0.000000 0.070000 0.000000
0.000000 0.068000 0.000000
0.000000 0.066000 0.000000
0.000000 0.064000 0.000000
0.000000 0.062000 0.000000
0.000000 0.060000 0.000000
0.000000 0.058000 0.000000
0.000000 0.056000 0.000000
0.000000 0.054000 0.000000
0.000000 0.052000 0.000000
0.000000 0.050000 0.000000
0.000000 0.048000 0.000000
0.000000 0.046000 0.000000
0.000000 0.044000 0.000000
0.000000 0.042000 0.000000
0.000000 0.040000 0.000000
0.000000 0.038000 0.000000
0.000000 0.036000 0.000000
0.000000 0.034000 0.000000
0.000000 0.032000 0.000000
0.000000 0.030000 0.000000
0.000000 0.028000 0.000000
0.000000 0.026000 0.000000
0.000000 0.024000 0.000000
0.000000 0.022000 0.000000
0.000000 0.020000 0.000000
0.000000 0.018000 0.000000
0.000000 0.016000 0.000000
0.000000 0.014000 0.000000
0.000000 0.012000 0.000000
0.000000 0.010000 0.000000
0.000000 0.008000 0.000000
0.000000 0.006000 0.000000
0.000000 0.004000 0.000000
0.000000 0.002000 0.000000
0.035411 0.076518 0.000000
0.035821 0.076786 0.000000
0.036232 0.077054 0.000000
0.036643 0.077321 0.000000
0.037054 0.077589 0.000000
0.037464 0.077857 0.000000
0.037875 0.078125 0.000000
0.038286 0.078393 0.000000
0.038696 0.078661 0.000000
0.039107 0.078929 0.000000
0.039518 0.079196 0.000000
0.039929 0.079464 0.000000
0.040339 0.079732 0.000000
0.040750 0.080000 0.000000
0.041161 0.080268 0.000000
0.041571 0.080536 0.000000
0.041982 0.080804 0.000000
0.042393 0.081071 0.000000
0.042804 0.081339 0.000000
0.043214 0.081607 0.000000
0.043625 0.081875 0.000000
0.044036 0.082143 0.000000
0.044446 0.082411 0.000000
0.044857 0.082679 0.000000
0.045268 0.082946 0.000000
0.045679 0.083214 0.000000
0.046089 0.083482 0.000000
0.040000 0.002000 0.000000
0.040001 0.158005 0.000000
0.002000 0.116000 0.000000
0.078000 0.048000 0.000000
0.002000 0.106000 0.000000
0.078000 0.058000 0.000000
0.001986 0.042173 0.000000
0.078015 0.117826 0.000000
0.001985 0.094174 0.000000
0.001985 0.084174 0.000000
0.001914 0.056074 0.000000
0.002000 0.072000 0.000000
0.078015 0.065826 0.000000
0.078016 0.075826 0.000000
0.078000 0.088000 0.000000
0.078000 0.104000 0.000000
0.078003 0.029997 0.000000
0.001998 0.130002 0.000000
0.002000 0.032000 0.000000
0.078013 0.128003 0.000000
0.056000 0.158000 0.000000
0.026000 0.002000 0.000000
0.060000 0.002000 0.000000
0.020000 0.158000 0.000000
0.002000 0.020000 0.000000
0.078000 0.142000 0.000000
0.002000 0.146000 0.000000
0.078000 0.020000 0.000000
0.016000 0.002000 0.000000
0.068000 0.002000 0.000000
0.066000 0.158000 0.000000
0.002000 0.014000 0.000000
0.008000 0.158000 0.000000
0.010000 0.002000 0.000000
0.078000 0.148000 0.000000
0.078000 0.008000 0.000000
0.078005 0.037995 0.000000
0.051991 0.001990 0.000000
0.028000 0.158000 0.000000
0.002000 0.008000 0.000000
0.078000 0.094000 0.000000
0.078000 0.110000 0.000000
0.001983 0.066159 0.000000
0.002000 0.050000 0.000000
0.046000 0.158000 0.000000
0.078000 0.134000 0.000000
0.002000 0.140000 0.000000
0.006000 0.002000 0.000000
0.002000 0.154000 0.000000
0.074000 0.002000 0.000000
0.078000 0.152000 0.000000
0.074000 0.158000 0.000000
0.078000 0.080000 0.000000
0.078000 0.070000 0.000000
0.078000 0.122000 0.000000
0.002000 0.090000 0.000000
0.002000 0.080000 0.000000
0.002000 0.038000 0.000000
0.002000 0.102000 0.000000
0.002000 0.112000 0.000000
0.036000 0.002000 0.000000
0.078000 0.042000 0.000000
0.032000 0.002000 0.000000
0.047987 0.001989 0.000000
0.032008 0.158010 0.000000
0.002000 0.028000 0.000000
0.002000 0.126000 0.000000
0.060000 0.158000 0.000000
0.022000 0.002000 0.000000
0.002000 0.136000 0.000000
0.078000 0.024000 0.000000
0.012000 0.158000 0.000000
0.078000 0.158000 0.000000
0.001947 0.003947 0.000000
0.002000 0.158000 0.000000
0.078000 0.012000 0.000000
0.078000 0.096000 0.000000
0.078000 0.098000 0.000000
0.078000 0.082000 0.000000
0.078111 0.099889 0.000000
0.078035 0.083965 0.000000
0.078000 0.090000 0.000000
0.078000 0.106000 0.000000
0.078000 0.072000 0.000000
0.078000 0.112000 0.000000
0.078043 0.061976 0.000000
0.078000 0.114000 0.000000
0.002000 0.064000 0.000000
0.002000 0.062000 0.000000
0.002000 0.088000 0.000000
0.002000 0.078000 0.000000
0.002000 0.060000 0.000000
0.001966 0.076034 0.000000
0.002000 0.070000 0.000000
0.002000 0.054000 0.000000
0.001957 0.098024 0.000000
0.002000 0.048000 0.000000
0.002000 0.046000 0.000000
[...]
POINT_DATA 5510
SCALARS UX float 1
LOOKUP_TABLE default
-0.000577
0.045291
0.000001
-0.044983
-0.002406
0.003453
0.000571
0.001720
0.002869
0.004020
0.005171
0.006322
0.007473
0.008625
0.009776
0.010928
0.012078
0.013228
0.014376
0.015524
0.016670
0.017815
0.018959
0.020101
0.021243
0.022384
0.023523
0.024662
0.025801
0.026939
0.028077
0.029215
0.030354
0.031493
0.032633
0.033774
0.034917
0.036061
0.037207
0.038355
0.039505
0.040657
0.041812
0.042971
0.044130
0.044749
0.044211
0.043678
0.043144
0.042617
0.042090
0.041568
0.041047
0.040528
0.040011
0.039495
0.038984
0.038474
0.037967
0.037463
0.036961
0.036461
0.035962
0.035463
0.034964
0.034463
0.033963
0.033460
0.032954
0.032449
0.031936
0.031419
0.030897
0.030372
0.029842
0.029308
0.028772
0.028233
0.027692
0.027147
0.026603
0.026054
0.025503
0.024950
0.024394
0.023836
0.023273
0.022700
0.022118
0.021529
0.020910
0.020269
0.019613
0.018922
0.018191
0.017460
0.016728
0.015998
0.015302
0.014632
0.013993
0.013361
0.012774
0.012194
0.011627
0.011074
0.010523
0.009982
0.009443
0.008905
0.008371
0.007837
0.007304
0.006771
0.006240
0.005709
0.005177
0.004649
0.004122
0.003597
0.003076
0.002544
0.001964
0.001199
-0.000011
-0.001195
-0.002390
-0.003577
-0.004748
-0.005915
-0.007080
-0.008242
-0.009401
-0.010559
-0.011714
-0.012867
-0.014019
-0.015170
-0.016319
-0.017466
-0.018611
-0.019755
-0.020898
-0.022039
-0.023180
-0.024320
-0.025459
-0.026598
-0.027737
-0.028876
-0.030016
-0.031156
-0.032296
-0.033438
-0.034582
-0.035728
-0.036876
-0.038026
-0.039179
-0.040334
-0.041492
-0.042655
-0.043817
-0.044439
-0.043900
-0.043362
-0.042833
-0.042306
-0.041780
-0.041258
-0.040739
-0.040222
-0.039706
-0.039194
-0.038685
-0.038175
-0.037671
-0.037169
-0.036668
-0.036168
-0.035668
-0.035169
-0.034669
-0.034169
-0.033667
-0.033163
-0.032655
-0.032147
-0.031632
-0.031113
-0.030590
-0.030063
-0.029532
-0.028998
-0.028462
-0.027923
-0.027381
-0.026836
-0.026292
-0.025742
-0.025192
-0.024639
-0.024082
-0.023525
-0.022961
-0.022389
-0.021808
-0.021223
-0.020611
-0.019982
-0.019331
-0.018664
-0.017952
-0.017233
-0.016515
-0.015795
-0.015096
-0.014418
-0.013747
-0.013133
-0.012533
-0.011941
-0.011364
-0.010801
-0.010243
-0.009698
-0.009155
-0.008616
-0.008078
-0.007541
-0.007006
-0.006472
-0.005938
-0.005403
-0.004868
-0.004333
-0.003798
-0.003263
-0.002727
-0.002190
-0.001653
-0.001116
-0.002180
-0.001951
-0.001636
-0.001329
-0.001086
-0.000910
-0.000719
-0.000508
-0.000369
-0.000163
0.000014
0.000159
0.000353
0.000546
0.000775
0.000993
0.001214
0.001435
0.001636
0.001793
0.001956
0.002110
0.002294
0.002469
0.002684
0.002926
0.003155
0.021847
-0.021504
-0.032495
0.031787
-0.029966
0.029229
-0.010802
0.011058
-0.026848
-0.024121
-0.015351
-0.020675
0.027158
0.024434
0.020986
0.015472
0.036277
-0.035983
-0.007989
0.008283
-0.012326
0.013836
0.033239
-0.032903
-0.004784
0.004552
-0.040084
0.038834
0.008084
0.037817
-0.006540
-0.003183
-0.039791
0.004631
0.002960
0.041981
0.034280
0.028678
-0.028342
-0.001578
0.019104
0.013397
-0.018878
-0.013173
-0.018073
0.006678
-0.038527
0.002331
-0.042195
0.041270
0.001895
-0.001903
0.023270
0.026021
0.009894
-0.025709
-0.022957
-0.009617
-0.028924
-0.031494
0.019564
0.033283
0.017277
0.026400
-0.026061
-0.006917
-0.034982
-0.010016
0.011537
-0.037500
0.037800
-0.037486
0.000159
-0.000522
-0.043270
0.040923
0.018424
0.017704
0.022710
0.017070
0.022173
0.020379
0.014754
0.025475
0.012761
0.028204
0.012155
-0.018155
-0.017454
-0.025163
-0.022397
-0.016731
-0.021858
-0.020074
-0.014554
-0.027895
-0.012531
-0.011919
0.030267
0.032800
0.031283
-0.030987
-0.033490
0.009352
-0.009070
0.024127
-0.023785
-0.020361
0.035277
-0.016926
-0.015779
-0.034483
0.016132
0.030959
-0.030621
-0.006383
0.007749
0.006146
-0.005850
0.005614
-0.036992
-0.014629
0.037290
-0.039564
-0.008859
0.010387
0.035525
-0.035190
0.004021
0.039875
-0.041136
-0.004251
-0.002649
-0.005377
0.006933
-0.004218
0.001359
-0.042106
0.001126
-0.000096
0.043047
0.040116
0.043585
-0.030351
0.030639
-0.024605
-0.021879
-0.019556
-0.015595
-0.011977
0.022197
0.019868
0.015883
0.024919
0.011636
-0.020954
-0.033319
0.007117
-0.008464
0.016734
-0.014101
-0.005760
0.004462
0.010998
-0.036320
0.036622
-0.009479
-0.003099
0.007546
-0.038915
-0.004862
0.014251
0.031687
-0.002032
0.000721
0.040730
0.021118
0.016568
0.017949
-0.020801
-0.016322
-0.017668
-0.010797
0.019845
0.021657
0.016328
0.023929
0.024966
0.014158
0.026665
0.011612
-0.019549
-0.024652
-0.021342
-0.026353
-0.016044
-0.023615
-0.013896
-0.011366
0.027674
-0.027364
0.028735
-0.028428
0.029780
0.010572
-0.029475
-0.010304
0.030806
-0.030507
-0.032064
0.032309
-0.033012
0.033793
-0.033998
0.022982
-0.022638
0.020702
-0.019213
0.025260
-0.024919
0.008831
-0.008546
0.034780
0.018418
0.027538
-0.027199
-0.016382
0.029817
-0.029479
-0.035482
-0.007458
0.007215
0.035774
-0.005227
0.014984
0.005521
-0.013478
0.032097
-0.031760
-0.005319
0.005085
-0.036485
0.036781
-0.038012
-0.011172
0.012687
-0.039045
0.038315
-0.007700
0.009236
-0.034046
0.034381
-0.036337
0.036669
0.003490
-0.003717
-0.038638
0.039353
-0.040609
0.002430
0.040398
-0.002114
0.005782
-0.041664
-0.003058
0.041449
0.000788
0.003480
-0.001042
-0.040947
0.000644
0.038966
-0.000798
-0.041566
-0.042729
0.042512
0.041886
0.042425
-0.027441
0.027746
-0.014554
0.024724
0.014783
-0.004607
-0.026685
0.029294
-0.031228
0.033845
0.039231
-0.035800
0.002333
0.033626
0.020204
-0.038098
-0.040498
0.018676
0.010480
-0.018381
0.026697
0.025505
-0.026387
-0.025189
0.023854
0.022777
-0.023539
-0.022454
0.028765
-0.028463
0.009352
-0.007384
-0.024383
-0.006297
0.034588
0.006060
-0.034308
0.014446
0.012147
0.008697
0.036132
-0.037871
-0.036834
0.005244
-0.000964
-0.039441
0.038183
0.037138
-0.002576
0.000162
0.040288
0.040194
0.019245
0.020450
-0.018938
0.015093
-0.020131
0.011141
-0.014819
-0.012673
0.031187
0.024390
-0.024075
-0.010214
-0.009043
-0.030881
-0.031849
0.012834
0.013555
0.029659
0.030143
-0.029364
-0.029849
-0.022142
0.017310
0.021666
-0.032827
-0.017030
-0.021348
0.012248
0.032630
0.032151
-0.011414
-0.007929
0.007664
0.027003
0.017908
-0.017516
0.022485
-0.018711
0.006594
-0.033819
-0.028952
-0.012956
0.015589
0.035598
0.036108
-0.035303
-0.035811
0.003928
0.031566
-0.004701
-0.003631
-0.015242
0.004994
0.009850
-0.019834
-0.010632
-0.033510
-0.007168
-0.008325
-0.006012
-0.038390
0.006395
0.038427
-0.002567
-0.001499
0.002943
0.039577
-0.003717
0.001793
0.041351
0.001263
-0.000401
-0.041030
0.000107
-0.040407
-0.007905
0.031036
-0.028457
0.009884
-0.021387
-0.024153
-0.017965
-0.019209
0.024476
0.021748
0.018173
-0.031711
0.006524
-0.013566
0.017337
0.034430
0.003845
-0.034131
0.011608
-0.007797
-0.002477
0.008161
-0.036699
-0.000348
-0.011562
-0.013845
0.011836
-0.003221
0.019600
-0.019321
-0.009156
0.030140
0.016224
-0.015979
-0.005146
-0.006791
-0.032656
0.015051
0.005858
0.002864
-0.037748
0.000101
0.013903
0.017594
0.011162
-0.017326
0.023333
0.026077
-0.023016
-0.025765
0.027215
-0.026907
-0.031366
0.020603
0.015383
-0.015230
0.028272
-0.027969
-0.009690
-0.020279
0.009812
-0.032301
-0.013991
-0.013047
-0.018116
-0.021547
-0.025501
0.023440
-0.023121
0.033130
-0.028876
-0.010325
0.029173
0.028126
0.019033
0.021321
0.025842
0.008772
0.008222
0.034112
-0.006843
0.029090
-0.011786
0.035098
-0.027818
-0.034803
0.003305
0.005448
-0.015846
0.013294
-0.004170
-0.028806
-0.029796
0.030430
-0.030089
0.034942
0.035967
-0.004083
-0.034640
-0.035661
-0.010097
-0.006644
0.004904
0.032705
-0.032369
-0.037352
0.009315
-0.023257
0.037660
-0.001414
0.003397
-0.034653
0.034987
-0.005498
0.037279
0.038705
0.039040
0.004093
0.001799
-0.039968
0.039758
0.001256
-0.036947
0.039660
0.040818
-0.000429
-0.000992
-0.001474
-0.039870
-0.039251
0.023600
0.012485
-0.027356
-0.016371
-0.013497
0.016725
-0.017679
-0.032975
0.004302
0.024196
0.033275
-0.004004
-0.026154
0.028762
0.034450
-0.007271
-0.030694
0.008774
0.037541
0.027055
-0.034118
0.038505
-0.036411
0.014374
-0.026754
0.032469
0.002690
-0.013179
0.022109
-0.021937
-0.025697
-0.024514
0.026002
0.024831
0.019672
-0.033641
-0.011259
-0.003020
0.012753
0.036491
0.002246
0.000185
-0.038714
-0.012036
0.023008
-0.022695
-0.008440
0.010926
-0.018822
0.018935
0.010502
-0.027384
0.027665
0.028741
-0.014367
0.030568
-0.028029
-0.030765
-0.030227
-0.031243
0.021109
-0.020802
0.019927
0.007051
0.008259
-0.019635
0.018462
-0.023852
-0.022654
0.016829
-0.016541
0.023915
-0.023598
0.013157
-0.007340
0.033924
0.031515
-0.010909
0.026467
0.009372
-0.033144
-0.032176
0.021919
-0.012426
-0.029260
-0.003557
0.013906
0.005985
0.016184
-0.027293
-0.005679
-0.006247
0.029536
-0.009760
0.035453
0.029899
-0.014705
0.032948
-0.016978
-0.035148
-0.036179
0.004379
0.002778
-0.002942
-0.031834
0.032171
-0.001949
0.010461
0.036741
-0.008947
0.007008
-0.006128
-0.000883
-0.028423
0.001709
0.000640
0.037890
0.038598
0.039128
0.003557
0.004708
0.000720
0.002406
-0.037223
-0.004358
-0.038277
-0.039336
-0.020425
-0.002105
-0.000445
0.029921
0.026150
-0.021688
-0.019491
-0.009320
-0.013096
0.022010
0.019866
0.019062
-0.025642
0.028239
-0.030165
-0.011900
-0.006753
-0.035017
-0.000800
-0.029743
0.001099
-0.006781
0.014516
0.027638
0.023593
-0.023267
0.000268
0.006474
0.004172
-0.036587
-0.038179
-0.021015
0.015986
0.012795
0.018547
0.017165
-0.018300
-0.016914
-0.015706
0.029075
0.011430
-0.010529
0.032793
0.003232
0.020780
0.012217
0.034292
0.009921
0.001336
-0.000515
-0.002723
-0.018786
-0.030590
-0.031521
-0.032488
0.015085
0.013738
-0.029245
0.010193
0.008905
-0.014982
0.025341
-0.025030
-0.026806
-0.025865
-0.026194
0.026497
0.028341
0.008829
0.007664
0.022451
-0.022123
-0.012787
-0.016567
-0.015307
-0.006214
-0.022218
0.004827
0.005942
-0.005087
-0.025010
-0.027743
-0.008180
0.031996
0.027619
-0.010716
0.025333
0.003771
0.023034
-0.002419
0.028002
0.033786
0.016787
-0.028672
-0.033987
-0.033481
-0.004550
0.037015
-0.029554
0.031033
-0.003471
0.002163
0.007623
0.035328
-0.009566
-0.008416
-0.014173
0.033426
-0.026765
-0.032973
0.035593
-0.035538
0.033308
-0.001865
0.001177
0.037355
0.037442
0.038069
-0.004989
-0.035264
-0.001593
0.037973
0.003021
0.001870
-0.037560
-0.038805
0.020791
-0.020405
-0.012551
0.022431
-0.022112
-0.005670
-0.025893
0.026563
-0.015933
-0.020882
0.015639
0.021134
-0.017156
0.003715
-0.002870
-0.031349
-0.025117
0.031638
0.001555
0.009386
0.031636
-0.033862
-0.020590
-0.001274
-0.033582
0.014209
0.007724
-0.024230
-0.025343
0.024538
0.025616
0.026489
-0.014776
-0.011331
0.006531
0.021388
0.030850
0.023665
-0.032328
0.032635
-0.029038
0.007089
0.000023
0.033914
0.036205
-0.037647
-0.013693
-0.021162
0.021452
0.008437
0.017874
0.019243
-0.017506
-0.007375
-0.018854
-0.023559
0.023872
0.009641
0.029458
0.027030
0.012110
-0.012208
0.009918
-0.009866
-0.012435
-0.015356
-0.005680
0.022975
0.005416
-0.022652
-0.026317
-0.026250
0.020182
0.031813
-0.032008
0.032295
0.027104
0.012701
-0.008709
0.002631
0.030383
0.020259
0.024821
-0.003931
-0.028184
-0.031033
-0.027892
0.013360
0.001636
0.035856
0.036913
-0.009036
0.011064
-0.002332
-0.034501
-0.024509
-0.023349
0.017913
-0.000268
0.028432
-0.007893
0.000560
0.034808
-0.013035
-0.036061
-0.005615
-0.001333
0.005322
-0.034728
-0.037026
0.003637
0.029367
-0.037116
-0.031299
0.036289
0.036821
0.000801
-0.002202
-0.001055
0.002486
-0.003852
0.015651
-0.019905
-0.030132
-0.019884
-0.021069
-0.010990
-0.014169
0.021159
0.015509
-0.024796
0.025100
0.013082
0.019074
0.028791
-0.025081
0.024188
-0.008856
-0.014952
-0.011324
0.020757
-0.001746
0.015118
0.026586
-0.028716
-0.008511
0.034184
-0.029631
0.000349
-0.023885
-0.022367
0.022685
-0.000045
0.035761
-0.033051
-0.034905
-0.019452
0.019905
0.008403
0.027969
0.018908
0.017596
0.016522
0.025150
0.026131
-0.004476
-0.019484
-0.018589
-0.029489
-0.012463
-0.033344
0.012825
0.010529
-0.006236
0.004787
-0.003339
0.018516
-0.020405
0.020743
-0.017260
-0.012595
0.015011
0.011735
0.010334
-0.006397
-0.007355
-0.024969
0.009106
-0.025425
-0.011150
-0.011930
0.007093
-0.005104
-0.014731
-0.011617
0.021944
-0.015896
0.004282
-0.021656
0.007473
-0.018266
0.005456
-0.022873
-0.021699
-0.030397
0.030678
0.013364
-0.013651
0.003180
0.025953
-0.001814
0.029246
-0.026702
0.022504
-0.031828
0.026917
-0.032834
0.032130
-0.027378
-0.026237
-0.027597
-0.003462
-0.010176
0.002101
0.031318
0.030499
-0.021198
0.021530
0.000883
0.003102
-0.030867
0.008235
-0.000591
-0.001668
-0.032435
-0.034382
0.005941
0.035056
0.036383
0.001029
-0.007609
0.033146
-0.004478
0.032775
0.035146
-0.036493
0.001418
-0.000728
0.035675
0.001952
-0.035875
0.016258
-0.035960
0.027707
0.031148
-0.024002
-0.010166
0.014658
0.012287
-0.023393
0.023700
0.007890
0.018356
-0.016424
-0.005191
0.027656
-0.022415
0.022724
-0.019469
0.015387
0.019895
0.012316
-0.018851
0.003181
-0.029301
-0.014323
-0.023482
0.015725
0.030015
-0.031187
0.026057
0.009993
0.000968
-0.000145
-0.032715
0.021540
-0.021216
0.001496
-0.001203
0.031492
0.006556
0.031102
0.034614
0.030210
-0.025731
-0.031907
0.035233
0.004251
0.002569
-0.034814
0.013570
-0.015491
0.022922
-0.022610
0.016990
-0.006375
0.017422
-0.017789
-0.028065
-0.024016
0.025633
0.028347
-0.024535
-0.010768
0.011058
-0.024612
-0.009641
0.019345
0.024696
0.004863
0.006714
0.005982
0.023098
-0.015589
-0.029955
-0.020065
0.021860
-0.013740
-0.014319
0.029706
0.002048
-0.021246
-0.018961
-0.029038
-0.013069
0.024289
-0.025350
0.014676
0.025439
0.020258
-0.019910
0.025539
-0.020029
-0.002380
-0.003640
-0.030210
0.011208
0.000500
-0.031694
-0.010786
0.030503
-0.027128
0.013975
0.033662
0.027337
0.011668
-0.030764
0.034708
-0.009648
0.034520
0.008850
-0.000193
-0.033233
-0.007371
-0.002813
-0.034194
-0.000101
0.032243
-0.001216
-0.001125
0.020246
-0.008217
-0.028506
-0.003961
-0.005100
-0.035344
-0.035431
0.028831
0.017382
-0.004604
0.019635
0.021053
-0.020724
-0.010819
0.009060
-0.016634
0.018317
-0.013010
-0.011957
0.023246
-0.022936
0.016705
-0.006725
0.007062
-0.016782
0.009072
-0.017788
-0.004116
-0.024015
-0.020319
-0.017665
0.020644
-0.014610
-0.010344
0.014368
-0.018464
-0.001222
-0.013680
0.028877
-0.030067
0.009457
-0.009122
0.006268
-0.031576
-0.029098
-0.031382
0.020213
-0.012928
0.030577
-0.009208
-0.022879
0.022390
-0.022083
0.026929
-0.007848
0.028614
0.018916
0.013434
-0.005715
0.000947
0.011130
-0.010105
0.032517
0.003717
-0.003422
-0.034283
-0.033669
-0.006589
0.029533
-0.016837
0.005572
-0.023989
0.008043
0.027241
0.021883
-0.021576
-0.023489
0.023729
0.024260
-0.003069
0.009988
0.018119
-0.015030
-0.018526
0.025215
0.003750
-0.028424
-0.027717
-0.026987
-0.019018
0.021616
0.028116
-0.019654
0.002618
0.019360
-0.000695
0.024925
0.011716
-0.000640
0.020649
-0.020301
-0.013990
0.022652
-0.029755
-0.025677
0.025857
0.000403
-0.024594
-0.011640
0.001516
0.023189
0.014580
0.032002
-0.026532
0.034089
-0.001736
-0.011923
0.029962
-0.030700
-0.007989
0.005400
-0.033755
0.002029
0.030989
-0.002276
0.000432
0.034003
-0.032196
-0.000638
0.017985
0.016848
0.007702
0.010629
0.033041
-0.026851
0.033379
0.027174
0.014021
-0.028845
0.009420
-0.017743
-0.022371
0.017599
0.016584
-0.003960
0.012946
0.004939
-0.015983
0.015815
-0.005667
0.008317
0.017547
-0.028599
-0.007666
-0.023413
0.026052
-0.022637
0.022273
-0.018584
-0.013710
0.017241
0.019008
0.010809
-0.018081
0.002682
-0.027407
0.020790
0.016311
-0.000120
0.025524
-0.024097
0.030358
0.000392
-0.008599
0.000975
-0.001235
-0.021977
-0.025928
-0.014269
0.009037
0.012603
-0.002645
0.027120
0.028406
-0.017371
-0.028203
0.007406
0.008078
0.010593
0.016550
0.002082
0.007171
0.031379
0.014030
0.029437
-0.031063
0.004862
0.032864
0.014897
-0.005441
0.020782
-0.020469
-0.013171
0.024732
-0.008524
-0.001863
0.004425
0.019402
0.020187
-0.019055
-0.019853
-0.017946
-0.010015
-0.028061
-0.018100
-0.016193
0.001501
0.018100
0.021502
-0.021200
-0.024336
-0.029116
-0.001787
-0.002886
0.009729
-0.010928
0.023763
-0.029581
0.013782
-0.012149
0.006879
0.028301
-0.030567
0.012268
-0.026088
-0.021855
-0.023080
0.033565
-0.033142
-0.009923
-0.030230
-0.004566
0.031709
-0.010250
0.026252
-0.012528
0.032953
-0.032516
0.008314
-0.027971
0.029367
0.033476
0.003181
-0.006852
-0.000145
-0.000110
-0.032093
-0.025207
-0.003549
-0.007206
0.018471
0.019103
0.029072
-0.020754
0.012105
-0.015055
-0.016173
0.005890
0.016185
0.004739
-0.004650
0.007026
-0.027582
-0.017061
-0.023127
0.023863
-0.004580
-0.017416
-0.009498
0.014050
0.011683
0.018253
0.008681
0.027281
-0.014188
-0.023577
-0.028017
-0.029443
-0.000709
0.010063
-0.008139
-0.002374
0.028913
0.023735
-0.012050
-0.029697
-0.006330
-0.016809
-0.015253
-0.009311
0.003341
0.015822
-0.030443
-0.009726
-0.004024
-0.032004
0.004324
0.032428
0.007784
0.027946
-0.020228
-0.003092
-0.006788
-0.017200
0.025839
0.022998
0.003840
0.021754
-0.000712
0.017652
-0.026672
-0.017893
0.010290
-0.022490
-0.022279
0.026663
-0.023045
0.002112
0.013248
0.019804
-0.019459
0.000422
-0.010794
-0.027781
0.016755
0.008492
0.015385
0.023251
0.013486
0.011360
0.018522
-0.024669
-0.013187
-0.022952
0.000953
0.001531
0.031199
0.030872
0.015169
-0.019453
-0.028650
-0.021445
0.021811
0.019780
0.012873
0.031901
0.006018
-0.011382
0.002635
-0.017667
-0.032617
-0.002337
0.024806
0.011720
-0.000684
0.007929
-0.025492
-0.007464
0.031819
0.027745
0.027507
-0.027451
-0.026322
0.017447
0.000457
-0.006063
-0.005532
0.032340
0.029858
0.026640
-0.028476
0.024411
-0.002980
-0.015393
-0.019153
0.019691
-0.013135
0.007389
-0.026524
-0.027030
0.005294
0.004954
0.006238
0.022968
-0.015970
0.021112
-0.020800
0.004543
-0.021333
0.021359
-0.012895
-0.016731
0.016407
0.013194
-0.017778
0.016918
0.026156
0.000361
0.021617
0.024994
-0.026937
0.029233
-0.009199
0.025411
-0.021086
-0.026332
-0.024889
0.002128
0.007047
0.012243
-0.006945
0.015637
0.010357
0.009149
-0.001802
0.024581
-0.022471
0.005463
0.030691
0.030258
0.031304
0.014626
-0.003483
-0.031485
-0.025810
0.003752
0.001623
0.006180
0.020328
-0.020019
-0.012704
0.017311
0.017806
-0.009055
-0.017238
0.023347
0.025965
0.026820
-0.007536
0.012878
-0.001565
0.014579
0.002500
0.020291
-0.021798
0.011127
0.001007
-0.000152
-0.001246
-0.010190
0.024163
-0.027146
0.018629
0.019368
-0.019029
-0.027578
-0.018278
-0.020313
0.020625
-0.021324
-0.023370
-0.005181
-0.011187
0.006640
-0.030822
0.003232
-0.028952
-0.025073
-0.002913
-0.030953
0.003788
0.027767
0.013477
0.011192
-0.009079
0.008125
-0.011991
-0.010844
-0.024688
0.030051
-0.025638
-0.002524
0.008919
0.018562
-0.029934
0.000984
0.028233
0.000962
0.022762
-0.028567
0.025168
-0.022159
-0.003623
-0.016240
-0.018669
-0.013826
-0.016945
-0.015244
-0.014645
0.005852
-0.004767
-0.005810
0.022098
0.020242
-0.019925
-0.016211
0.021177
-0.020806
-0.019171
-0.009135
0.016747
0.010303
0.001347
-0.017082
0.001431
0.019934
0.014069
0.010660
-0.023082
-0.001234
-0.016247
0.007801
-0.028327
-0.002074
0.022760
0.023734
-0.011566
-0.008342
0.013658
-0.021284
0.011522
0.017557
-0.014298
-0.002938
-0.004052
-0.028043
-0.029327
0.007245
0.004380
0.030178
0.027273
0.025709
0.024520
-0.030365
-0.003635
0.018030
-0.013377
-0.016039
-0.018635
0.005437
0.018967
0.019476
-0.007911
-0.006473
-0.012368
0.016882
-0.016482
0.024704
0.009712
-0.009899
-0.021411
-0.000371
0.015958
-0.010949
0.007603
-0.005827
0.019019
-0.018669
0.000542
-0.017133
0.001525
-0.026033
-0.015531
0.023209
-0.026055
-0.020878
-0.019738
0.022051
0.000429
-0.023685
-0.024467
0.014891
-0.027371
0.002655
-0.026731
0.030784
0.012682
0.026115
0.028737
0.015766
-0.020621
0.026386
-0.001953
-0.011441
-0.012619
0.020918
-0.024184
0.012334
-0.008068
-0.022128
0.009527
0.019136
0.006076
0.024697
-0.026923
0.026630
-0.010325
0.001542
-0.004618
-0.001793
0.004923
0.029565
0.023879
0.002905
0.029739
-0.026497
-0.008214
0.021126
0.003992
-0.014820
0.006475
-0.025277
-0.005227
0.005052
-0.016942
0.004624
-0.012603
-0.010310
0.012451
0.000287
-0.024997
0.019550
0.024598
-0.022577
0.024473
-0.012041
-0.002303
-0.023864
-0.021045
0.010122
-0.008669
0.028103
-0.005459
0.000633
0.021833
0.015627
0.014012
-0.008782
0.002646
0.021083
-0.020193
0.016428
0.006694
0.002659
-0.024724
-0.026409
-0.019290
0.003807
0.029052
0.025289
-0.025838
0.011788