# vtk DataFile Version 2.0
Test
ASCII
DATASET POLYDATA
POINTS 5510 float
0.000000 0.000000 0.000000
0.080000 0.000000 0.000000
0.080000 0.160000 0.000000
0.000000 0.160000 0.000000
0.035000 0.076250 0.000000
0.046500 0.083750 0.000000
0.002000 0.000000 0.000000
0.004000 0.000000 0.000000
0.006000 0.000000 0.000000
0.008000 0.000000 0.000000
0.010000 0.000000 0.000000
0.012000 0.000000 0.000000
0.014000 0.000000 0.000000
0.016000 0.000000 0.000000
0.018000 0.000000 0.000000
0.020000 0.000000 0.000000
0.022000 0.000000 0.000000
0.024000 0.000000 0.000000
0.026000 0.000000 0.000000
0.028000 0.000000 0.000000
0.030000 0.000000 0.000000
0.032000 0.000000 0.000000
0.034000 0.000000 0.000000
0.036000 0.000000 0.000000
0.038000 0.000000 0.000000
0.040000 0.000000 0.000000
0.042000 0.000000 0.000000
0.044000 0.000000 0.000000
0.046000 0.000000 0.000000
0.048000 0.000000 0.000000
0.050000 0.000000 0.000000
0.052000 0.000000 0.000000
0.054000 0.000000 0.000000
0.056000 0.000000 0.000000
0.058000 0.000000 0.000000
0.060000 0.000000 0.000000
0.062000 0.000000 0.000000
0.064000 0.000000 0.000000
0.066000 0.000000 0.000000
0.068000 0.000000 0.000000
0.070000 0.000000 0.000000
0.072000 0.000000 0.000000
0.074000 0.000000 0.000000
0.076000 0.000000 0.000000
0.078000 0.000000 0.000000
0.080000 0.002000 0.000000
0.080000 0.004000 0.000000
0.080000 0.006000 0.000000
0.080000 0.008000 0.000000
0.080000 0.010000 0.000000
0.080000 0.012000 0.000000
0.080000 0.014000 0.000000
0.080000 0.016000 0.000000
0.080000 0.018000 0.000000
0.080000 0.020000 0.000000
0.080000 0.022000 0.000000
0.080000 0.024000 0.000000
0.080000 0.026000 0.000000
0.080000 0.028000 0.000000
0.080000 0.030000 0.000000
0.080000 0.032000 0.000000
0.080000 0.034000 0.000000
0.080000 0.036000 0.000000
0.080000 0.038000 0.000000
0.080000 0.040000 0.000000
0.080000 0.042000 0.000000
0.080000 0.044000 0.000000
0.080000 0.046000 0.000000
0.080000 0.048000 0.000000
0.080000 0.050000 0.000000
0.080000 0.052000 0.000000
0.080000 0.054000 0.000000
0.080000 0.056000 0.000000
0.080000 0.058000 0.000000
0.080000 0.060000 0.000000
0.080000 0.062000 0.000000
0.080000 0.064000 0.000000
0.080000 0.066000 0.000000
0.080000 0.068000 0.000000
0.080000 0.070000 0.000000
0.080000 0.072000 0.000000
0.080000 0.074000 0.000000
0.080000 0.076000 0.000000
0.080000 0.078000 0.000000
0.080000 0.080000 0.000000
0.080000 0.082000 0.000000
0.080000 0.084000 0.000000
0.080000 0.086000 0.000000
0.080000 0.088000 0.000000
0.080000 0.090000 0.000000
0.080000 0.092000 0.000000
0.080000 0.094000 0.000000
0.080000 0.096000 0.000000
0.080000 0.098000 0.000000
0.080000 0.100000 0.000000
0.080000 0.102000 0.000000
0.080000 0.104000 0.000000
0.080000 0.106000 0.000000
0.080000 0.108000 0.000000
0.080000 0.110000 0.000000
0.080000 0.112000 0.000000
0.080000 0.114000 0.000000
0.080000 0.116000 0.000000
0.080000 0.118000 0.000000
0.080000 0.120000 0.000000
0.080000 0.122000 0.000000
0.080000 0.124000 0.000000
0.080000 0.126000 0.000000
0.080000 0.128000 0.000000
0.080000 0.130000 0.000000
0.080000 0.132000 0.000000
0.080000 0.134000 0.000000
0.080000 0.136000 0.000000
0.080000 0.138000 0.000000
0.080000 0.140000 0.000000
0.080000 0.142000 0.000000
0.080000 0.144000 0.000000
0.080000 0.146000 0.000000
0.080000 0.148000 0.000000
0.080000 0.150000 0.000000
0.080000 0.152000 0.000000
0.080000 0.154000 0.000000
0.080000 0.156000 0.000000
0.080000 0.158000 0.000000
0.078000 0.160000 0.000000
0.076000 0.160000 0.000000
0.074000 0.160000 0.000000
0.072000 0.160000 0.000000
0.070000 0.160000 0.000000
0.068000 0.160000 0.000000
0.066000 0.160000 0.000000
0.064000 0.160000 0.000000
0.062000 0.160000 0.000000
0.060000 0.160000 0.000000
0.058000 0.160000 0.000000
0.056000 0.160000 0.000000
0.054000 0.160000 0.000000
0.052000 0.160000 0.000000
0.050000 0.160000 0.000000
0.048000 0.160000 0.000000
0.046000 0.160000 0.000000
0.044000 0.160000 0.000000
0.042000 0.160000 0.000000
0.040000 0.160000 0.000000
0.038000 0.160000 0.000000
0.036000 0.160000 0.000000
0.034000 0.160000 0.000000
0.032000 0.160000 0.000000
0.030000 0.160000 0.000000
0.028000 0.160000 0.000000
0.026000 0.160000 0.000000
0.024000 0.160000 0.000000
0.022000 0.160000 0.000000
0.020000 0.160000 0.000000
0.018000 0.160000 0.000000
0.016000 0.160000 0.000000
0.014000 0.160000 0.000000
0.012000 0.160000 0.000000
0.010000 0.160000 0.000000
0.008000 0.160000 0.000000
0.006000 0.160000 0.000000
0.004000 0.160000 0.000000
0.002000 0.160000 0.000000
0.000000 0.158000 0.000000
0.000000 0.156000 0.000000
0.000000 0.154000 0.000000
0.000000 0.152000 0.000000
0.000000 0.150000 0.000000
0.000000 0.148000 0.000000
0.000000 0.146000 0.000000
0.000000 0.144000 0.000000
0.000000 0.142000 0.000000
0.000000 0.140000 0.000000
0.000000 0.138000 0.000000
0.000000 0.136000 0.000000
0.000000 0.134000 0.000000
0.000000 0.132000 0.000000
0.000000 0.130000 0.000000
0.000000 0.128000 0.000000
0.000000 0.126000 0.000000
0.000000 0.124000 0.000000
0.000000 0.122000 0.000000
0.000000 0.120000 0.000000
0.000000 0.118000 0.000000
0.000000 0.116000 0.000000
0.000000 0.114000 0.000000
0.000000 0.112000 0.000000
0.000000 0.110000 0.000000
0.000000 0.108000 0.000000
0.000000 0.106000 0.000000
0.000000 0.104000 0.000000
0.000000 0.102000 0.000000
0.000000 0.100000 0.000000
0.000000 0.098000 0.000000
0.000000 0.096000 0.000000
0.000000 0.094000 0.000000
0.000000 0.092000 0.000000
0.000000 0.090000 0.000000
0.000000 0.088000 0.000000
0.000000 0.086000 0.000000
0.000000 0.084000 0.000000
0.000000 0.082000 0.000000
0.000000 0.080000 0.000000
0.000000 0.078000 0.000000
0.000000 0.076000 0.000000
0.000000 0.074000 0.000000
0.000000 0.072000 0.000000
0.000000 0.070000 0.000000
0.000000 0.068000 0.000000
0.000000 0.066000 0.000000
0.000000 0.064000 0.000000
0.000000 0.062000 0.000000
0.000000 0.060000 0.000000
0.000000 0.058000 0.000000
0.000000 0.056000 0.000000
0.000000 0.054000 0.000000
0.000000 0.052000 0.000000
0.000000 0.050000 0.000000
0.000000 0.048000 0.000000
0.000000 0.046000 0.000000
0.000000 0.044000 0.000000
0.000000 0.042000 0.000000
0.000000 0.040000 0.000000
0.000000 0.038000 0.000000
0.000000 0.036000 0.000000
0.000000 0.034000 0.000000
0.000000 0.032000 0.000000
0.000000 0.030000 0.000000
0.000000 0.028000 0.000000
0.000000 0.026000 0.000000
0.000000 0.024000 0.000000
0.000000 0.022000 0.000000
0.000000 0.020000 0.000000
0.000000 0.018000 0.000000
0.000000 0.016000 0.000000
0.000000 0.014000 0.000000
0.000000 0.012000 0.000000
0.000000 0.010000 0.000000
0.000000 0.008000 0.000000
0.000000 0.006000 0.000000
0.000000 0.004000 0.000000
0.000000 0.002000 0.000000
0.035411 0.076518 0.000000
0.035821 0.076786 0.000000
0.036232 0.077054 0.000000
0.036643 0.077321 0.000000
0.037054 0.077589 0.000000
0.037464 0.077857 0.000000
0.037875 0.078125 0.000000
0.038286 0.078393 0.000000
0.038696 0.078661 0.000000
0.039107 0.078929 0.000000
0.039518 0.079196 0.000000
0.039929 0.079464 0.000000
0.040339 0.079732 0.000000
0.040750 0.080000 0.000000
0.041161 0.080268 0.000000
0.041571 0.080536 0.000000
0.041982 0.080804 0.000000
0.042393 0.081071 0.000000
0.042804 0.081339 0.000000
0.043214 0.081607 0.000000
0.043625 0.081875 0.000000
0.044036 0.082143 0.000000
0.044446 0.082411 0.000000
0.044857 0.082679 0.000000
0.045268 0.082946 0.000000
0.045679 0.083214 0.000000
0.046089 0.083482 0.000000
0.040000 0.002000 0.000000
0.040001 0.158005 0.000000
0.002000 0.116000 0.000000
0.078000 0.048000 0.000000
0.002000 0.106000 0.000000
0.078000 0.058000 0.000000
0.001986 0.042173 0.000000
0.078015 0.117826 0.000000
0.001985 0.094174 0.000000
0.001985 0.084174 0.000000
0.001914 0.056074 0.000000
0.002000 0.072000 0.000000
0.078015 0.065826 0.000000
0.078016 0.075826 0.000000
0.078000 0.088000 0.000000
0.078000 0.104000 0.000000
0.078003 0.029997 0.000000
0.001998 0.130002 0.000000
0.002000 0.032000 0.000000
0.078013 0.128003 0.000000
0.056000 0.158000 0.000000
0.026000 0.002000 0.000000
0.060000 0.002000 0.000000
0.020000 0.158000 0.000000
0.002000 0.020000 0.000000
0.078000 0.142000 0.000000
0.002000 0.146000 0.000000
0.078000 0.020000 0.000000
0.016000 0.002000 0.000000
0.068000 0.002000 0.000000
0.066000 0.158000 0.000000
0.002000 0.014000 0.000000
0.008000 0.158000 0.000000
0.010000 0.002000 0.000000
0.078000 0.148000 0.000000
0.078000 0.008000 0.000000
0.078005 0.037995 0.000000
0.051991 0.001990 0.000000
0.028000 0.158000 0.000000
0.002000 0.008000 0.000000
0.078000 0.094000 0.000000
0.078000 0.110000 0.000000
0.001983 0.066159 0.000000
0.002000 0.050000 0.000000
0.046000 0.158000 0.000000
0.078000 0.134000 0.000000
0.002000 0.140000 0.000000
0.006000 0.002000 0.000000
0.002000 0.154000 0.000000
0.074000 0.002000 0.000000
0.078000 0.152000 0.000000
0.074000 0.158000 0.000000
0.078000 0.080000 0.000000
0.078000 0.070000 0.000000
0.078000 0.122000 0.000000
0.002000 0.090000 0.000000
0.002000 0.080000 0.000000
0.002000 0.038000 0.000000
0.002000 0.102000 0.000000
0.002000 0.112000 0.000000
0.036000 0.002000 0.000000
0.078000 0.042000 0.000000
0.032000 0.002000 0.000000
0.047987 0.001989 0.000000
0.032008 0.158010 0.000000
0.002000 0.028000 0.000000
0.002000 0.126000 0.000000
0.060000 0.158000 0.000000
0.022000 0.002000 0.000000
0.002000 0.136000 0.000000
0.078000 0.024000 0.000000
0.012000 0.158000 0.000000
0.078000 0.158000 0.000000
0.001947 0.003947 0.000000
0.002000 0.158000 0.000000
0.078000 0.012000 0.000000
0.078000 0.096000 0.000000
0.078000 0.098000 0.000000
0.078000 0.082000 0.000000
0.078111 0.099889 0.000000
0.078035 0.083965 0.000000
0.078000 0.090000 0.000000
0.078000 0.106000 0.000000
0.078000 0.072000 0.000000
0.078000 0.112000 0.000000
0.078043 0.061976 0.000000
0.078000 0.114000 0.000000
0.002000 0.064000 0.000000
0.002000 0.062000 0.000000
0.002000 0.088000 0.000000
0.002000 0.078000 0.000000
0.002000 0.060000 0.000000
0.001966 0.076034 0.000000
0.002000 0.070000 0.000000
0.002000 0.054000 0.000000
0.001957 0.098024 0.000000
0.002000 0.048000 0.000000
0.002000 0.046000 0.000000
[...]
POINT_DATA 5510
SCALARS UX float 1
LOOKUP_TABLE default
-0.002692
0.039179
0.000001
-0.041059
-0.003346
0.002140
-0.001644
-0.000595
0.000455
0.001505
0.002556
0.003607
0.004658
0.005709
0.006760
0.007810
0.008860
0.009909
0.010957
0.012004
0.013050
0.014094
0.015138
0.016181
0.017223
0.018264
0.019304
0.020344
0.021384
0.022423
0.023462
0.024502
0.025541
0.026582
0.027623
0.028665
0.029709
0.030754
0.031801
0.032849
0.033899
0.034951
0.036005
0.037063
0.038120
0.038711
0.038246
0.037785
0.037324
0.036868
0.036412
0.035960
0.035509
0.035059
0.034612
0.034165
0.033723
0.033281
0.032842
0.032406
0.031972
0.031540
0.031109
0.030679
0.030250
0.029819
0.029389
0.028958
0.028523
0.028091
0.027651
0.027209
0.026762
0.026312
0.025858
0.025400
0.024940
0.024477
0.024011
0.023542
0.023072
0.022598
0.022122
0.021643
0.021160
0.020675
0.020185
0.019684
0.019173
0.018656
0.018112
0.017550
0.016975
0.016371
0.015740
0.015110
0.014482
0.013856
0.013259
0.012683
0.012133
0.011588
0.011080
0.010578
0.010087
0.009608
0.009131
0.008663
0.008197
0.007733
0.007272
0.006811
0.006351
0.005892
0.005433
0.004975
0.004517
0.004061
0.003607
0.003153
0.002704
0.002247
0.001748
0.001080
-0.000009
-0.001094
-0.002185
-0.003267
-0.004336
-0.005401
-0.006464
-0.007524
-0.008581
-0.009637
-0.010691
-0.011744
-0.012794
-0.013844
-0.014893
-0.015939
-0.016984
-0.018028
-0.019071
-0.020113
-0.021154
-0.022195
-0.023235
-0.024275
-0.025315
-0.026355
-0.027396
-0.028437
-0.029479
-0.030522
-0.031567
-0.032613
-0.033662
-0.034712
-0.035764
-0.036818
-0.037875
-0.038936
-0.039996
-0.040589
-0.040124
-0.039659
-0.039201
-0.038745
-0.038290
-0.037838
-0.037389
-0.036941
-0.036495
-0.036051
-0.035610
-0.035169
-0.034733
-0.034299
-0.033866
-0.033435
-0.033003
-0.032573
-0.032143
-0.031713
-0.031282
-0.030849
-0.030413
-0.029978
-0.029536
-0.029092
-0.028643
-0.028192
-0.027736
-0.027277
-0.026816
-0.026352
-0.025886
-0.025416
-0.024946
-0.024471
-0.023995
-0.023516
-0.023033
-0.022549
-0.022058
-0.021558
-0.021050
-0.020537
-0.020000
-0.019448
-0.018878
-0.018295
-0.017679
-0.017059
-0.016441
-0.015823
-0.015224
-0.014642
-0.014066
-0.013536
-0.013017
-0.012506
-0.012007
-0.011520
-0.011036
-0.010565
-0.010096
-0.009630
-0.009165
-0.008702
-0.008240
-0.007779
-0.007318
-0.006857
-0.006396
-0.005934
-0.005473
-0.005011
-0.004548
-0.004085
-0.003622
-0.003157
-0.003133
-0.002919
-0.002623
-0.002336
-0.002108
-0.001944
-0.001765
-0.001567
-0.001437
-0.001244
-0.001078
-0.000943
-0.000762
-0.000580
-0.000366
-0.000161
0.000045
0.000252
0.000440
0.000585
0.000737
0.000881
0.001053
0.001217
0.001418
0.001644
0.001860
0.017801
-0.019651
-0.030212
0.027458
-0.028043
0.025268
-0.011465
0.009540
-0.025368
-0.023016
-0.015385
-0.020015
0.023493
0.021145
0.018139
0.013345
0.031327
-0.033220
-0.009031
0.007139
-0.011276
0.010491
0.028203
-0.030060
-0.006265
0.003919
-0.036769
0.033540
0.005242
0.032384
-0.005998
-0.004884
-0.036350
0.002090
0.002546
0.036263
0.029601
0.024038
-0.025894
-0.003499
0.016486
0.011562
-0.018438
-0.013513
-0.016519
0.005753
-0.035421
-0.000010
-0.038595
0.035537
0.001628
-0.001766
0.020134
0.022514
0.008531
-0.024387
-0.022006
-0.010439
-0.027150
-0.029353
0.015717
0.028742
0.013630
0.021957
-0.023812
-0.008105
-0.032354
-0.009169
0.008393
-0.034532
0.032644
-0.034246
0.000128
-0.002589
-0.039524
0.035348
0.015890
0.015265
0.019648
0.014721
0.019179
0.017606
0.012729
0.022043
0.011013
0.024392
0.010490
-0.017804
-0.017195
-0.023916
-0.021519
-0.016570
-0.021050
-0.019488
-0.014699
-0.026270
-0.012961
-0.012431
0.026157
0.028328
0.027026
-0.028918
-0.031068
0.008062
-0.009966
0.019882
-0.021733
-0.018608
0.030462
-0.015474
-0.014426
-0.031924
0.012585
0.026120
-0.027975
-0.007644
0.006678
0.005294
-0.007185
0.004835
-0.034092
-0.013378
0.032204
-0.036319
-0.008114
0.007343
0.030291
-0.032149
0.003461
0.034441
-0.037679
-0.005805
-0.004423
-0.004937
0.004191
-0.003879
0.001167
-0.038462
-0.001113
-0.002232
0.037185
0.034484
0.037650
-0.028310
0.026411
-0.023381
-0.021023
-0.018994
-0.015538
-0.012429
0.019156
0.017119
0.013649
0.021509
0.009988
-0.019175
-0.030863
0.006074
-0.009387
0.013161
-0.012923
-0.007048
0.003783
0.007928
-0.033458
0.031572
-0.008706
-0.004753
0.004778
-0.035703
-0.004493
0.012241
0.027314
-0.003833
0.000558
0.035071
0.018217
0.014230
0.015432
-0.020085
-0.016163
-0.017337
-0.011408
0.017138
0.018729
0.014081
0.020708
0.021605
0.012218
0.023070
0.010020
-0.019027
-0.023476
-0.020600
-0.024943
-0.015979
-0.022578
-0.014136
-0.011954
0.023936
-0.025813
0.024846
-0.026726
0.025741
0.009119
-0.027624
-0.011035
0.026619
-0.028508
-0.029843
0.027907
-0.030658
0.029182
-0.031506
0.018836
-0.020686
0.016756
-0.017560
0.020916
-0.022768
0.007613
-0.009513
0.030032
0.014671
0.022996
-0.024850
-0.015003
0.025078
-0.026932
-0.032786
-0.008573
0.006216
0.030892
-0.006589
0.011538
0.004696
-0.012328
0.027160
-0.029016
-0.006726
0.004379
-0.033654
0.031762
-0.034976
-0.010223
0.009443
-0.035869
0.033091
-0.007057
0.006293
-0.031103
0.029246
-0.033196
0.031336
0.003003
-0.005345
-0.035297
0.033989
-0.037223
0.002090
0.034894
-0.003962
0.003140
-0.038136
-0.002821
0.035804
0.000674
0.001039
-0.003036
-0.037405
-0.001524
0.033433
-0.000753
-0.037996
-0.039057
0.036722
0.036126
0.036592
-0.025819
0.023937
-0.014590
0.020454
0.012644
-0.005996
-0.024407
0.024627
-0.028556
0.028783
0.033830
-0.032732
0.001947
0.028982
0.016328
-0.034831
-0.037073
0.016076
0.008988
-0.017967
0.023043
0.022016
-0.024920
-0.023887
0.020593
0.019661
-0.022462
-0.021524
0.024811
-0.026697
0.008013
-0.008453
-0.022305
-0.007513
0.029812
0.005162
-0.031718
0.011074
0.008977
0.005828
0.030872
-0.034800
-0.033903
0.002676
-0.002912
-0.036158
0.032923
0.032019
-0.002404
0.000076
0.034744
0.034607
0.016572
0.017633
-0.018452
0.012974
-0.019500
0.009562
-0.014870
-0.013032
0.026887
0.021055
-0.022925
-0.010907
-0.009891
-0.028767
-0.029598
0.011025
0.011645
0.025573
0.025987
-0.027465
-0.027881
-0.020259
0.014877
0.018694
-0.030439
-0.016781
-0.020561
0.010518
0.028123
0.027711
-0.011943
-0.008924
0.006547
0.022534
0.014232
-0.016038
0.018409
-0.017128
0.005622
-0.031296
-0.026478
-0.011878
0.012116
0.030686
0.031127
-0.032578
-0.033017
0.003323
0.026701
-0.006135
-0.005212
-0.013963
0.004242
0.006880
-0.018153
-0.009758
-0.030640
-0.006597
-0.007653
-0.005543
-0.035250
0.003727
0.032968
-0.004294
-0.003373
0.000575
0.034018
-0.003447
-0.000475
0.035663
0.001025
-0.000409
-0.037533
-0.001988
-0.036938
-0.008853
0.026694
-0.026632
0.008422
-0.020552
-0.022942
-0.017560
-0.017609
0.021079
0.018725
0.015590
-0.029422
0.005507
-0.012461
0.013738
0.029622
0.003193
-0.031511
0.008511
-0.007198
-0.004159
0.005365
-0.033732
-0.002322
-0.012023
-0.013980
0.010112
-0.003017
0.016849
-0.018753
-0.009939
0.025931
0.013889
-0.015824
-0.006462
-0.007886
-0.030236
0.011652
0.003263
0.002405
-0.034640
-0.000035
0.011894
0.015088
0.009531
-0.017003
0.020141
0.022508
-0.022009
-0.024383
0.023483
-0.025362
-0.029182
0.017725
0.013158
-0.015174
0.024388
-0.026272
-0.010456
-0.019587
0.008409
-0.029987
-0.014161
-0.013345
-0.016611
-0.019742
-0.023326
0.020185
-0.022051
0.028554
-0.027047
-0.010950
0.025157
0.023560
0.015259
0.017347
0.021474
0.007507
0.007031
0.029402
-0.007985
0.025024
-0.010811
0.030253
-0.025442
-0.032145
0.002727
0.004576
-0.014540
0.010023
-0.005677
-0.026926
-0.027781
0.025664
-0.027516
0.030065
0.030952
-0.005545
-0.031952
-0.032834
-0.009297
-0.006145
0.004107
0.027742
-0.029598
-0.034351
0.006418
-0.021277
0.032470
-0.003242
0.002865
-0.031685
0.029826
-0.005098
0.031919
0.033375
0.033554
0.001626
0.001487
-0.036614
0.034286
-0.000938
-0.033780
0.034146
0.035202
-0.002450
-0.000976
-0.001394
-0.036474
-0.035883
0.019428
0.010670
-0.025629
-0.016126
-0.013632
0.014287
-0.016239
-0.030458
0.003531
0.019997
0.028571
-0.005420
-0.023949
0.024167
0.029362
-0.006743
-0.028095
0.005951
0.032313
0.023287
-0.031222
0.033092
-0.033316
0.012244
-0.025172
0.027928
0.002139
-0.013411
0.019035
-0.021034
-0.024266
-0.023252
0.022384
0.021383
0.015868
-0.031087
-0.010356
-0.004627
0.009555
0.031405
0.001814
-0.001862
-0.035419
-0.012429
0.019814
-0.021685
-0.009317
0.009281
-0.018314
0.016262
0.008958
-0.025712
0.023806
0.024729
-0.014383
0.026294
-0.026264
-0.028612
-0.028150
-0.029019
0.018167
-0.020041
0.017128
0.005963
0.007013
-0.019021
0.014764
-0.021847
-0.020753
0.014413
-0.016311
0.020592
-0.022461
0.011249
-0.008362
0.029185
0.027106
-0.011456
0.022071
0.007979
-0.030658
-0.029822
0.017919
-0.011421
-0.027315
-0.005091
0.010607
0.005040
0.012685
-0.024989
-0.006924
-0.007415
0.025405
-0.010462
0.030507
0.025205
-0.013500
0.028342
-0.015574
-0.032390
-0.033283
0.003654
0.002272
-0.004503
-0.029136
0.027280
-0.003703
0.007465
0.031454
-0.008247
0.004313
-0.005699
-0.002784
-0.026021
0.001351
0.000429
0.032504
0.033228
0.033686
0.001163
0.002214
-0.001400
0.000112
-0.034186
-0.004056
-0.035097
-0.036013
-0.018719
-0.001995
-0.000505
0.025678
0.022451
-0.020767
-0.018862
-0.010032
-0.013241
0.018904
0.017047
0.015338
-0.023508
0.023716
-0.027639
-0.010967
-0.006295
-0.032223
-0.002654
-0.027675
0.000767
-0.007827
0.011190
0.023724
0.020272
-0.022133
-0.001732
0.003852
0.001751
-0.033581
-0.034957
-0.019283
0.013638
0.010897
0.015889
0.014674
-0.017821
-0.016600
-0.015543
0.024960
0.009713
-0.011086
0.028155
0.002607
0.017840
0.009093
0.029450
0.006998
-0.000811
-0.000625
-0.002586
-0.017249
-0.028400
-0.029203
-0.030038
0.012865
0.011697
-0.027249
0.008638
0.007520
-0.014914
0.021820
-0.023695
-0.025158
-0.024351
-0.024692
0.022807
0.024386
0.007507
0.006495
0.019280
-0.021138
-0.013022
-0.015225
-0.014076
-0.007334
-0.020381
0.003985
0.004950
-0.006357
-0.022904
-0.025956
-0.009043
0.027520
0.023124
-0.009887
0.021036
0.003073
0.018937
-0.004051
0.024032
0.029012
0.013262
-0.026755
-0.031333
-0.030896
-0.005893
0.031858
-0.027054
0.026241
-0.004960
0.001685
0.004901
0.030346
-0.008838
-0.007789
-0.013041
0.028755
-0.024534
-0.030177
0.030406
-0.032674
0.028319
-0.003573
0.000892
0.032041
0.032173
0.032770
-0.004658
-0.032269
-0.001553
0.032632
0.000700
-0.000350
-0.034366
-0.035554
0.016889
-0.019656
-0.012872
0.019312
-0.021178
-0.006815
-0.024318
0.022744
-0.015707
-0.020027
0.013300
0.018101
-0.015787
0.002970
-0.004385
-0.029000
-0.023055
0.027103
0.001104
0.006536
0.026819
-0.031170
-0.018922
-0.003007
-0.030760
0.012066
0.006507
-0.022952
-0.023905
0.021074
0.021995
0.022736
-0.013617
-0.010474
0.005464
0.017460
0.026478
0.019539
-0.029845
0.027963
-0.026610
0.004440
-0.000161
0.028899
0.030992
-0.034497
-0.013755
-0.020309
0.018417
0.007119
0.015292
0.016495
-0.017118
-0.008351
-0.018300
-0.022372
0.020499
0.008163
0.025282
0.023202
0.010301
-0.012527
0.008363
-0.010504
-0.012669
-0.015202
-0.006871
0.019732
0.004495
-0.021596
-0.024678
-0.024677
0.016360
0.027308
-0.029623
0.027725
0.022679
0.010759
-0.009502
0.002033
0.026076
0.017385
0.020595
-0.005305
-0.026333
-0.028782
-0.025562
0.010135
0.001230
0.030801
0.031716
-0.008380
0.008041
-0.003920
-0.031778
-0.022473
-0.021414
0.014290
-0.002196
0.024399
-0.007336
0.000302
0.029896
-0.012003
-0.033126
-0.005255
-0.003114
0.002801
-0.031806
-0.033904
0.001289
0.024746
-0.034038
-0.028674
0.031121
0.031580
-0.001273
-0.002136
-0.001089
0.000239
-0.003619
0.012226
-0.018270
-0.028006
-0.019202
-0.020242
-0.011482
-0.014165
0.018166
0.013228
-0.023435
0.021553
0.011135
0.016357
0.024649
-0.023572
0.020713
-0.009586
-0.014814
-0.011669
0.016911
-0.003360
0.011766
0.022233
-0.026736
-0.007926
0.029302
-0.027177
-0.001606
-0.022596
-0.021310
0.019441
-0.000277
0.030664
-0.030301
-0.032071
-0.018786
0.017042
0.007040
0.023953
0.016174
0.015022
0.014088
0.021536
0.022374
-0.005779
-0.017912
-0.018040
-0.027397
-0.011507
-0.030723
0.009674
0.007579
-0.005848
0.002339
-0.003175
0.014866
-0.019613
0.017765
-0.016873
-0.012766
0.012749
0.009932
0.008717
-0.007456
-0.008287
-0.023527
0.007645
-0.023917
-0.011566
-0.012239
0.005951
-0.006321
-0.014654
-0.012021
0.018794
-0.014638
0.003463
-0.020689
0.006235
-0.016800
0.004483
-0.021006
-0.019934
-0.028178
0.026274
0.011330
-0.012591
0.002507
0.021628
-0.003473
0.025041
-0.025005
0.018479
-0.029413
0.023043
-0.030282
0.027527
-0.025120
-0.024078
-0.025775
-0.004901
-0.009420
0.001575
0.026881
0.025780
-0.020294
0.018439
-0.001144
0.000827
-0.028584
0.005486
-0.000748
-0.001676
-0.029712
-0.031620
0.003392
0.029942
0.031257
0.000649
-0.008498
0.028405
-0.004217
0.027858
0.030076
-0.033444
-0.000683
-0.002535
0.030533
-0.000222
-0.032853
0.012805
-0.032983
0.023257
0.026680
-0.022036
-0.010725
0.012447
0.010409
-0.022177
0.020298
0.006643
0.015701
-0.016138
-0.006353
0.023616
-0.021280
0.019402
-0.018761
0.013051
0.016991
0.010383
-0.017360
0.002458
-0.027180
-0.013229
-0.021589
0.012345
0.025647
-0.028805
0.021776
0.007116
0.000542
-0.001977
-0.030124
0.018403
-0.020266
-0.000559
-0.001334
0.026921
0.003980
0.026357
0.029617
0.025871
-0.023642
-0.029256
0.030208
0.001876
0.000368
-0.031937
0.011466
-0.015290
0.019636
-0.021510
0.014484
-0.007392
0.014847
-0.017326
-0.026179
-0.022654
0.021948
0.024270
-0.023156
-0.011196
0.009347
-0.023167
-0.010274
0.016550
0.021148
0.003966
0.005584
0.004940
0.019048
-0.014382
-0.027798
-0.018469
0.017918
-0.013757
-0.014258
0.025436
0.001476
-0.019546
-0.018359
-0.027009
-0.012085
0.020135
-0.023795
0.012424
0.021186
0.017301
-0.019140
0.021809
-0.019290
-0.003912
-0.005008
-0.027963
0.009438
0.000193
-0.029243
-0.010002
0.026069
-0.025371
0.010722
0.028851
0.023401
0.008618
-0.028212
0.029754
-0.008963
0.029479
0.006073
-0.002073
-0.030572
-0.006884
-0.002721
-0.031344
-0.000382
0.027400
-0.002901
-0.001208
0.017332
-0.009029
-0.026149
-0.003769
-0.004810
-0.032395
-0.032526
0.024283
0.013831
-0.005841
0.015887
0.017981
-0.019839
-0.011292
0.007581
-0.015337
0.015652
-0.013117
-0.012214
0.019912
-0.021787
0.014239
-0.007731
0.005879
-0.016452
0.007631
-0.017338
-0.005371
-0.022601
-0.019447
-0.017197
0.017585
-0.014485
-0.010784
0.012124
-0.017032
-0.002856
-0.012668
0.024611
-0.027784
0.006652
-0.008508
0.005138
-0.029085
-0.026718
-0.028803
0.016441
-0.013016
0.025904
-0.009854
-0.021678
0.019123
-0.021001
0.023006
-0.008667
0.024441
0.016140
0.010255
-0.005398
-0.001033
0.008154
-0.010622
0.027806
0.001415
-0.003304
-0.031479
-0.030892
-0.007566
0.025232
-0.016469
0.004546
-0.022646
0.006690
0.023264
0.018692
-0.020570
-0.022149
0.020276
0.020718
-0.004509
0.008379
0.015449
-0.013898
-0.017942
0.021536
0.002954
-0.026426
-0.025823
-0.025198
-0.018369
0.017721
0.024011
-0.018119
0.001970
0.016523
-0.002451
0.020743
0.009868
-0.000847
0.017635
-0.019475
-0.013938
0.018667
-0.027571
-0.024070
0.022076
-0.001503
-0.022604
-0.011902
0.001015
0.019802
0.011301
0.027362
-0.024806
0.029164
-0.001792
-0.011039
0.025316
-0.028385
-0.007474
0.002925
-0.031023
-0.000099
0.026487
-0.002258
0.000078
0.029033
-0.029676
-0.002348
0.014407
0.013370
0.005025
0.008938
0.028259
-0.024665
0.028437
0.022796
0.011854
-0.026788
0.007885
-0.016349
-0.020574
0.014992
0.014100
-0.005277
0.010929
0.003987
-0.015724
0.013424
-0.006763
0.006921
0.015010
-0.026645
-0.008598
-0.022139
0.022178
-0.021366
0.018967
-0.017953
-0.013665
0.014649
0.016183
0.009045
-0.016709
0.001978
-0.025499
0.016993
0.012906
-0.001851
0.021316
-0.022176
0.025887
-0.000010
-0.008056
-0.000955
-0.001416
-0.020855
-0.024235
-0.013227
0.007514
0.010589
-0.004101
0.023102
0.024205
-0.016035
-0.026179
0.006130
0.006683
0.007689
0.014051
0.000002
0.004567
0.026768
0.010825
0.024863
-0.028642
0.002461
0.027993
0.012589
-0.006538
0.017693
-0.019566
-0.013217
0.021119
-0.009258
-0.003415
0.003542
0.016518
0.017190
-0.018359
-0.019043
-0.017435
-0.010508
-0.026117
-0.017534
-0.014960
0.000951
0.015393
0.018310
-0.020194
-0.022870
-0.026965
-0.001893
-0.002841
0.008119
-0.011287
0.019682
-0.027365
0.011610
-0.012334
0.005672
0.023825
-0.028215
0.009192
-0.024423
-0.020129
-0.021798
0.028712
-0.030436
-0.010479
-0.027751
-0.004348
0.026938
-0.009538
0.022413
-0.011617
0.028126
-0.029839
0.005609
-0.025687
0.025033
0.028578
0.000952
-0.006436
-0.000474
-0.001892
-0.029531
-0.023190
-0.004877
-0.008106
0.015752
0.015427
0.024835
-0.019123
0.010165
-0.014875
-0.015880
0.004815
0.013749
0.003782
-0.005834
0.005767
-0.025720
-0.016660
-0.021859
0.020380
-0.005749
-0.016905
-0.010016
0.011816
0.009757
0.015488
0.007170
0.023180
-0.014085
-0.021728
-0.025963
-0.027190
-0.001013
0.007232
-0.008883
-0.002454
0.024411
0.020210
-0.012216
-0.027290
-0.005984
-0.016416
-0.014127
-0.009896
0.002558
0.013402
-0.028051
-0.009084
-0.003880
-0.029398
0.001995
0.027674
0.005152
0.023810
-0.018669
-0.004436
-0.007702
-0.015904
0.022014
0.019586
0.002985
0.017873
-0.002366
0.015005
-0.024872
-0.017318
0.008600
-0.021299
-0.021063
0.022707
-0.021714
0.001483
0.011146
0.016862
-0.018705
-0.001432
-0.011133
-0.025817
0.014222
0.007039
0.013020
0.019239
0.011320
0.009517
0.015758
-0.023152
-0.013205
-0.021130
0.000477
-0.000474
0.026499
0.026330
0.011864
-0.018656
-0.026564
-0.020393
0.018568
0.016796
0.009770
0.027219
0.003515
-0.010571
0.000481
-0.017158
-0.029984
-0.002368
0.021119
0.008718
-0.000940
0.006628
-0.023859
-0.007020
0.027091
0.023579
0.023432
-0.025240
-0.024208
0.013942
-0.001349
-0.007064
-0.006602
0.027541
0.025456
0.022335
-0.026357
0.020300
-0.004382
-0.015167
-0.017688
0.015990
-0.012195
0.006078
-0.024757
-0.025178
0.004248
0.003957
0.005069
0.019582
-0.015683
0.017978
-0.019851
0.003555
-0.020196
0.018134
-0.012921
-0.016276
0.013888
0.011037
-0.016455
0.013486
0.022155
-0.001387
0.017775
0.020858
-0.024978
0.024860
-0.008629
0.021577
-0.020043
-0.024520
-0.023289
0.000097
0.005743
0.010239
-0.006571
0.013219
0.008615
0.007574
-0.001959
0.020935
-0.020718
0.003035
0.026061
0.025744
0.026647
0.011395
-0.003413
-0.028950
-0.023767
0.002880
0.001012
0.004993
0.017258
-0.019135
-0.012782
0.014672
0.015102
-0.009687
-0.016786
0.019879
0.022053
0.022784
-0.008357
0.010789
-0.003114
0.012281
0.001785
0.016562
-0.020597
0.009281
0.000476
-0.000531
-0.001478
-0.010611
0.020579
-0.025216
0.015810
0.016441
-0.018290
-0.025586
-0.017648
-0.019382
0.017508
-0.019670
-0.021989
-0.004936
-0.011463
0.004109
-0.028318
0.001052
-0.026767
-0.023498
-0.002920
-0.028491
0.001532
0.023364
0.010347
0.008261
-0.009659
0.006683
-0.011152
-0.010105
-0.022742
0.025450
-0.023930
-0.003940
0.006187
0.014960
-0.027613
-0.000894
0.024000
-0.000863
0.018820
-0.026259
0.021427
-0.020975
-0.004897
-0.015915
-0.017271
-0.012847
-0.016495
-0.015018
-0.014489
0.004737
-0.005896
-0.006809
0.018786
0.017196
-0.019066
-0.015002
0.017945
-0.019699
-0.018360
-0.009664
0.014148
0.008531
0.000736
-0.015842
-0.000410
0.016264
0.010912
0.007802
-0.021301
-0.001518
-0.015853
0.006367
-0.026171
-0.003505
0.019322
0.020143
-0.011754
-0.009014
0.011444
-0.020174
0.009579
0.014850
-0.014157
-0.002994
-0.003958
-0.025807
-0.027032
0.004686
0.002098
0.025619
0.022940
0.021771
0.020758
-0.027927
-0.004885
0.014501
-0.013346
-0.015707
-0.017911
0.004331
0.016055
0.016479
-0.008651
-0.007390
-0.012458
0.014299
-0.016092
0.020957
0.008060
-0.010323
-0.020318
-0.002033
0.013494
-0.011223
0.006229
-0.005551
0.016144
-0.017982
0.000029
-0.016622
-0.000426
-0.024268
-0.015264
0.019707
-0.024220
-0.019289
-0.018247
0.018719
-0.000025
-0.022254
-0.022925
0.012552
-0.025349
0.000552
-0.024860
0.026199
0.010587
0.021882
0.024433
0.012435
-0.019641
0.022411
-0.003443
-0.010675
-0.011750
0.017752
-0.022308
0.009303
-0.007596
-0.020876
0.006768
0.015508
0.003620
0.020972
-0.024784
0.022562
-0.009656
-0.000358
-0.004448
-0.002002
0.002568
0.025033
0.019841
0.002129
0.025297
-0.024601
-0.008875
0.017353
0.003076
-0.013761
0.005242
-0.023623
-0.006297
0.003998
-0.015692
0.003588
-0.012639
-0.010637
0.010358
-0.000224
-0.023256
0.015938
0.020758
-0.020867
0.020409
-0.011247
-0.002493
-0.022357
-0.019897
0.007336
-0.008170
0.023829
-0.006466
-0.001115
0.018476
0.013179
0.011754
-0.009321
0.001869
0.017839
-0.019226
0.013063
0.005400
0.000608
-0.023095
-0.024340
-0.017864