# vtk DataFile Version 2.0
Test
ASCII
DATASET POLYDATA
POINTS 5510 float
0.000000 0.000000 0.000000
0.080000 0.000000 0.000000
0.080000 0.160000 0.000000
0.000000 0.160000 0.000000
0.035000 0.076250 0.000000
0.046500 0.083750 0.000000
0.002000 0.000000 0.000000
0.004000 0.000000 0.000000
0.006000 0.000000 0.000000
0.008000 0.000000 0.000000
0.010000 0.000000 0.000000
0.012000 0.000000 0.000000
0.014000 0.000000 0.000000
0.016000 0.000000 0.000000
0.018000 0.000000 0.000000
0.020000 0.000000 0.000000
0.022000 0.000000 0.000000
0.024000 0.000000 0.000000
0.026000 0.000000 0.000000
0.028000 0.000000 0.000000
0.030000 0.000000 0.000000
0.032000 0.000000 0.000000
0.034000 0.000000 0.000000
0.036000 0.000000 0.000000
0.038000 0.000000 0.000000
0.040000 0.000000 0.000000
0.042000 0.000000 0.000000
0.044000 0.000000 0.000000
0.046000 0.000000 0.000000
0.048000 0.000000 0.000000
0.050000 0.000000 0.000000
0.052000 0.000000 0.000000
0.054000 0.000000 0.000000
0.056000 0.000000 0.000000
0.058000 0.000000 0.000000
0.060000 0.000000 0.000000
0.062000 0.000000 0.000000
0.064000 0.000000 0.000000
0.066000 0.000000 0.000000
0.068000 0.000000 0.000000
0.070000 0.000000 0.000000
0.072000 0.000000 0.000000
0.074000 0.000000 0.000000
0.076000 0.000000 0.000000
0.078000 0.000000 0.000000
0.080000 0.002000 0.000000
0.080000 0.004000 0.000000
0.080000 0.006000 0.000000
0.080000 0.008000 0.000000
0.080000 0.010000 0.000000
0.080000 0.012000 0.000000
0.080000 0.014000 0.000000
0.080000 0.016000 0.000000
0.080000 0.018000 0.000000
0.080000 0.020000 0.000000
0.080000 0.022000 0.000000
0.080000 0.024000 0.000000
0.080000 0.026000 0.000000
0.080000 0.028000 0.000000
0.080000 0.030000 0.000000
0.080000 0.032000 0.000000
0.080000 0.034000 0.000000
0.080000 0.036000 0.000000
0.080000 0.038000 0.000000
0.080000 0.040000 0.000000
0.080000 0.042000 0.000000
0.080000 0.044000 0.000000
0.080000 0.046000 0.000000
0.080000 0.048000 0.000000
0.080000 0.050000 0.000000
0.080000 0.052000 0.000000
0.080000 0.054000 0.000000
0.080000 0.056000 0.000000
0.080000 0.058000 0.000000
0.080000 0.060000 0.000000
0.080000 0.062000 0.000000
0.080000 0.064000 0.000000
0.080000 0.066000 0.000000
0.080000 0.068000 0.000000
0.080000 0.070000 0.000000
0.080000 0.072000 0.000000
0.080000 0.074000 0.000000
0.080000 0.076000 0.000000
0.080000 0.078000 0.000000
0.080000 0.080000 0.000000
0.080000 0.082000 0.000000
0.080000 0.084000 0.000000
0.080000 0.086000 0.000000
0.080000 0.088000 0.000000
0.080000 0.090000 0.000000
0.080000 0.092000 0.000000
0.080000 0.094000 0.000000
0.080000 0.096000 0.000000
0.080000 0.098000 0.000000
0.080000 0.100000 0.000000
0.080000 0.102000 0.000000
0.080000 0.104000 0.000000
0.080000 0.106000 0.000000
0.080000 0.108000 0.000000
0.080000 0.110000 0.000000
0.080000 0.112000 0.000000
0.080000 0.114000 0.000000
0.080000 0.116000 0.000000
0.080000 0.118000 0.000000
0.080000 0.120000 0.000000
0.080000 0.122000 0.000000
0.080000 0.124000 0.000000
0.080000 0.126000 0.000000
0.080000 0.128000 0.000000
0.080000 0.130000 0.000000
0.080000 0.132000 0.000000
0.080000 0.134000 0.000000
0.080000 0.136000 0.000000
0.080000 0.138000 0.000000
0.080000 0.140000 0.000000
0.080000 0.142000 0.000000
0.080000 0.144000 0.000000
0.080000 0.146000 0.000000
0.080000 0.148000 0.000000
0.080000 0.150000 0.000000
0.080000 0.152000 0.000000
0.080000 0.154000 0.000000
0.080000 0.156000 0.000000
0.080000 0.158000 0.000000
0.078000 0.160000 0.000000
0.076000 0.160000 0.000000
0.074000 0.160000 0.000000
0.072000 0.160000 0.000000
0.070000 0.160000 0.000000
0.068000 0.160000 0.000000
0.066000 0.160000 0.000000
0.064000 0.160000 0.000000
0.062000 0.160000 0.000000
0.060000 0.160000 0.000000
0.058000 0.160000 0.000000
0.056000 0.160000 0.000000
0.054000 0.160000 0.000000
0.052000 0.160000 0.000000
0.050000 0.160000 0.000000
0.048000 0.160000 0.000000
0.046000 0.160000 0.000000
0.044000 0.160000 0.000000
0.042000 0.160000 0.000000
0.040000 0.160000 0.000000
0.038000 0.160000 0.000000
0.036000 0.160000 0.000000
0.034000 0.160000 0.000000
0.032000 0.160000 0.000000
0.030000 0.160000 0.000000
0.028000 0.160000 0.000000
0.026000 0.160000 0.000000
0.024000 0.160000 0.000000
0.022000 0.160000 0.000000
0.020000 0.160000 0.000000
0.018000 0.160000 0.000000
0.016000 0.160000 0.000000
0.014000 0.160000 0.000000
0.012000 0.160000 0.000000
0.010000 0.160000 0.000000
0.008000 0.160000 0.000000
0.006000 0.160000 0.000000
0.004000 0.160000 0.000000
0.002000 0.160000 0.000000
0.000000 0.158000 0.000000
0.000000 0.156000 0.000000
0.000000 0.154000 0.000000
0.000000 0.152000 0.000000
0.000000 0.150000 0.000000
0.000000 0.148000 0.000000
0.000000 0.146000 0.000000
0.000000 0.144000 0.000000
0.000000 0.142000 0.000000
0.000000 0.140000 0.000000
0.000000 0.138000 0.000000
0.000000 0.136000 0.000000
0.000000 0.134000 0.000000
0.000000 0.132000 0.000000
0.000000 0.130000 0.000000
0.000000 0.128000 0.000000
0.000000 0.126000 0.000000
0.000000 0.124000 0.000000
0.000000 0.122000 0.000000
0.000000 0.120000 0.000000
0.000000 0.118000 0.000000
0.000000 0.116000 0.000000
0.000000 0.114000 0.000000
0.000000 0.112000 0.000000
0.000000 0.110000 0.000000
0.000000 0.108000 0.000000
0.000000 0.106000 0.000000
0.000000 0.104000 0.000000
0.000000 0.102000 0.000000
0.000000 0.100000 0.000000
0.000000 0.098000 0.000000
0.000000 0.096000 0.000000
0.000000 0.094000 0.000000
0.000000 0.092000 0.000000
0.000000 0.090000 0.000000
0.000000 0.088000 0.000000
0.000000 0.086000 0.000000
0.000000 0.084000 0.000000
0.000000 0.082000 0.000000
0.000000 0.080000 0.000000
0.000000 0.078000 0.000000
0.000000 0.076000 0.000000
0.000000 0.074000 0.000000
0.000000 0.072000 0.000000
0.000000 0.070000 0.000000
0.000000 0.068000 0.000000
0.000000 0.066000 0.000000
0.000000 0.064000 0.000000
0.000000 0.062000 0.000000
0.000000 0.060000 0.000000
0.000000 0.058000 0.000000
0.000000 0.056000 0.000000
0.000000 0.054000 0.000000
0.000000 0.052000 0.000000
0.000000 0.050000 0.000000
0.000000 0.048000 0.000000
0.000000 0.046000 0.000000
0.000000 0.044000 0.000000
0.000000 0.042000 0.000000
0.000000 0.040000 0.000000
0.000000 0.038000 0.000000
0.000000 0.036000 0.000000
0.000000 0.034000 0.000000
0.000000 0.032000 0.000000
0.000000 0.030000 0.000000
0.000000 0.028000 0.000000
0.000000 0.026000 0.000000
0.000000 0.024000 0.000000
0.000000 0.022000 0.000000
0.000000 0.020000 0.000000
0.000000 0.018000 0.000000
0.000000 0.016000 0.000000
0.000000 0.014000 0.000000
0.000000 0.012000 0.000000
0.000000 0.010000 0.000000
0.000000 0.008000 0.000000
0.000000 0.006000 0.000000
0.000000 0.004000 0.000000
0.000000 0.002000 0.000000
0.035411 0.076518 0.000000
0.035821 0.076786 0.000000
0.036232 0.077054 0.000000
0.036643 0.077321 0.000000
0.037054 0.077589 0.000000
0.037464 0.077857 0.000000
0.037875 0.078125 0.000000
0.038286 0.078393 0.000000
0.038696 0.078661 0.000000
0.039107 0.078929 0.000000
0.039518 0.079196 0.000000
0.039929 0.079464 0.000000
0.040339 0.079732 0.000000
0.040750 0.080000 0.000000
0.041161 0.080268 0.000000
0.041571 0.080536 0.000000
0.041982 0.080804 0.000000
0.042393 0.081071 0.000000
0.042804 0.081339 0.000000
0.043214 0.081607 0.000000
0.043625 0.081875 0.000000
0.044036 0.082143 0.000000
0.044446 0.082411 0.000000
0.044857 0.082679 0.000000
0.045268 0.082946 0.000000
0.045679 0.083214 0.000000
0.046089 0.083482 0.000000
0.040000 0.002000 0.000000
0.040001 0.158005 0.000000
0.002000 0.116000 0.000000
0.078000 0.048000 0.000000
0.002000 0.106000 0.000000
0.078000 0.058000 0.000000
0.001986 0.042173 0.000000
0.078015 0.117826 0.000000
0.001985 0.094174 0.000000
0.001985 0.084174 0.000000
0.001914 0.056074 0.000000
0.002000 0.072000 0.000000
0.078015 0.065826 0.000000
0.078016 0.075826 0.000000
0.078000 0.088000 0.000000
0.078000 0.104000 0.000000
0.078003 0.029997 0.000000
0.001998 0.130002 0.000000
0.002000 0.032000 0.000000
0.078013 0.128003 0.000000
0.056000 0.158000 0.000000
0.026000 0.002000 0.000000
0.060000 0.002000 0.000000
0.020000 0.158000 0.000000
0.002000 0.020000 0.000000
0.078000 0.142000 0.000000
0.002000 0.146000 0.000000
0.078000 0.020000 0.000000
0.016000 0.002000 0.000000
0.068000 0.002000 0.000000
0.066000 0.158000 0.000000
0.002000 0.014000 0.000000
0.008000 0.158000 0.000000
0.010000 0.002000 0.000000
0.078000 0.148000 0.000000
0.078000 0.008000 0.000000
0.078005 0.037995 0.000000
0.051991 0.001990 0.000000
0.028000 0.158000 0.000000
0.002000 0.008000 0.000000
0.078000 0.094000 0.000000
0.078000 0.110000 0.000000
0.001983 0.066159 0.000000
0.002000 0.050000 0.000000
0.046000 0.158000 0.000000
0.078000 0.134000 0.000000
0.002000 0.140000 0.000000
0.006000 0.002000 0.000000
0.002000 0.154000 0.000000
0.074000 0.002000 0.000000
0.078000 0.152000 0.000000
0.074000 0.158000 0.000000
0.078000 0.080000 0.000000
0.078000 0.070000 0.000000
0.078000 0.122000 0.000000
0.002000 0.090000 0.000000
0.002000 0.080000 0.000000
0.002000 0.038000 0.000000
0.002000 0.102000 0.000000
0.002000 0.112000 0.000000
0.036000 0.002000 0.000000
0.078000 0.042000 0.000000
0.032000 0.002000 0.000000
0.047987 0.001989 0.000000
0.032008 0.158010 0.000000
0.002000 0.028000 0.000000
0.002000 0.126000 0.000000
0.060000 0.158000 0.000000
0.022000 0.002000 0.000000
0.002000 0.136000 0.000000
0.078000 0.024000 0.000000
0.012000 0.158000 0.000000
0.078000 0.158000 0.000000
0.001947 0.003947 0.000000
0.002000 0.158000 0.000000
0.078000 0.012000 0.000000
0.078000 0.096000 0.000000
0.078000 0.098000 0.000000
0.078000 0.082000 0.000000
0.078111 0.099889 0.000000
0.078035 0.083965 0.000000
0.078000 0.090000 0.000000
0.078000 0.106000 0.000000
0.078000 0.072000 0.000000
0.078000 0.112000 0.000000
0.078043 0.061976 0.000000
0.078000 0.114000 0.000000
0.002000 0.064000 0.000000
0.002000 0.062000 0.000000
0.002000 0.088000 0.000000
0.002000 0.078000 0.000000
0.002000 0.060000 0.000000
0.001966 0.076034 0.000000
0.002000 0.070000 0.000000
0.002000 0.054000 0.000000
0.001957 0.098024 0.000000
0.002000 0.048000 0.000000
0.002000 0.046000 0.000000
[...]
POINT_DATA 5510
SCALARS UX float 1
LOOKUP_TABLE default
0.061338
0.178448
0.000005
-0.114989
0.026170
0.038903
0.064279
0.067220
0.070162
0.073104
0.076047
0.078991
0.081937
0.084885
0.087834
0.090784
0.093734
0.096683
0.099628
0.102569
0.105503
0.108429
0.111351
0.114267
0.117176
0.120078
0.122974
0.125863
0.128748
0.131628
0.134506
0.137383
0.140260
0.143138
0.146019
0.148904
0.151799
0.154701
0.157616
0.160538
0.163474
0.166426
0.169401
0.172407
0.175416
0.176427
0.174451
0.172528
0.170604
0.168760
0.166916
0.165138
0.163360
0.161595
0.159834
0.158080
0.156345
0.154607
0.152850
0.151077
0.149284
0.147465
0.145615
0.143733
0.141815
0.139860
0.137915
0.135942
0.133951
0.131967
0.129939
0.127903
0.125864
0.123827
0.121790
0.119753
0.117719
0.115685
0.113649
0.111608
0.109567
0.107518
0.105467
0.103413
0.101353
0.099293
0.097224
0.095150
0.093078
0.091012
0.088917
0.086790
0.084615
0.082045
0.078103
0.073961
0.069235
0.064351
0.059832
0.055907
0.052575
0.049379
0.046994
0.044683
0.042519
0.040454
0.038396
0.036376
0.034355
0.032335
0.030317
0.028299
0.026281
0.024267
0.022258
0.020252
0.018247
0.016254
0.014259
0.012255
0.010258
0.008184
0.005940
0.003251
-0.000046
-0.002887
-0.005915
-0.008948
-0.011925
-0.014905
-0.017904
-0.020892
-0.023867
-0.026839
-0.029801
-0.032758
-0.035709
-0.038656
-0.041601
-0.044534
-0.047461
-0.050384
-0.053300
-0.056210
-0.059116
-0.062016
-0.064911
-0.067803
-0.070695
-0.073585
-0.076476
-0.079368
-0.082263
-0.085164
-0.088073
-0.090995
-0.093930
-0.096876
-0.099833
-0.102808
-0.105812
-0.108857
-0.111907
-0.112941
-0.110959
-0.108967
-0.107095
-0.105235
-0.103395
-0.101606
-0.099830
-0.098055
-0.096289
-0.094532
-0.092777
-0.091020
-0.089236
-0.087431
-0.085600
-0.083734
-0.081880
-0.079991
-0.078098
-0.076187
-0.074268
-0.072330
-0.070378
-0.068433
-0.066452
-0.064462
-0.062464
-0.060464
-0.058456
-0.056442
-0.054422
-0.052398
-0.050368
-0.048329
-0.046289
-0.044241
-0.042191
-0.040138
-0.038079
-0.036021
-0.033953
-0.031885
-0.029817
-0.027764
-0.025680
-0.023572
-0.021373
-0.019017
-0.015466
-0.011538
-0.007382
-0.002908
0.001795
0.006174
0.010337
0.013185
0.015797
0.018295
0.020623
0.022800
0.024939
0.026962
0.028984
0.031006
0.033030
0.035052
0.037076
0.039099
0.041123
0.043147
0.045170
0.047193
0.049215
0.051236
0.053257
0.055278
0.057298
0.059318
0.026624
0.027114
0.027795
0.028445
0.028969
0.029360
0.029771
0.030223
0.030538
0.030993
0.031389
0.031719
0.032141
0.032566
0.033051
0.033519
0.034020
0.034486
0.034932
0.035343
0.035734
0.036083
0.036493
0.036885
0.037352
0.037860
0.038319
0.118084
-0.054214
-0.071274
0.130990
-0.061564
0.120906
0.021278
0.041788
-0.049693
-0.039482
-0.003344
-0.026923
0.112966
0.102749
0.090171
0.064476
0.147830
-0.084220
0.031949
0.031406
-0.030725
0.097604
0.146933
-0.083180
0.044070
0.017292
-0.098383
0.156616
0.082861
0.158542
-0.015877
0.050136
-0.100768
0.074026
0.011258
0.167511
0.140619
0.135411
-0.071604
0.056199
0.083828
0.051989
-0.020798
0.010631
-0.045448
0.025340
-0.093048
0.068142
-0.105847
0.167360
0.007185
-0.004092
0.098439
0.108691
0.037446
-0.045422
-0.035175
0.025872
-0.057569
-0.067454
0.112262
0.136833
0.106419
0.129645
-0.065818
0.035985
-0.080610
-0.024796
0.091708
-0.089523
0.153083
-0.094857
0.000696
0.060216
-0.109801
0.163786
0.081431
0.078032
0.096377
0.074340
0.094396
0.088088
0.059785
0.106645
0.048780
0.116922
0.046123
-0.018309
-0.015189
-0.043377
-0.033115
-0.011459
-0.031133
-0.024849
0.001734
-0.053630
0.013928
0.016612
0.124974
0.134933
0.128996
-0.065501
-0.075044
0.035423
0.027914
0.123880
-0.060024
-0.051296
0.144280
-0.042516
-0.039576
-0.078761
0.103489
0.141170
-0.077389
0.038006
0.029389
0.023325
0.040028
0.021313
-0.087759
-0.036632
0.151338
-0.096606
-0.021827
0.088758
0.152718
-0.088996
0.015284
0.160177
-0.102075
0.046092
0.052158
-0.012892
0.079915
-0.009944
0.005107
-0.106751
0.065118
0.062065
0.171353
0.164405
0.173344
-0.064525
0.128030
-0.042549
-0.032368
-0.024050
-0.007707
0.014493
0.095628
0.087292
0.069958
0.105810
0.045603
-0.052185
-0.075676
0.028430
0.028824
0.104395
-0.034638
0.038942
0.018370
0.089685
-0.086270
0.149848
-0.022773
0.049038
0.080842
-0.095231
-0.010996
0.059771
0.132033
0.053081
0.004122
0.165350
0.091666
0.074407
0.080777
-0.028412
-0.011725
-0.017626
0.019698
0.086261
0.092523
0.070008
0.100846
0.104710
0.056064
0.111078
0.043921
-0.023040
-0.041440
-0.029261
-0.047805
-0.007513
-0.037577
0.006134
0.018984
0.114903
-0.051623
0.118963
-0.055653
0.123031
0.039942
-0.059654
0.023262
0.127075
-0.063620
-0.069605
0.133011
-0.073219
0.138771
-0.076940
0.120976
-0.057110
0.115170
-0.048368
0.126758
-0.062915
0.033460
0.029880
0.142467
0.109338
0.132527
-0.068706
-0.040483
0.138288
-0.074493
-0.082424
0.033950
0.027371
0.146060
0.040961
0.100547
0.022385
-0.033681
0.144048
-0.080281
0.042044
0.019307
-0.085994
0.149584
-0.091281
-0.027765
0.094657
-0.094825
0.154839
-0.018853
0.085809
-0.086083
0.149820
-0.091919
0.155622
0.013273
0.048115
-0.097809
0.158384
-0.100216
0.009237
0.161967
0.054178
0.076970
-0.103938
-0.007009
0.165611
0.002942
0.071084
0.058220
-0.103747
0.063181
0.161466
-0.001440
-0.104718
-0.107782
0.169403
0.168323
0.170335
-0.053263
0.116559
-0.004303
0.124778
0.066346
0.041893
-0.066780
0.136350
-0.078309
0.147851
0.158838
-0.089928
0.010301
0.139356
0.113278
-0.095792
-0.100835
0.083142
0.040938
-0.019929
0.112411
0.107971
-0.049143
-0.044679
0.101784
0.097749
-0.038523
-0.034455
0.120494
-0.057137
0.036678
0.032846
-0.060928
0.036920
0.142801
0.024421
-0.079232
0.098529
0.092632
0.083788
0.153643
-0.091613
-0.088042
0.074950
0.057121
-0.097076
0.155217
0.151619
-0.005271
0.001983
0.162550
0.163367
0.085140
0.089247
-0.021901
0.064723
-0.025995
0.043504
-0.003170
0.010818
0.130027
0.103795
-0.040529
0.022197
0.026691
-0.066492
-0.070178
0.051344
0.055314
0.124106
0.126029
-0.060684
-0.062561
-0.055223
0.077991
0.093689
-0.073850
-0.014949
-0.030429
0.048473
0.135699
0.133875
0.017071
0.030816
0.030469
0.130555
0.107407
-0.043390
0.119090
-0.046455
0.026444
-0.077486
-0.072535
-0.031700
0.101461
0.146314
0.148074
-0.082733
-0.084502
0.016350
0.142091
0.042964
0.047019
-0.037562
0.020385
0.086742
-0.049325
-0.025734
-0.084104
-0.016850
-0.019817
-0.013896
-0.093397
0.077896
0.159469
0.051058
0.055100
0.069065
0.162401
-0.008124
0.066123
0.166355
0.006219
-0.000130
-0.102755
0.061162
-0.101718
0.029620
0.130933
-0.058500
0.040019
-0.031665
-0.041980
-0.019507
-0.047100
0.105258
0.095029
0.082484
-0.070906
0.027560
-0.032623
0.105313
0.143090
0.017451
-0.079502
0.090611
-0.017836
0.049970
0.081774
-0.088418
0.058044
0.014569
-0.000079
0.048428
-0.006374
0.087267
-0.024117
0.024900
0.127349
0.074712
-0.011809
0.039868
0.033721
-0.074313
0.099447
0.075878
0.012322
-0.092098
0.003195
0.060320
0.080355
0.045159
-0.017229
0.099848
0.110119
-0.036584
-0.046851
0.114495
-0.051215
-0.068371
0.090899
0.070206
-0.008081
0.118610
-0.055284
0.024339
-0.027644
0.038453
-0.071894
0.002225
0.008006
-0.044302
-0.053080
-0.063769
0.101408
-0.038144
0.137552
-0.058808
0.020119
0.122192
0.133395
0.110281
0.116121
0.127609
0.034583
0.032546
0.141103
0.034870
0.123398
-0.028697
0.144576
-0.069656
-0.080984
0.015413
0.023520
-0.038472
0.095573
0.044976
-0.059969
-0.063638
0.139220
-0.075421
0.144868
0.148432
0.043884
-0.081273
-0.084824
-0.023721
-0.014905
0.021461
0.144971
-0.081206
-0.089824
0.084731
-0.058057
0.153412
0.054006
0.014340
-0.087012
0.150740
-0.012029
0.156550
0.157009
0.160418
0.072008
0.008267
-0.098934
0.160680
0.064104
-0.092850
0.161422
0.164429
0.059141
-0.001004
-0.002653
-0.099731
-0.098745
0.121918
0.051834
-0.055648
-0.014830
-0.000606
0.078197
-0.042559
-0.076314
0.020568
0.122814
0.139916
0.042789
-0.064805
0.134384
0.148774
-0.015912
-0.076333
0.082705
0.153898
0.115264
-0.085036
0.158460
-0.090870
0.066505
-0.051966
0.136187
0.014489
0.004487
0.096426
-0.033552
-0.047920
-0.043362
0.111178
0.106634
0.111289
-0.077784
-0.026703
0.047919
0.093547
0.150244
0.011393
0.060063
-0.096752
0.011643
0.099740
-0.036493
0.027636
0.045778
-0.022411
0.085054
0.042412
-0.054396
0.117694
0.121896
-0.005597
0.129114
-0.056877
-0.067321
-0.065286
-0.069188
0.092730
-0.029585
0.088622
0.029538
0.033939
-0.025407
0.108190
-0.058952
-0.055900
0.077495
-0.014389
0.103228
-0.039968
0.055787
0.031692
0.141323
0.132716
0.017582
0.128574
0.038077
-0.076038
-0.072600
0.117023
-0.029701
-0.061729
0.045883
0.096507
0.025543
0.102350
-0.067699
0.037865
0.035742
0.125180
0.022475
0.146642
0.137261
-0.035548
0.137895
-0.041380
-0.083040
-0.086618
0.019471
0.013410
0.046802
-0.079230
0.143006
0.051980
0.087669
0.154573
-0.020777
0.078823
-0.013051
0.056020
-0.070570
0.009359
0.005279
0.157490
0.157629
0.159513
0.069990
0.072936
0.062084
0.067046
-0.090256
-0.009194
-0.093986
-0.097783
-0.050211
-0.003704
0.001082
0.127940
0.113154
-0.033884
-0.025742
0.022817
-0.000652
0.097148
0.089134
0.109094
-0.062875
0.132441
-0.074373
-0.027716
-0.014060
-0.083462
0.054917
-0.064727
0.008457
0.032514
0.097437
0.119030
0.102986
-0.039704
0.058968
0.076812
0.070917
-0.089039
-0.094785
-0.051093
0.075278
0.055760
0.084507
0.079741
-0.021497
-0.016809
-0.012237
0.124551
0.048353
0.017777
0.138215
0.016527
0.092543
0.091537
0.143485
0.085647
0.063008
0.002284
-0.004678
-0.045387
-0.067886
-0.071206
-0.074604
0.070390
0.062488
-0.062848
0.042743
0.037708
-0.008883
0.108585
-0.045324
-0.053532
-0.049901
-0.049829
0.113101
0.120359
0.036085
0.031775
0.098906
-0.035636
0.003940
-0.039704
-0.036459
0.034581
-0.054161
0.022545
0.026702
0.038748
-0.061900
-0.057252
0.027327
0.134476
0.131494
-0.024676
0.125698
0.018563
0.119856
0.048791
0.120585
0.141705
0.103268
-0.060752
-0.079854
-0.078083
0.040755
0.152060
-0.073443
0.140131
0.044798
0.012493
0.079756
0.147107
-0.021736
-0.018806
-0.033551
0.139585
-0.065732
-0.082126
0.151667
-0.085301
0.145885
0.050881
0.007333
0.155530
0.154619
0.155755
-0.010226
-0.087950
-0.001882
0.156529
0.067971
0.065027
-0.093798
-0.095869
0.114138
-0.029122
0.008487
0.097666
-0.034407
0.035377
-0.051350
0.116264
-0.014127
-0.031909
0.075035
0.094956
-0.040591
0.019698
0.045694
-0.071469
-0.060911
0.135035
0.011584
0.083635
0.141043
-0.080368
-0.049381
0.051733
-0.083060
0.067562
0.033025
-0.043569
-0.047868
0.106825
0.111054
0.114639
-0.034467
-0.025638
0.028824
0.115038
0.131331
0.120839
-0.074923
0.138574
-0.071512
0.077745
0.004360
0.146811
0.152613
-0.092846
-0.004198
-0.031983
0.095159
0.035856
0.082328
0.087075
-0.018902
0.030511
-0.023627
-0.041080
0.104336
0.040419
0.126161
0.116679
0.051893
0.007857
0.042793
0.020482
0.003275
-0.011982
0.036554
0.100839
0.024736
-0.037571
-0.053024
-0.051496
0.111958
0.134763
-0.072918
0.136466
0.129565
0.058562
0.025281
0.015630
0.129638
0.090673
0.123772
0.041759
-0.058953
-0.069484
-0.068598
0.094469
0.010493
0.148972
0.152730
-0.019789
0.088578
0.047720
-0.081653
-0.059997
-0.057043
0.106150
0.056933
0.122290
-0.016907
0.006410
0.145295
-0.030627
-0.087158
-0.011239
0.052898
0.073861
-0.085975
-0.091830
0.068899
0.135300
-0.090934
-0.077256
0.151653
0.153585
0.060986
-0.002768
0.000190
0.065953
-0.007423
0.100348
-0.048250
-0.066229
-0.027254
-0.031320
0.015423
-0.006790
0.093990
0.072919
-0.045779
0.109041
0.058167
0.086222
0.124858
-0.049364
0.106881
0.023384
-0.011415
0.007843
0.112798
0.048585
0.098348
0.127628
-0.062045
-0.017899
0.144076
-0.072398
0.057859
-0.043614
-0.037436
0.100691
0.005522
0.149741
-0.081098
-0.084118
-0.026659
0.090267
0.037003
0.121592
0.086616
0.081995
0.078028
0.110638
0.114553
0.039784
-0.046549
-0.023401
-0.064896
-0.028534
-0.078523
0.092460
0.086567
-0.012233
0.071844
-0.005623
0.107066
-0.030162
0.093458
-0.018779
-0.000002
0.072412
0.052105
0.044939
0.032964
0.029383
-0.047748
0.039818
-0.049529
0.011639
0.006791
0.030921
0.037419
-0.009374
0.011681
0.098094
-0.037372
0.021785
-0.034942
0.033491
-0.043429
0.026073
-0.055201
-0.052207
-0.068119
0.131631
0.062788
-0.031582
0.017694
0.126645
0.049690
0.126513
-0.054571
0.117875
-0.073162
0.117741
-0.076709
0.136786
-0.066670
-0.063763
-0.057919
0.043576
-0.022686
0.013632
0.133013
0.138167
-0.033227
0.096504
0.059887
0.066880
-0.069773
0.080684
0.003446
-0.000706
-0.080144
-0.082233
0.074801
0.149703
0.150844
0.009591
0.028149
0.140387
-0.008434
0.143926
0.148735
-0.089873
0.061912
0.053793
0.150669
0.063934
-0.088893
0.101274
-0.087922
0.130472
0.133302
-0.058075
0.017698
0.070517
0.055491
-0.041650
0.104912
0.033856
0.084367
-0.015870
0.036003
0.121733
-0.039239
0.102517
-0.027726
0.074948
0.091239
0.058756
-0.044308
0.018956
-0.065114
-0.032712
-0.056122
0.099271
0.130189
-0.071824
0.125658
0.084556
0.010720
0.054626
-0.077334
0.097576
-0.034312
0.060806
0.002532
0.135490
0.075736
0.139078
0.146797
0.129969
-0.061847
-0.078189
0.147842
0.069824
0.064864
-0.084985
0.066456
-0.013329
0.101785
-0.038536
0.080032
0.031938
0.081963
-0.020932
-0.059617
-0.045384
0.112586
0.123160
-0.046043
0.011693
0.048351
-0.047636
0.020268
0.088316
0.108857
0.023940
0.030479
0.028000
0.118761
-0.035984
-0.066554
-0.047407
0.115609
-0.006224
-0.008943
0.128165
0.014766
-0.050422
-0.024886
-0.063280
-0.029475
0.121790
-0.050558
0.072206
0.124716
0.092696
-0.029386
0.113575
-0.028695
0.046304
0.041723
-0.068347
0.051121
0.007590
-0.073637
-0.023648
0.131939
-0.056195
0.095413
0.142215
0.119380
0.089490
-0.075283
0.145952
-0.020761
0.147742
0.081622
0.055817
-0.079218
-0.015052
-0.003662
-0.084005
0.006696
0.141972
0.050580
0.001391
0.091660
0.025898
-0.069539
-0.006571
-0.009413
-0.086936
-0.086022
0.133324
0.104151
0.038094
0.109925
0.095796
-0.032533
0.014219
0.040376
-0.038631
0.084607
-0.002850
0.003820
0.103102
-0.039848
0.078925
0.031516
0.031946
-0.017125
0.039257
-0.020569
0.038750
-0.046547
-0.032002
-0.021013
0.095263
-0.010985
0.011643
0.071990
-0.042700
0.049301
-0.030441
0.127089
-0.068823
0.082545
-0.018877
0.030301
-0.074350
-0.070424
-0.076239
0.110773
-0.003844
0.137134
0.020644
-0.041031
0.101064
-0.037808
0.118781
0.026155
0.125175
0.087696
0.093389
-0.010363
0.058742
0.087477
0.015532
0.139185
0.067807
-0.004557
-0.083044
-0.082062
0.030792
0.128469
-0.018132
0.027462
-0.044928
0.036583
0.120133
0.099013
-0.035781
-0.044563
0.106142
0.108523
0.043764
0.044761
0.084684
-0.033938
-0.024257
0.112231
0.021012
-0.062005
-0.059392
-0.056723
-0.026058
0.114361
0.123392
-0.045735
0.016888
0.089360
0.052553
0.122779
0.054802
0.004655
0.094235
-0.030925
-0.008694
0.116994
-0.066724
-0.051900
0.114928
0.056690
-0.058952
0.003485
0.012768
0.104296
0.096332
0.137322
-0.055083
0.144884
0.000489
-0.026543
0.136193
-0.070082
-0.016040
0.072770
-0.081120
0.062822
0.133690
-0.001597
0.008705
0.145830
-0.075456
0.051429
0.105067
0.102146
0.078676
0.047834
0.141075
-0.064705
0.144850
0.128494
0.069112
-0.063504
0.042239
-0.041462
-0.053291
0.082890
0.079326
0.040338
0.062572
0.025349
-0.015020
0.076569
0.034182
0.037818
0.081073
-0.061424
0.029301
-0.042996
0.116914
-0.042478
0.101924
-0.025431
-0.008471
0.082387
0.088917
0.051508
-0.041110
0.018286
-0.059231
0.111634
0.100136
0.052133
0.123674
-0.057056
0.132467
0.009870
-0.017012
0.057495
0.003772
-0.038689
-0.053848
-0.031431
0.041931
0.063078
0.044304
0.120693
0.125381
-0.039898
-0.062109
0.034385
0.037758
0.085465
0.079687
0.061652
0.076674
0.136201
0.094285
0.134243
-0.072470
0.070748
0.142937
0.074001
0.034293
0.096040
-0.032794
-0.005373
0.110457
0.023538
0.046993
0.023444
0.090507
0.093569
-0.027211
-0.030294
-0.022214
0.014103
-0.060666
-0.023625
-0.036881
0.013980
0.085618
0.098831
-0.035576
-0.047907
-0.065380
0.001683
-0.002498
0.044932
0.007941
0.119819
-0.067063
0.069438
0.000027
0.032446
0.131359
-0.070644
0.090398
-0.053449
-0.051346
-0.042986
0.142976
-0.080118
0.017332
-0.073311
-0.007473
0.140009
-0.021718
0.116460
-0.027494
0.141968
-0.079125
0.079610
-0.067558
0.128861
0.143895
0.065786
-0.013205
0.007863
0.053414
-0.076252
-0.059888
0.040786
0.028556
0.086060
0.107923
0.126818
-0.048539
0.059563
-0.012606
-0.015945
0.028806
0.077905
0.025387
0.036790
0.033811
-0.058702
-0.019084
-0.042711
0.106905
0.036440
-0.021970
0.014662
0.071646
0.059564
0.087079
0.041639
0.122323
-0.010238
-0.055104
-0.062425
-0.067691
0.007042
0.083469
0.023846
0.000813
0.132297
0.107803
-0.001148
-0.071337
-0.011312
-0.018789
-0.033881
0.017969
0.020522
0.077358
-0.071409
-0.019838
-0.005439
-0.077214
0.068723
0.140043
0.077614
0.123719
-0.046570
0.041352
0.029030
-0.038857
0.115791
0.104786
0.022479
0.114082
0.050003
0.083940
-0.056556
-0.023761
0.048152
-0.040580
-0.041027
0.119073
-0.044049
0.016212
0.066862
0.092077
-0.028781
0.055421
0.006462
-0.060597
0.080681
0.039634
0.075748
0.117905
0.069333
0.055184
0.087191
-0.049244
-0.006414
-0.054139
0.011947
0.059584
0.138104
0.134341
0.097208
-0.029773
-0.063708
-0.036751
0.100189
0.093046
0.091317
0.138106
0.073714
-0.024579
0.063728
-0.022035
-0.078179
-0.000401
0.112101
0.088357
0.005843
0.035227
-0.052283
-0.014166
0.139075
0.124030
0.122124
-0.065612
-0.062734
0.103051
0.054237
0.031585
0.033563
0.141003
0.130646
0.126514
-0.064115
0.120841
0.042840
-0.013950
-0.043838
0.108804
-0.028460
0.035284
-0.055824
-0.057853
0.027813
0.026451
0.031242
0.104178
-0.015748
0.097283
-0.034018
0.026046
-0.038643
0.099545
-0.006177
-0.020307
0.080196
0.069099
-0.039793
0.101058
0.119293
0.052745
0.113084
0.121692
-0.059568
0.129505
-0.017955
0.115464
-0.036330
-0.056297
-0.051014
0.060474
0.035009
0.063128
-0.012265
0.077260
0.051020
0.043823
0.002955
0.111071
-0.052289
0.071648
0.136204
0.133293
0.137165
0.095180
-0.003378
-0.075284
-0.060806
0.022861
0.015568
0.031660
0.095344
-0.032078
-0.004360
0.083601
0.085409
0.019913
-0.020466
0.106284
0.117464
0.120637
0.026252
0.066533
0.047055
0.073642
0.018497
0.109741
-0.040361
0.055811
0.013305
0.009087
0.005032
0.010269
0.109428
-0.059250
0.088557
0.091480
-0.028193
-0.060820
-0.025260
-0.033324
0.096617
-0.049366
-0.045362
-0.008404
0.003479
0.074674
-0.074204
0.064614
-0.065878
-0.050757
-0.001226
-0.073305
0.066705
0.129383
0.092233
0.086367
0.017435
0.039320
-0.025551
-0.022651
-0.057940
0.135186
-0.053729
0.043400
0.080528
0.105902
-0.069523
0.056218
0.125818
0.054908
0.116000
-0.068452
0.113506
-0.040237
0.039427
-0.016837
-0.042000
-0.029750
-0.020287
-0.013922
-0.011842
0.029743
0.035337
0.031601
0.101974
0.094732
-0.031464
-0.036318
0.099598
-0.037586
-0.029894
0.014671
0.082360
0.052912
0.015415
-0.037475
0.055492
0.108162
0.093117
0.084369
-0.053225
0.006309
-0.018589
0.039111
-0.064786
0.043957
0.105243
0.109179
-0.000573
0.021053
0.070967
-0.037995
0.060885
0.085369
-0.011310
-0.000002
-0.004190
-0.066500
-0.068541
0.075591
0.067584
0.134288
0.127505
0.117627
0.113131
-0.072427
0.038821
0.103902
-0.008011
-0.016943
-0.027607
0.029339
0.090899
0.093159
0.023588
0.029187
-0.004071
0.082016
-0.018592
0.113098
0.046953
0.009852
-0.037705
0.050340
0.078590
0.003028
0.037166
-0.009416
0.090094
-0.026786
0.012674
-0.021836
0.058243
-0.055150
-0.015106
0.106939
-0.056316
-0.047611
-0.044708
0.102414
0.011203
-0.046631
-0.049503
0.074872
-0.061211
0.062468
-0.057743
0.135238
0.066855
0.124552
0.127678
0.098104
-0.034636
0.119040
0.045449
-0.023590
-0.026574
0.097903
-0.056035
0.089299
-0.015105
-0.041665
0.081458
0.106773
0.072588
0.112698
-0.063648
0.121054
-0.020784
0.057014
-0.006311
0.004258
0.069623
0.133336
0.118854
0.020156
0.131375
-0.057927
0.020391
0.111199
0.024050
-0.032114
0.032950
-0.052401
0.033654
0.027890
-0.037656
0.027255
-0.005850
0.004944
0.066923
0.012533
-0.053503
0.106586
0.114645
-0.051325
0.119736
-0.024553
0.003558
-0.048215
-0.038602
0.082354
-0.016039
0.126551
0.031902
0.052869
0.102777
0.078082
0.072372
0.014566
0.020051
0.099813
-0.034079
0.099221
0.034728
0.061197
-0.051284
-0.061717
-0.042959
0.065465
0.131415
0.116054
-0.056687
0.087264
0.008399
0.080266
-0.015203
-0.012478
0.111230
0.075650
-0.016824
-0.034951
0.026776
0.023790
-0.000796
0.042234
0.048934
-0.035833
0.056741
0.083853
0.017085
0.036887
-0.018578
-0.053441
-0.023389
-0.025932
0.086727
0.089245
0.058992
-0.010192
-0.007150