# vtk DataFile Version 2.0
Test
ASCII
DATASET POLYDATA
POINTS 5510 float
0.000000 0.000000 0.000000
0.080000 0.000000 0.000000
0.080000 0.160000 0.000000
0.000000 0.160000 0.000000
0.035000 0.076250 0.000000
0.046500 0.083750 0.000000
0.002000 0.000000 0.000000
0.004000 0.000000 0.000000
0.006000 0.000000 0.000000
0.008000 0.000000 0.000000
0.010000 0.000000 0.000000
0.012000 0.000000 0.000000
0.014000 0.000000 0.000000
0.016000 0.000000 0.000000
0.018000 0.000000 0.000000
0.020000 0.000000 0.000000
0.022000 0.000000 0.000000
0.024000 0.000000 0.000000
0.026000 0.000000 0.000000
0.028000 0.000000 0.000000
0.030000 0.000000 0.000000
0.032000 0.000000 0.000000
0.034000 0.000000 0.000000
0.036000 0.000000 0.000000
0.038000 0.000000 0.000000
0.040000 0.000000 0.000000
0.042000 0.000000 0.000000
0.044000 0.000000 0.000000
0.046000 0.000000 0.000000
0.048000 0.000000 0.000000
0.050000 0.000000 0.000000
0.052000 0.000000 0.000000
0.054000 0.000000 0.000000
0.056000 0.000000 0.000000
0.058000 0.000000 0.000000
0.060000 0.000000 0.000000
0.062000 0.000000 0.000000
0.064000 0.000000 0.000000
0.066000 0.000000 0.000000
0.068000 0.000000 0.000000
0.070000 0.000000 0.000000
0.072000 0.000000 0.000000
0.074000 0.000000 0.000000
0.076000 0.000000 0.000000
0.078000 0.000000 0.000000
0.080000 0.002000 0.000000
0.080000 0.004000 0.000000
0.080000 0.006000 0.000000
0.080000 0.008000 0.000000
0.080000 0.010000 0.000000
0.080000 0.012000 0.000000
0.080000 0.014000 0.000000
0.080000 0.016000 0.000000
0.080000 0.018000 0.000000
0.080000 0.020000 0.000000
0.080000 0.022000 0.000000
0.080000 0.024000 0.000000
0.080000 0.026000 0.000000
0.080000 0.028000 0.000000
0.080000 0.030000 0.000000
0.080000 0.032000 0.000000
0.080000 0.034000 0.000000
0.080000 0.036000 0.000000
0.080000 0.038000 0.000000
0.080000 0.040000 0.000000
0.080000 0.042000 0.000000
0.080000 0.044000 0.000000
0.080000 0.046000 0.000000
0.080000 0.048000 0.000000
0.080000 0.050000 0.000000
0.080000 0.052000 0.000000
0.080000 0.054000 0.000000
0.080000 0.056000 0.000000
0.080000 0.058000 0.000000
0.080000 0.060000 0.000000
0.080000 0.062000 0.000000
0.080000 0.064000 0.000000
0.080000 0.066000 0.000000
0.080000 0.068000 0.000000
0.080000 0.070000 0.000000
0.080000 0.072000 0.000000
0.080000 0.074000 0.000000
0.080000 0.076000 0.000000
0.080000 0.078000 0.000000
0.080000 0.080000 0.000000
0.080000 0.082000 0.000000
0.080000 0.084000 0.000000
0.080000 0.086000 0.000000
0.080000 0.088000 0.000000
0.080000 0.090000 0.000000
0.080000 0.092000 0.000000
0.080000 0.094000 0.000000
0.080000 0.096000 0.000000
0.080000 0.098000 0.000000
0.080000 0.100000 0.000000
0.080000 0.102000 0.000000
0.080000 0.104000 0.000000
0.080000 0.106000 0.000000
0.080000 0.108000 0.000000
0.080000 0.110000 0.000000
0.080000 0.112000 0.000000
0.080000 0.114000 0.000000
0.080000 0.116000 0.000000
0.080000 0.118000 0.000000
0.080000 0.120000 0.000000
0.080000 0.122000 0.000000
0.080000 0.124000 0.000000
0.080000 0.126000 0.000000
0.080000 0.128000 0.000000
0.080000 0.130000 0.000000
0.080000 0.132000 0.000000
0.080000 0.134000 0.000000
0.080000 0.136000 0.000000
0.080000 0.138000 0.000000
0.080000 0.140000 0.000000
0.080000 0.142000 0.000000
0.080000 0.144000 0.000000
0.080000 0.146000 0.000000
0.080000 0.148000 0.000000
0.080000 0.150000 0.000000
0.080000 0.152000 0.000000
0.080000 0.154000 0.000000
0.080000 0.156000 0.000000
0.080000 0.158000 0.000000
0.078000 0.160000 0.000000
0.076000 0.160000 0.000000
0.074000 0.160000 0.000000
0.072000 0.160000 0.000000
0.070000 0.160000 0.000000
0.068000 0.160000 0.000000
0.066000 0.160000 0.000000
0.064000 0.160000 0.000000
0.062000 0.160000 0.000000
0.060000 0.160000 0.000000
0.058000 0.160000 0.000000
0.056000 0.160000 0.000000
0.054000 0.160000 0.000000
0.052000 0.160000 0.000000
0.050000 0.160000 0.000000
0.048000 0.160000 0.000000
0.046000 0.160000 0.000000
0.044000 0.160000 0.000000
0.042000 0.160000 0.000000
0.040000 0.160000 0.000000
0.038000 0.160000 0.000000
0.036000 0.160000 0.000000
0.034000 0.160000 0.000000
0.032000 0.160000 0.000000
0.030000 0.160000 0.000000
0.028000 0.160000 0.000000
0.026000 0.160000 0.000000
0.024000 0.160000 0.000000
0.022000 0.160000 0.000000
0.020000 0.160000 0.000000
0.018000 0.160000 0.000000
0.016000 0.160000 0.000000
0.014000 0.160000 0.000000
0.012000 0.160000 0.000000
0.010000 0.160000 0.000000
0.008000 0.160000 0.000000
0.006000 0.160000 0.000000
0.004000 0.160000 0.000000
0.002000 0.160000 0.000000
0.000000 0.158000 0.000000
0.000000 0.156000 0.000000
0.000000 0.154000 0.000000
0.000000 0.152000 0.000000
0.000000 0.150000 0.000000
0.000000 0.148000 0.000000
0.000000 0.146000 0.000000
0.000000 0.144000 0.000000
0.000000 0.142000 0.000000
0.000000 0.140000 0.000000
0.000000 0.138000 0.000000
0.000000 0.136000 0.000000
0.000000 0.134000 0.000000
0.000000 0.132000 0.000000
0.000000 0.130000 0.000000
0.000000 0.128000 0.000000
0.000000 0.126000 0.000000
0.000000 0.124000 0.000000
0.000000 0.122000 0.000000
0.000000 0.120000 0.000000
0.000000 0.118000 0.000000
0.000000 0.116000 0.000000
0.000000 0.114000 0.000000
0.000000 0.112000 0.000000
0.000000 0.110000 0.000000
0.000000 0.108000 0.000000
0.000000 0.106000 0.000000
0.000000 0.104000 0.000000
0.000000 0.102000 0.000000
0.000000 0.100000 0.000000
0.000000 0.098000 0.000000
0.000000 0.096000 0.000000
0.000000 0.094000 0.000000
0.000000 0.092000 0.000000
0.000000 0.090000 0.000000
0.000000 0.088000 0.000000
0.000000 0.086000 0.000000
0.000000 0.084000 0.000000
0.000000 0.082000 0.000000
0.000000 0.080000 0.000000
0.000000 0.078000 0.000000
0.000000 0.076000 0.000000
0.000000 0.074000 0.000000
0.000000 0.072000 0.000000
0.000000 0.070000 0.000000
0.000000 0.068000 0.000000
0.000000 0.066000 0.000000
0.000000 0.064000 0.000000
0.000000 0.062000 0.000000
0.000000 0.060000 0.000000
0.000000 0.058000 0.000000
0.000000 0.056000 0.000000
0.000000 0.054000 0.000000
0.000000 0.052000 0.000000
0.000000 0.050000 0.000000
0.000000 0.048000 0.000000
0.000000 0.046000 0.000000
0.000000 0.044000 0.000000
0.000000 0.042000 0.000000
0.000000 0.040000 0.000000
0.000000 0.038000 0.000000
0.000000 0.036000 0.000000
0.000000 0.034000 0.000000
0.000000 0.032000 0.000000
0.000000 0.030000 0.000000
0.000000 0.028000 0.000000
0.000000 0.026000 0.000000
0.000000 0.024000 0.000000
0.000000 0.022000 0.000000
0.000000 0.020000 0.000000
0.000000 0.018000 0.000000
0.000000 0.016000 0.000000
0.000000 0.014000 0.000000
0.000000 0.012000 0.000000
0.000000 0.010000 0.000000
0.000000 0.008000 0.000000
0.000000 0.006000 0.000000
0.000000 0.004000 0.000000
0.000000 0.002000 0.000000
0.035411 0.076518 0.000000
0.035821 0.076786 0.000000
0.036232 0.077054 0.000000
0.036643 0.077321 0.000000
0.037054 0.077589 0.000000
0.037464 0.077857 0.000000
0.037875 0.078125 0.000000
0.038286 0.078393 0.000000
0.038696 0.078661 0.000000
0.039107 0.078929 0.000000
0.039518 0.079196 0.000000
0.039929 0.079464 0.000000
0.040339 0.079732 0.000000
0.040750 0.080000 0.000000
0.041161 0.080268 0.000000
0.041571 0.080536 0.000000
0.041982 0.080804 0.000000
0.042393 0.081071 0.000000
0.042804 0.081339 0.000000
0.043214 0.081607 0.000000
0.043625 0.081875 0.000000
0.044036 0.082143 0.000000
0.044446 0.082411 0.000000
0.044857 0.082679 0.000000
0.045268 0.082946 0.000000
0.045679 0.083214 0.000000
0.046089 0.083482 0.000000
0.040000 0.002000 0.000000
0.040001 0.158005 0.000000
0.002000 0.116000 0.000000
0.078000 0.048000 0.000000
0.002000 0.106000 0.000000
0.078000 0.058000 0.000000
0.001986 0.042173 0.000000
0.078015 0.117826 0.000000
0.001985 0.094174 0.000000
0.001985 0.084174 0.000000
0.001914 0.056074 0.000000
0.002000 0.072000 0.000000
0.078015 0.065826 0.000000
0.078016 0.075826 0.000000
0.078000 0.088000 0.000000
0.078000 0.104000 0.000000
0.078003 0.029997 0.000000
0.001998 0.130002 0.000000
0.002000 0.032000 0.000000
0.078013 0.128003 0.000000
0.056000 0.158000 0.000000
0.026000 0.002000 0.000000
0.060000 0.002000 0.000000
0.020000 0.158000 0.000000
0.002000 0.020000 0.000000
0.078000 0.142000 0.000000
0.002000 0.146000 0.000000
0.078000 0.020000 0.000000
0.016000 0.002000 0.000000
0.068000 0.002000 0.000000
0.066000 0.158000 0.000000
0.002000 0.014000 0.000000
0.008000 0.158000 0.000000
0.010000 0.002000 0.000000
0.078000 0.148000 0.000000
0.078000 0.008000 0.000000
0.078005 0.037995 0.000000
0.051991 0.001990 0.000000
0.028000 0.158000 0.000000
0.002000 0.008000 0.000000
0.078000 0.094000 0.000000
0.078000 0.110000 0.000000
0.001983 0.066159 0.000000
0.002000 0.050000 0.000000
0.046000 0.158000 0.000000
0.078000 0.134000 0.000000
0.002000 0.140000 0.000000
0.006000 0.002000 0.000000
0.002000 0.154000 0.000000
0.074000 0.002000 0.000000
0.078000 0.152000 0.000000
0.074000 0.158000 0.000000
0.078000 0.080000 0.000000
0.078000 0.070000 0.000000
0.078000 0.122000 0.000000
0.002000 0.090000 0.000000
0.002000 0.080000 0.000000
0.002000 0.038000 0.000000
0.002000 0.102000 0.000000
0.002000 0.112000 0.000000
0.036000 0.002000 0.000000
0.078000 0.042000 0.000000
0.032000 0.002000 0.000000
0.047987 0.001989 0.000000
0.032008 0.158010 0.000000
0.002000 0.028000 0.000000
0.002000 0.126000 0.000000
0.060000 0.158000 0.000000
0.022000 0.002000 0.000000
0.002000 0.136000 0.000000
0.078000 0.024000 0.000000
0.012000 0.158000 0.000000
0.078000 0.158000 0.000000
0.001947 0.003947 0.000000
0.002000 0.158000 0.000000
0.078000 0.012000 0.000000
0.078000 0.096000 0.000000
0.078000 0.098000 0.000000
0.078000 0.082000 0.000000
0.078111 0.099889 0.000000
0.078035 0.083965 0.000000
0.078000 0.090000 0.000000
0.078000 0.106000 0.000000
0.078000 0.072000 0.000000
0.078000 0.112000 0.000000
0.078043 0.061976 0.000000
0.078000 0.114000 0.000000
0.002000 0.064000 0.000000
0.002000 0.062000 0.000000
0.002000 0.088000 0.000000
0.002000 0.078000 0.000000
0.002000 0.060000 0.000000
0.001966 0.076034 0.000000
0.002000 0.070000 0.000000
0.002000 0.054000 0.000000
0.001957 0.098024 0.000000
0.002000 0.048000 0.000000
0.002000 0.046000 0.000000
[...]
POINT_DATA 5510
SCALARS UX float 1
LOOKUP_TABLE default
-0.005420
0.030639
0.000001
-0.035353
-0.004531
0.000396
-0.004517
-0.003613
-0.002709
-0.001804
-0.000899
0.000006
0.000911
0.001816
0.002721
0.003625
0.004528
0.005431
0.006332
0.007233
0.008133
0.009033
0.009931
0.010829
0.011726
0.012622
0.013518
0.014414
0.015309
0.016204
0.017100
0.017995
0.018891
0.019788
0.020685
0.021584
0.022483
0.023384
0.024286
0.025189
0.026093
0.026999
0.027907
0.028817
0.029727
0.030274
0.029912
0.029552
0.029193
0.028836
0.028480
0.028127
0.027774
0.027423
0.027073
0.026724
0.026378
0.026033
0.025690
0.025350
0.025011
0.024674
0.024339
0.024006
0.023673
0.023340
0.023008
0.022675
0.022342
0.022009
0.021672
0.021333
0.020991
0.020646
0.020298
0.019946
0.019591
0.019234
0.018874
0.018510
0.018146
0.017776
0.017404
0.017028
0.016648
0.016266
0.015876
0.015477
0.015068
0.014653
0.014216
0.013765
0.013304
0.012825
0.012331
0.011839
0.011352
0.010866
0.010404
0.009957
0.009528
0.009103
0.008706
0.008313
0.007929
0.007554
0.007181
0.006816
0.006452
0.006091
0.005731
0.005373
0.005014
0.004657
0.004301
0.003945
0.003588
0.003234
0.002881
0.002529
0.002180
0.001826
0.001439
0.000907
-0.000008
-0.000946
-0.001885
-0.002817
-0.003736
-0.004652
-0.005567
-0.006479
-0.007389
-0.008297
-0.009204
-0.010109
-0.011013
-0.011916
-0.012819
-0.013719
-0.014619
-0.015517
-0.016415
-0.017313
-0.018209
-0.019106
-0.020002
-0.020898
-0.021794
-0.022690
-0.023587
-0.024484
-0.025382
-0.026281
-0.027181
-0.028083
-0.028986
-0.029891
-0.030797
-0.031705
-0.032615
-0.033527
-0.034439
-0.034987
-0.034625
-0.034262
-0.033905
-0.033549
-0.033194
-0.032841
-0.032490
-0.032140
-0.031791
-0.031444
-0.031100
-0.030755
-0.030415
-0.030076
-0.029739
-0.029403
-0.029068
-0.028734
-0.028401
-0.028068
-0.027736
-0.027402
-0.027067
-0.026732
-0.026393
-0.026052
-0.025708
-0.025361
-0.025010
-0.024657
-0.024301
-0.023942
-0.023581
-0.023216
-0.022851
-0.022481
-0.022108
-0.021732
-0.021352
-0.020970
-0.020581
-0.020184
-0.019777
-0.019367
-0.018936
-0.018494
-0.018039
-0.017575
-0.017091
-0.016606
-0.016126
-0.015646
-0.015182
-0.014731
-0.014285
-0.013871
-0.013465
-0.013066
-0.012676
-0.012295
-0.011917
-0.011549
-0.011183
-0.010820
-0.010457
-0.010096
-0.009737
-0.009379
-0.009020
-0.008661
-0.008303
-0.007944
-0.007585
-0.007225
-0.006865
-0.006505
-0.006144
-0.005783
-0.004338
-0.004146
-0.003880
-0.003622
-0.003418
-0.003270
-0.003109
-0.002931
-0.002814
-0.002641
-0.002492
-0.002371
-0.002208
-0.002046
-0.001853
-0.001668
-0.001484
-0.001298
-0.001129
-0.001001
-0.000866
-0.000737
-0.000582
-0.000436
-0.000256
-0.000052
0.000142
0.012262
-0.016953
-0.026815
0.021424
-0.025147
0.019746
-0.012169
0.007418
-0.023091
-0.021262
-0.015223
-0.018885
0.018383
0.016560
0.014176
0.010383
0.024424
-0.029150
-0.010266
0.005540
-0.009746
0.005970
0.021223
-0.025921
-0.008112
0.003035
-0.031922
0.026153
0.001453
0.024827
-0.005205
-0.007039
-0.031340
-0.001262
0.001968
0.028280
0.023080
0.017634
-0.022331
-0.005962
0.012847
0.008999
-0.017621
-0.013769
-0.014257
0.004460
-0.030869
-0.003071
-0.033348
0.027542
0.001255
-0.001561
0.015766
0.017625
0.006627
-0.022331
-0.020468
-0.011366
-0.024462
-0.026153
0.010468
0.022414
0.008671
0.015841
-0.020536
-0.009544
-0.028475
-0.007933
0.004165
-0.030175
0.025453
-0.029528
0.000086
-0.005255
-0.034072
0.027566
0.012372
0.011879
0.015381
0.011458
0.015009
0.013747
0.009906
0.017260
0.008571
0.019076
0.008161
-0.017114
-0.016633
-0.021964
-0.020084
-0.016143
-0.019712
-0.018462
-0.014688
-0.023787
-0.013338
-0.012924
0.020426
0.022095
0.021092
-0.025819
-0.027477
0.006260
-0.010996
0.014054
-0.018746
-0.016055
0.023750
-0.013357
-0.012456
-0.028141
0.007772
0.019428
-0.024124
-0.009185
0.005181
0.004104
-0.008828
0.003747
-0.029831
-0.011554
0.025109
-0.031571
-0.007025
0.003261
0.023022
-0.027721
0.002679
0.026857
-0.032633
-0.007755
-0.006680
-0.004292
0.000548
-0.003381
0.000898
-0.033159
-0.004024
-0.004993
0.028999
0.026636
0.029361
-0.025256
0.020524
-0.021466
-0.019624
-0.018006
-0.015259
-0.012843
0.014925
0.013298
0.010549
0.016762
0.007690
-0.016581
-0.027230
0.004623
-0.010461
0.008306
-0.011201
-0.008634
0.002840
0.003803
-0.029253
0.024533
-0.007573
-0.006848
0.001091
-0.031007
-0.003946
0.009445
0.021225
-0.006133
0.000335
0.027179
0.014181
0.010990
0.011943
-0.018881
-0.015746
-0.016677
-0.012045
0.013372
0.014651
0.010957
0.016219
0.016920
0.009511
0.018058
0.007795
-0.018094
-0.021623
-0.019355
-0.022764
-0.015684
-0.020921
-0.014253
-0.012552
0.018725
-0.023435
0.019424
-0.024139
0.020110
0.007089
-0.024828
-0.011834
0.020781
-0.025505
-0.026532
0.021770
-0.027160
0.022755
-0.027817
0.013153
-0.017844
0.011361
-0.015153
0.014944
-0.019637
0.005910
-0.010643
0.023415
0.009567
0.016736
-0.021431
-0.012991
0.018530
-0.023225
-0.028812
-0.009908
0.004822
0.024085
-0.008276
0.006871
0.003551
-0.010650
0.020324
-0.025021
-0.008471
0.003392
-0.029489
0.024764
-0.030521
-0.008840
0.005068
-0.031219
0.025802
-0.006116
0.002357
-0.026820
0.022122
-0.028624
0.023924
0.002323
-0.007397
-0.030433
0.026504
-0.032277
0.001614
0.027211
-0.006321
-0.000357
-0.032989
-0.002470
0.027921
0.000514
-0.002167
-0.005601
-0.032249
-0.004337
0.025730
-0.000684
-0.032795
-0.033708
0.028638
0.028088
0.028451
-0.023348
0.018632
-0.014446
0.014584
0.009682
-0.007727
-0.021087
0.018179
-0.024663
0.021761
0.026296
-0.028262
0.001414
0.022514
0.011031
-0.030070
-0.032076
0.012467
0.006909
-0.017190
0.017954
0.017157
-0.022664
-0.021862
0.016052
0.015324
-0.020752
-0.020021
0.019305
-0.024025
0.006146
-0.009730
-0.019276
-0.008996
0.023159
0.003913
-0.027895
0.006510
0.004705
0.001995
0.023562
-0.030301
-0.029600
-0.000719
-0.005416
-0.031362
0.025588
0.024882
-0.002145
-0.000039
0.027010
0.026818
0.012860
0.013715
-0.017573
0.010028
-0.018416
0.007360
-0.014740
-0.013319
0.020899
0.016412
-0.021113
-0.011657
-0.010858
-0.025612
-0.026252
0.008502
0.008984
0.019883
0.020200
-0.024609
-0.024928
-0.017514
0.011504
0.014558
-0.026902
-0.016236
-0.019257
0.008106
0.021846
0.021528
-0.012465
-0.010099
0.004994
0.016376
0.009227
-0.013881
0.012823
-0.014819
0.004272
-0.027567
-0.022872
-0.010302
0.007407
0.023841
0.024185
-0.028566
-0.028909
0.002483
0.019967
-0.007923
-0.007205
-0.012096
0.003198
0.002901
-0.015701
-0.008479
-0.026459
-0.005759
-0.006667
-0.004851
-0.030652
0.000187
0.025368
-0.006491
-0.005775
-0.002528
0.026273
-0.003045
-0.003433
0.027727
0.000698
-0.000416
-0.032435
-0.004698
-0.031885
-0.009965
0.020653
-0.023885
0.006389
-0.019186
-0.021051
-0.016800
-0.015271
0.016354
0.014521
0.012008
-0.026027
0.004098
-0.010841
0.008840
0.022928
0.002294
-0.027650
0.004343
-0.006313
-0.006298
0.001635
-0.029384
-0.004870
-0.012456
-0.013969
0.007714
-0.002709
0.013028
-0.017762
-0.010819
0.020075
0.010656
-0.015416
-0.008092
-0.009206
-0.026658
0.007045
-0.000174
0.001770
-0.030092
-0.000214
0.009105
0.011615
0.007261
-0.016359
0.015699
0.017538
-0.020398
-0.022246
0.018285
-0.022998
-0.025929
0.013726
0.010077
-0.014903
0.018978
-0.023696
-0.011308
-0.018421
0.006453
-0.026551
-0.014191
-0.013548
-0.014412
-0.017107
-0.020156
0.015657
-0.020357
0.022180
-0.024288
-0.011612
0.019564
0.017260
0.010111
0.011909
0.015463
0.005746
0.005373
0.022840
-0.009364
0.019367
-0.009384
0.023503
-0.021979
-0.028229
0.001932
0.003370
-0.012631
0.005606
-0.007567
-0.024102
-0.024767
0.019073
-0.023767
0.023274
0.023966
-0.007376
-0.027994
-0.028683
-0.008119
-0.005407
0.003005
0.020864
-0.025561
-0.029950
0.002542
-0.018391
0.025234
-0.005585
0.002127
-0.027359
0.022660
-0.004505
0.024464
0.025941
0.025911
-0.001623
0.001056
-0.031718
0.026652
-0.003793
-0.029165
0.026458
0.027368
-0.005057
-0.000944
-0.001270
-0.031524
-0.030977
0.013700
0.008146
-0.023023
-0.015595
-0.013628
0.010915
-0.014129
-0.026747
0.002472
0.014228
0.022025
-0.007194
-0.020731
0.017821
0.022299
-0.005959
-0.024304
0.002178
0.025028
0.018043
-0.026999
0.025551
-0.028804
0.009299
-0.022762
0.021610
0.001387
-0.013532
0.014761
-0.019574
-0.022066
-0.021289
0.017351
0.016586
0.010673
-0.027320
-0.009031
-0.006663
0.005241
0.024319
0.001222
-0.004512
-0.030615
-0.012769
0.015373
-0.020075
-0.010331
0.006996
-0.017407
0.012551
0.006809
-0.023176
0.018439
0.019149
-0.014216
0.020347
-0.023600
-0.025406
-0.025051
-0.025714
0.014077
-0.018778
0.013241
0.004455
0.005283
-0.017966
0.009723
-0.018919
-0.017977
0.011069
-0.015797
0.015971
-0.020672
0.008598
-0.009579
0.022588
0.020972
-0.012008
0.016015
0.006041
-0.026986
-0.026336
0.012439
-0.009947
-0.024400
-0.007023
0.006147
0.003733
0.007935
-0.021627
-0.008452
-0.008837
0.019659
-0.011229
0.023618
0.018716
-0.011735
0.021931
-0.013520
-0.028336
-0.029033
0.002653
0.001578
-0.006479
-0.025201
0.020504
-0.005943
0.003442
0.024102
-0.007217
0.000730
-0.005059
-0.005229
-0.022516
0.000862
0.000146
0.025006
0.025742
0.026099
-0.001984
-0.001078
-0.004153
-0.002889
-0.029738
-0.003606
-0.030449
-0.031164
-0.016226
-0.001825
-0.000578
0.019780
0.017311
-0.019285
-0.017789
-0.010819
-0.013256
0.014589
0.013134
0.010254
-0.020389
0.017471
-0.023949
-0.009594
-0.005609
-0.028123
-0.005040
-0.024594
0.000320
-0.009084
0.006686
0.018286
0.015658
-0.020354
-0.004323
0.000371
-0.001439
-0.029181
-0.030255
-0.016749
0.010394
0.008265
0.012204
0.011225
-0.016959
-0.015971
-0.015127
0.019241
0.007329
-0.011656
0.021702
0.001752
0.013758
0.004881
0.022710
0.003079
-0.003607
-0.000761
-0.002372
-0.014998
-0.025149
-0.025771
-0.026420
0.009795
0.008874
-0.024267
0.006480
0.005601
-0.014632
0.016922
-0.021631
-0.022661
-0.022042
-0.022393
0.017675
0.018883
0.005669
0.004874
0.014875
-0.019566
-0.013152
-0.013256
-0.012268
-0.008695
-0.017695
0.002827
0.003583
-0.007928
-0.019831
-0.023266
-0.010042
0.021293
0.016922
-0.008665
0.015123
0.002115
0.013315
-0.006128
0.018514
0.022369
0.008468
-0.023884
-0.027428
-0.027088
-0.007565
0.024673
-0.023407
0.019609
-0.006835
0.001034
0.001274
0.023409
-0.007762
-0.006859
-0.011378
0.022252
-0.021273
-0.026098
0.023199
-0.028474
0.021400
-0.005755
0.000506
0.024646
0.024834
0.025385
-0.004161
-0.027901
-0.001480
0.025192
-0.002343
-0.003248
-0.029708
-0.030806
0.011552
-0.018414
-0.013112
0.014976
-0.019673
-0.008214
-0.021928
0.017441
-0.015209
-0.018642
0.010073
0.013893
-0.013777
0.001953
-0.006304
-0.025529
-0.020036
0.020799
0.000496
0.002719
0.020145
-0.027217
-0.016475
-0.005229
-0.026639
0.009108
0.004823
-0.020971
-0.021701
0.016260
0.016963
0.017520
-0.011911
-0.009207
0.003990
0.012082
0.020399
0.013872
-0.026186
0.021468
-0.023062
0.000915
-0.000401
0.021938
0.023741
-0.029896
-0.013657
-0.018924
0.014203
0.005292
0.011715
0.012683
-0.016385
-0.009507
-0.017332
-0.020520
0.015814
0.006111
0.019479
0.017882
0.007792
-0.012772
0.006209
-0.011188
-0.012805
-0.014803
-0.008332
0.015228
0.003227
-0.019925
-0.022202
-0.022285
0.011134
0.021043
-0.026097
0.021368
0.016577
0.008075
-0.010403
0.001221
0.020088
0.013396
0.014781
-0.007025
-0.023556
-0.025443
-0.022159
0.005778
0.000680
0.023764
0.024477
-0.007405
0.003976
-0.005940
-0.027775
-0.019497
-0.018584
0.009353
-0.004683
0.018795
-0.006506
-0.000041
0.023058
-0.010485
-0.028826
-0.004713
-0.005398
-0.000534
-0.027541
-0.029348
-0.001798
0.018358
-0.029538
-0.024841
0.023928
0.024286
-0.003966
-0.002022
-0.001121
-0.002702
-0.003264
0.007577
-0.015877
-0.024844
-0.018054
-0.018891
-0.011963
-0.013976
0.014012
0.010075
-0.021339
0.016625
0.008437
0.012587
0.018897
-0.021279
0.015890
-0.010403
-0.014443
-0.011962
0.011646
-0.005421
0.007218
0.016231
-0.023783
-0.007051
0.022511
-0.023590
-0.004137
-0.020606
-0.019641
0.014939
-0.000579
0.023572
-0.026282
-0.027919
-0.017666
0.013071
0.005154
0.018377
0.012384
0.011460
0.010722
0.016521
0.017159
-0.007399
-0.015606
-0.017082
-0.024287
-0.010096
-0.026868
0.005418
0.003616
-0.005260
-0.000894
-0.002918
0.009886
-0.018316
0.013633
-0.016144
-0.012823
0.009628
0.007435
0.006477
-0.008733
-0.009386
-0.021324
0.005623
-0.021621
-0.011949
-0.012476
0.004372
-0.007823
-0.014365
-0.012382
0.014425
-0.012788
0.002341
-0.019148
0.004525
-0.014650
0.003146
-0.018270
-0.017348
-0.024891
0.020156
0.008520
-0.011028
0.001591
0.015671
-0.005592
0.019200
-0.022448
0.012959
-0.025849
0.017665
-0.026526
0.021128
-0.021816
-0.020918
-0.023043
-0.006713
-0.008301
0.000864
0.020711
0.019250
-0.018841
0.014152
-0.003779
-0.002157
-0.025206
0.001815
-0.000945
-0.001665
-0.025735
-0.027567
0.000013
0.022837
0.024120
0.000142
-0.009538
0.021812
-0.003817
0.021041
0.023028
-0.028990
-0.003419
-0.004861
0.023384
-0.003061
-0.028443
0.008113
-0.028630
0.017113
0.020471
-0.019159
-0.011304
0.009396
0.007811
-0.020289
0.015577
0.004916
0.012022
-0.015554
-0.007781
0.018011
-0.019509
0.014798
-0.017584
0.009828
0.012969
0.007717
-0.015168
0.001476
-0.024033
-0.011613
-0.018811
0.007755
0.019584
-0.025292
0.015876
0.003255
-0.000025
-0.004342
-0.026318
0.014055
-0.018751
-0.003236
-0.001487
0.020572
0.000557
0.019786
0.022671
0.019843
-0.020581
-0.025381
0.023217
-0.001255
-0.002515
-0.027729
0.008568
-0.014827
0.015077
-0.019784
0.011018
-0.008617
0.011285
-0.016490
-0.023357
-0.020567
0.016833
0.018610
-0.021041
-0.011601
0.006977
-0.020963
-0.010954
0.012677
0.016223
0.002736
0.004026
0.003506
0.013486
-0.012603
-0.024597
-0.016123
0.012513
-0.013602
-0.013995
0.019506
0.000705
-0.017051
-0.017327
-0.023987
-0.010630
0.014424
-0.021440
0.009320
0.015329
0.013203
-0.017879
0.016638
-0.018068
-0.005859
-0.006724
-0.024638
0.006991
-0.000212
-0.025632
-0.008837
0.019910
-0.022728
0.006321
0.022159
0.017938
0.004510
-0.024481
0.022863
-0.007944
0.022476
0.002358
-0.004502
-0.026666
-0.006153
-0.002565
-0.027181
-0.000746
0.020684
-0.005063
-0.001302
0.013292
-0.009961
-0.022703
-0.003468
-0.004366
-0.028086
-0.028274
0.017998
0.008996
-0.007375
0.010765
0.013725
-0.018416
-0.011753
0.005536
-0.013428
0.011961
-0.013088
-0.012389
0.015284
-0.019993
0.010828
-0.008936
0.004246
-0.015805
0.005635
-0.016520
-0.006934
-0.020448
-0.018046
-0.016356
0.013350
-0.014133
-0.011211
0.009034
-0.014923
-0.004951
-0.011168
0.018693
-0.024413
0.002894
-0.007588
0.003585
-0.025423
-0.023232
-0.025029
0.011279
-0.012964
0.019433
-0.010559
-0.019814
0.014594
-0.019305
0.017565
-0.009614
0.018649
0.012296
0.005956
-0.004909
-0.003606
0.004148
-0.011148
0.021261
-0.001613
-0.003105
-0.027372
-0.026829
-0.008735
0.019262
-0.015771
0.003137
-0.020584
0.004823
0.017746
0.014269
-0.018980
-0.020098
0.015486
0.015806
-0.006328
0.006155
0.011754
-0.012224
-0.016940
0.016434
0.001868
-0.023451
-0.022995
-0.022516
-0.017277
0.012381
0.018317
-0.015859
0.001092
0.012596
-0.004713
0.014985
0.007317
-0.001108
0.013459
-0.018135
-0.013691
0.013196
-0.024335
-0.021644
0.016834
-0.003973
-0.019686
-0.012087
0.000345
0.015107
0.006856
0.020915
-0.022211
0.022318
-0.001844
-0.009730
0.018888
-0.024965
-0.006697
-0.000352
-0.027017
-0.002878
0.020235
-0.002205
-0.000387
0.022129
-0.025969
-0.004550
0.009529
0.008636
0.001456
0.006600
0.021613
-0.021462
0.021578
0.016754
0.008868
-0.023730
0.005764
-0.014298
-0.017936
0.011385
0.010667
-0.006923
0.008147
0.002684
-0.015179
0.010125
-0.008099
0.004995
0.011497
-0.023729
-0.009693
-0.020175
0.016811
-0.019416
0.014389
-0.016890
-0.013429
0.011066
0.012274
0.006612
-0.014681
0.001028
-0.022654
0.011791
0.008275
-0.004086
0.015517
-0.019356
0.019683
-0.000536
-0.007235
-0.003462
-0.001635
-0.019107
-0.021691
-0.011681
0.005414
0.007818
-0.005945
0.017532
0.018379
-0.014065
-0.023173
0.004373
0.004762
0.003786
0.010600
-0.002715
0.001099
0.020367
0.006484
0.018535
-0.025079
-0.000713
0.021233
0.009410
-0.007879
0.013417
-0.018122
-0.013108
0.016108
-0.010085
-0.005394
0.002334
0.012528
0.013042
-0.017205
-0.017730
-0.016535
-0.011006
-0.023218
-0.016562
-0.013140
0.000218
0.011651
0.013890
-0.018607
-0.020644
-0.023779
-0.002006
-0.002745
0.005897
-0.011604
0.014071
-0.024088
0.008622
-0.012416
0.004012
0.017641
-0.024747
0.005042
-0.021915
-0.017591
-0.019829
0.021966
-0.026474
-0.011058
-0.024122
-0.004005
0.020324
-0.008475
0.017091
-0.010264
0.021424
-0.025921
0.001996
-0.022343
0.019020
0.021776
-0.001974
-0.005803
-0.000899
-0.004194
-0.025770
-0.020230
-0.006543
-0.009167
0.011989
0.010407
0.018954
-0.016724
0.007495
-0.014445
-0.015289
0.003338
0.010385
0.002476
-0.007299
0.004037
-0.022934
-0.015915
-0.019906
0.015551
-0.007196
-0.016015
-0.010553
0.008744
0.007111
0.011669
0.005089
0.017498
-0.013768
-0.019007
-0.022917
-0.023865
-0.001399
0.003430
-0.009728
-0.002526
0.018184
0.015330
-0.012276
-0.023763
-0.005451
-0.015686
-0.012459
-0.010519
0.001495
0.010063
-0.024533
-0.008120
-0.003639
-0.025579
-0.001076
0.021072
0.001640
0.018074
-0.016371
-0.006128
-0.008786
-0.013988
0.016714
0.014862
0.001824
0.012550
-0.004494
0.011346
-0.022178
-0.016336
0.006268
-0.019454
-0.019188
0.017224
-0.019682
0.000637
0.008254
0.012791
-0.017470
-0.003836
-0.011427
-0.022895
0.010723
0.005037
0.009758
0.013726
0.008345
0.006978
0.011937
-0.020854
-0.013059
-0.018454
-0.000154
-0.003087
0.019983
0.020027
0.007378
-0.017364
-0.023470
-0.018744
0.014079
0.012670
0.005576
0.020718
0.000194
-0.009364
-0.002342
-0.016266
-0.026122
-0.002377
0.016012
0.004671
-0.001263
0.004831
-0.021399
-0.006343
0.020532
0.017806
0.017783
-0.021996
-0.021107
0.009166
-0.003690
-0.008271
-0.007906
0.020882
0.019348
0.016395
-0.023221
0.014641
-0.006152
-0.014672
-0.015525
0.010929
-0.010798
0.004274
-0.022108
-0.022412
0.002817
0.002596
0.003466
0.014890
-0.015101
0.013638
-0.018345
0.002211
-0.018437
0.013673
-0.012789
-0.015466
0.010413
0.008076
-0.014495
0.008811
0.016617
-0.003650
0.012504
0.015161
-0.022069
0.018799
-0.007764
0.016268
-0.018412
-0.021812
-0.020880
-0.002558
0.003954
0.007487
-0.005993
0.009885
0.006218
0.005406
-0.002139
0.015884
-0.018136
-0.000182
0.019644
0.019485
0.020187
0.007011
-0.003275
-0.025231
-0.020764
0.001698
0.000196
0.003368
0.013013
-0.017723
-0.012721
0.011029
0.011368
-0.010375
-0.015972
0.015077
0.016635
0.017192
-0.009309
0.007921
-0.005094
0.009118
0.000822
0.011457
-0.018748
0.006743
-0.000226
-0.001020
-0.001763
-0.011018
0.015615
-0.022343
0.011915
0.012395
-0.017080
-0.022628
-0.016589
-0.017905
0.013197
-0.017233
-0.019886
-0.004548
-0.011673
0.000742
-0.024649
-0.001812
-0.023537
-0.021120
-0.002889
-0.024875
-0.001437
0.017282
0.006110
0.004315
-0.010282
0.004700
-0.009900
-0.008999
-0.019881
0.019080
-0.021370
-0.005736
0.002531
0.010043
-0.024192
-0.003334
0.018132
-0.003235
0.013405
-0.022874
0.016244
-0.019143
-0.006492
-0.015280
-0.015202
-0.011387
-0.015688
-0.014524
-0.014095
0.003210
-0.007287
-0.008017
0.014202
0.012983
-0.017687
-0.013212
0.013478
-0.017986
-0.017055
-0.010222
0.010565
0.006100
-0.000074
-0.014000
-0.002809
0.011239
0.006634
0.003957
-0.018677
-0.001870
-0.015131
0.004399
-0.022988
-0.005326
0.014565
0.015176
-0.011851
-0.009765
0.008404
-0.018452
0.006916
0.011114
-0.013789
-0.003028
-0.003781
-0.022523
-0.023654
0.001276
-0.000913
0.019301
0.016954
0.016322
0.015555
-0.024350
-0.006448
0.009685
-0.013132
-0.015067
-0.016725
0.002821
0.012035
0.012342
-0.009494
-0.008482
-0.012416
0.010735
-0.015370
0.015771
0.005786
-0.010738
-0.018615
-0.004176
0.010096
-0.011436
0.004341
-0.005115
0.012170
-0.016844
-0.000644
-0.015735
-0.002969
-0.021628
-0.014713
0.014861
-0.021487
-0.016942
-0.016044
0.014110
-0.000621
-0.020082
-0.020598
0.009331
-0.022353
-0.002204
-0.022071
0.019839
0.007715
0.016043
0.018467
0.007907
-0.018096
0.016907
-0.005341
-0.009525
-0.010450
0.013375
-0.019544
0.005212
-0.006875
-0.018958
0.003067
0.010550
0.000359
0.015817
-0.021641
0.016931
-0.008648
-0.002837
-0.004166
-0.002250
-0.000546
0.018758
0.014284
0.001081
0.019138
-0.021780
-0.009613
0.012178
0.001833
-0.012184
0.003553
-0.021138
-0.007605
0.002561
-0.013839
0.002180
-0.012524
-0.010927
0.007490
-0.000892
-0.020657
0.010993
0.015451
-0.018339
0.014812
-0.010053
-0.002709
-0.020081
-0.018129
0.003593
-0.007405
0.017912
-0.007689
-0.003383
0.013838
0.009805
0.008650
-0.009896
0.000825
0.013357
-0.017704