# vtk DataFile Version 2.0
Test
ASCII
DATASET POLYDATA
POINTS 5510 float
0.000000 0.000000 0.000000
0.080000 0.000000 0.000000
0.080000 0.160000 0.000000
0.000000 0.160000 0.000000
0.035000 0.076250 0.000000
0.046500 0.083750 0.000000
0.002000 0.000000 0.000000
0.004000 0.000000 0.000000
0.006000 0.000000 0.000000
0.008000 0.000000 0.000000
0.010000 0.000000 0.000000
0.012000 0.000000 0.000000
0.014000 0.000000 0.000000
0.016000 0.000000 0.000000
0.018000 0.000000 0.000000
0.020000 0.000000 0.000000
0.022000 0.000000 0.000000
0.024000 0.000000 0.000000
0.026000 0.000000 0.000000
0.028000 0.000000 0.000000
0.030000 0.000000 0.000000
0.032000 0.000000 0.000000
0.034000 0.000000 0.000000
0.036000 0.000000 0.000000
0.038000 0.000000 0.000000
0.040000 0.000000 0.000000
0.042000 0.000000 0.000000
0.044000 0.000000 0.000000
0.046000 0.000000 0.000000
0.048000 0.000000 0.000000
0.050000 0.000000 0.000000
0.052000 0.000000 0.000000
0.054000 0.000000 0.000000
0.056000 0.000000 0.000000
0.058000 0.000000 0.000000
0.060000 0.000000 0.000000
0.062000 0.000000 0.000000
0.064000 0.000000 0.000000
0.066000 0.000000 0.000000
0.068000 0.000000 0.000000
0.070000 0.000000 0.000000
0.072000 0.000000 0.000000
0.074000 0.000000 0.000000
0.076000 0.000000 0.000000
0.078000 0.000000 0.000000
0.080000 0.002000 0.000000
0.080000 0.004000 0.000000
0.080000 0.006000 0.000000
0.080000 0.008000 0.000000
0.080000 0.010000 0.000000
0.080000 0.012000 0.000000
0.080000 0.014000 0.000000
0.080000 0.016000 0.000000
0.080000 0.018000 0.000000
0.080000 0.020000 0.000000
0.080000 0.022000 0.000000
0.080000 0.024000 0.000000
0.080000 0.026000 0.000000
0.080000 0.028000 0.000000
0.080000 0.030000 0.000000
0.080000 0.032000 0.000000
0.080000 0.034000 0.000000
0.080000 0.036000 0.000000
0.080000 0.038000 0.000000
0.080000 0.040000 0.000000
0.080000 0.042000 0.000000
0.080000 0.044000 0.000000
0.080000 0.046000 0.000000
0.080000 0.048000 0.000000
0.080000 0.050000 0.000000
0.080000 0.052000 0.000000
0.080000 0.054000 0.000000
0.080000 0.056000 0.000000
0.080000 0.058000 0.000000
0.080000 0.060000 0.000000
0.080000 0.062000 0.000000
0.080000 0.064000 0.000000
0.080000 0.066000 0.000000
0.080000 0.068000 0.000000
0.080000 0.070000 0.000000
0.080000 0.072000 0.000000
0.080000 0.074000 0.000000
0.080000 0.076000 0.000000
0.080000 0.078000 0.000000
0.080000 0.080000 0.000000
0.080000 0.082000 0.000000
0.080000 0.084000 0.000000
0.080000 0.086000 0.000000
0.080000 0.088000 0.000000
0.080000 0.090000 0.000000
0.080000 0.092000 0.000000
0.080000 0.094000 0.000000
0.080000 0.096000 0.000000
0.080000 0.098000 0.000000
0.080000 0.100000 0.000000
0.080000 0.102000 0.000000
0.080000 0.104000 0.000000
0.080000 0.106000 0.000000
0.080000 0.108000 0.000000
0.080000 0.110000 0.000000
0.080000 0.112000 0.000000
0.080000 0.114000 0.000000
0.080000 0.116000 0.000000
0.080000 0.118000 0.000000
0.080000 0.120000 0.000000
0.080000 0.122000 0.000000
0.080000 0.124000 0.000000
0.080000 0.126000 0.000000
0.080000 0.128000 0.000000
0.080000 0.130000 0.000000
0.080000 0.132000 0.000000
0.080000 0.134000 0.000000
0.080000 0.136000 0.000000
0.080000 0.138000 0.000000
0.080000 0.140000 0.000000
0.080000 0.142000 0.000000
0.080000 0.144000 0.000000
0.080000 0.146000 0.000000
0.080000 0.148000 0.000000
0.080000 0.150000 0.000000
0.080000 0.152000 0.000000
0.080000 0.154000 0.000000
0.080000 0.156000 0.000000
0.080000 0.158000 0.000000
0.078000 0.160000 0.000000
0.076000 0.160000 0.000000
0.074000 0.160000 0.000000
0.072000 0.160000 0.000000
0.070000 0.160000 0.000000
0.068000 0.160000 0.000000
0.066000 0.160000 0.000000
0.064000 0.160000 0.000000
0.062000 0.160000 0.000000
0.060000 0.160000 0.000000
0.058000 0.160000 0.000000
0.056000 0.160000 0.000000
0.054000 0.160000 0.000000
0.052000 0.160000 0.000000
0.050000 0.160000 0.000000
0.048000 0.160000 0.000000
0.046000 0.160000 0.000000
0.044000 0.160000 0.000000
0.042000 0.160000 0.000000
0.040000 0.160000 0.000000
0.038000 0.160000 0.000000
0.036000 0.160000 0.000000
0.034000 0.160000 0.000000
0.032000 0.160000 0.000000
0.030000 0.160000 0.000000
0.028000 0.160000 0.000000
0.026000 0.160000 0.000000
0.024000 0.160000 0.000000
0.022000 0.160000 0.000000
0.020000 0.160000 0.000000
0.018000 0.160000 0.000000
0.016000 0.160000 0.000000
0.014000 0.160000 0.000000
0.012000 0.160000 0.000000
0.010000 0.160000 0.000000
0.008000 0.160000 0.000000
0.006000 0.160000 0.000000
0.004000 0.160000 0.000000
0.002000 0.160000 0.000000
0.000000 0.158000 0.000000
0.000000 0.156000 0.000000
0.000000 0.154000 0.000000
0.000000 0.152000 0.000000
0.000000 0.150000 0.000000
0.000000 0.148000 0.000000
0.000000 0.146000 0.000000
0.000000 0.144000 0.000000
0.000000 0.142000 0.000000
0.000000 0.140000 0.000000
0.000000 0.138000 0.000000
0.000000 0.136000 0.000000
0.000000 0.134000 0.000000
0.000000 0.132000 0.000000
0.000000 0.130000 0.000000
0.000000 0.128000 0.000000
0.000000 0.126000 0.000000
0.000000 0.124000 0.000000
0.000000 0.122000 0.000000
0.000000 0.120000 0.000000
0.000000 0.118000 0.000000
0.000000 0.116000 0.000000
0.000000 0.114000 0.000000
0.000000 0.112000 0.000000
0.000000 0.110000 0.000000
0.000000 0.108000 0.000000
0.000000 0.106000 0.000000
0.000000 0.104000 0.000000
0.000000 0.102000 0.000000
0.000000 0.100000 0.000000
0.000000 0.098000 0.000000
0.000000 0.096000 0.000000
0.000000 0.094000 0.000000
0.000000 0.092000 0.000000
0.000000 0.090000 0.000000
0.000000 0.088000 0.000000
0.000000 0.086000 0.000000
0.000000 0.084000 0.000000
0.000000 0.082000 0.000000
0.000000 0.080000 0.000000
0.000000 0.078000 0.000000
0.000000 0.076000 0.000000
0.000000 0.074000 0.000000
0.000000 0.072000 0.000000
0.000000 0.070000 0.000000
0.000000 0.068000 0.000000
0.000000 0.066000 0.000000
0.000000 0.064000 0.000000
0.000000 0.062000 0.000000
0.000000 0.060000 0.000000
0.000000 0.058000 0.000000
0.000000 0.056000 0.000000
0.000000 0.054000 0.000000
0.000000 0.052000 0.000000
0.000000 0.050000 0.000000
0.000000 0.048000 0.000000
0.000000 0.046000 0.000000
0.000000 0.044000 0.000000
0.000000 0.042000 0.000000
0.000000 0.040000 0.000000
0.000000 0.038000 0.000000
0.000000 0.036000 0.000000
0.000000 0.034000 0.000000
0.000000 0.032000 0.000000
0.000000 0.030000 0.000000
0.000000 0.028000 0.000000
0.000000 0.026000 0.000000
0.000000 0.024000 0.000000
0.000000 0.022000 0.000000
0.000000 0.020000 0.000000
0.000000 0.018000 0.000000
0.000000 0.016000 0.000000
0.000000 0.014000 0.000000
0.000000 0.012000 0.000000
0.000000 0.010000 0.000000
0.000000 0.008000 0.000000
0.000000 0.006000 0.000000
0.000000 0.004000 0.000000
0.000000 0.002000 0.000000
0.035411 0.076518 0.000000
0.035821 0.076786 0.000000
0.036232 0.077054 0.000000
0.036643 0.077321 0.000000
0.037054 0.077589 0.000000
0.037464 0.077857 0.000000
0.037875 0.078125 0.000000
0.038286 0.078393 0.000000
0.038696 0.078661 0.000000
0.039107 0.078929 0.000000
0.039518 0.079196 0.000000
0.039929 0.079464 0.000000
0.040339 0.079732 0.000000
0.040750 0.080000 0.000000
0.041161 0.080268 0.000000
0.041571 0.080536 0.000000
0.041982 0.080804 0.000000
0.042393 0.081071 0.000000
0.042804 0.081339 0.000000
0.043214 0.081607 0.000000
0.043625 0.081875 0.000000
0.044036 0.082143 0.000000
0.044446 0.082411 0.000000
0.044857 0.082679 0.000000
0.045268 0.082946 0.000000
0.045679 0.083214 0.000000
0.046089 0.083482 0.000000
0.040000 0.002000 0.000000
0.040001 0.158005 0.000000
0.002000 0.116000 0.000000
0.078000 0.048000 0.000000
0.002000 0.106000 0.000000
0.078000 0.058000 0.000000
0.001986 0.042173 0.000000
0.078015 0.117826 0.000000
0.001985 0.094174 0.000000
0.001985 0.084174 0.000000
0.001914 0.056074 0.000000
0.002000 0.072000 0.000000
0.078015 0.065826 0.000000
0.078016 0.075826 0.000000
0.078000 0.088000 0.000000
0.078000 0.104000 0.000000
0.078003 0.029997 0.000000
0.001998 0.130002 0.000000
0.002000 0.032000 0.000000
0.078013 0.128003 0.000000
0.056000 0.158000 0.000000
0.026000 0.002000 0.000000
0.060000 0.002000 0.000000
0.020000 0.158000 0.000000
0.002000 0.020000 0.000000
0.078000 0.142000 0.000000
0.002000 0.146000 0.000000
0.078000 0.020000 0.000000
0.016000 0.002000 0.000000
0.068000 0.002000 0.000000
0.066000 0.158000 0.000000
0.002000 0.014000 0.000000
0.008000 0.158000 0.000000
0.010000 0.002000 0.000000
0.078000 0.148000 0.000000
0.078000 0.008000 0.000000
0.078005 0.037995 0.000000
0.051991 0.001990 0.000000
0.028000 0.158000 0.000000
0.002000 0.008000 0.000000
0.078000 0.094000 0.000000
0.078000 0.110000 0.000000
0.001983 0.066159 0.000000
0.002000 0.050000 0.000000
0.046000 0.158000 0.000000
0.078000 0.134000 0.000000
0.002000 0.140000 0.000000
0.006000 0.002000 0.000000
0.002000 0.154000 0.000000
0.074000 0.002000 0.000000
0.078000 0.152000 0.000000
0.074000 0.158000 0.000000
0.078000 0.080000 0.000000
0.078000 0.070000 0.000000
0.078000 0.122000 0.000000
0.002000 0.090000 0.000000
0.002000 0.080000 0.000000
0.002000 0.038000 0.000000
0.002000 0.102000 0.000000
0.002000 0.112000 0.000000
0.036000 0.002000 0.000000
0.078000 0.042000 0.000000
0.032000 0.002000 0.000000
0.047987 0.001989 0.000000
0.032008 0.158010 0.000000
0.002000 0.028000 0.000000
0.002000 0.126000 0.000000
0.060000 0.158000 0.000000
0.022000 0.002000 0.000000
0.002000 0.136000 0.000000
0.078000 0.024000 0.000000
0.012000 0.158000 0.000000
0.078000 0.158000 0.000000
0.001947 0.003947 0.000000
0.002000 0.158000 0.000000
0.078000 0.012000 0.000000
0.078000 0.096000 0.000000
0.078000 0.098000 0.000000
0.078000 0.082000 0.000000
0.078111 0.099889 0.000000
0.078035 0.083965 0.000000
0.078000 0.090000 0.000000
0.078000 0.106000 0.000000
0.078000 0.072000 0.000000
0.078000 0.112000 0.000000
0.078043 0.061976 0.000000
0.078000 0.114000 0.000000
0.002000 0.064000 0.000000
0.002000 0.062000 0.000000
0.002000 0.088000 0.000000
0.002000 0.078000 0.000000
0.002000 0.060000 0.000000
0.001966 0.076034 0.000000
0.002000 0.070000 0.000000
0.002000 0.054000 0.000000
0.001957 0.098024 0.000000
0.002000 0.048000 0.000000
0.002000 0.046000 0.000000
[...]
POINT_DATA 5510
SCALARS UX float 1
LOOKUP_TABLE default
-0.009495
0.012456
0.000000
-0.021510
-0.006065
-0.002639
-0.008944
-0.008393
-0.007842
-0.007290
-0.006739
-0.006188
-0.005638
-0.005087
-0.004537
-0.003988
-0.003439
-0.002890
-0.002342
-0.001795
-0.001248
-0.000701
-0.000155
0.000391
0.000936
0.001482
0.002027
0.002573
0.003118
0.003664
0.004209
0.004755
0.005302
0.005848
0.006396
0.006943
0.007492
0.008041
0.008591
0.009141
0.009692
0.010244
0.010796
0.011349
0.011902
0.012312
0.012169
0.012026
0.011883
0.011742
0.011600
0.011460
0.011319
0.011179
0.011040
0.010901
0.010764
0.010627
0.010491
0.010356
0.010223
0.010091
0.009960
0.009830
0.009702
0.009575
0.009449
0.009324
0.009200
0.009076
0.008953
0.008830
0.008705
0.008580
0.008453
0.008324
0.008194
0.008061
0.007925
0.007785
0.007644
0.007497
0.007347
0.007192
0.007031
0.006867
0.006696
0.006517
0.006331
0.006141
0.005942
0.005738
0.005532
0.005321
0.005111
0.004904
0.004702
0.004502
0.004313
0.004130
0.003955
0.003782
0.003619
0.003460
0.003304
0.003152
0.003002
0.002855
0.002710
0.002566
0.002423
0.002281
0.002140
0.001999
0.001859
0.001718
0.001578
0.001439
0.001301
0.001163
0.001027
0.000890
0.000737
0.000500
-0.000004
-0.000581
-0.001153
-0.001717
-0.002276
-0.002833
-0.003388
-0.003941
-0.004494
-0.005045
-0.005596
-0.006146
-0.006695
-0.007243
-0.007792
-0.008339
-0.008886
-0.009432
-0.009979
-0.010525
-0.011070
-0.011616
-0.012162
-0.012708
-0.013254
-0.013801
-0.014348
-0.014895
-0.015442
-0.015991
-0.016540
-0.017089
-0.017639
-0.018191
-0.018742
-0.019295
-0.019848
-0.020401
-0.020955
-0.021365
-0.021222
-0.021079
-0.020937
-0.020795
-0.020654
-0.020514
-0.020374
-0.020235
-0.020097
-0.019959
-0.019822
-0.019686
-0.019551
-0.019418
-0.019285
-0.019154
-0.019023
-0.018894
-0.018766
-0.018639
-0.018513
-0.018388
-0.018263
-0.018138
-0.018013
-0.017888
-0.017762
-0.017635
-0.017506
-0.017375
-0.017242
-0.017107
-0.016970
-0.016828
-0.016686
-0.016538
-0.016387
-0.016232
-0.016071
-0.015908
-0.015738
-0.015561
-0.015379
-0.015193
-0.014998
-0.014799
-0.014596
-0.014392
-0.014186
-0.013982
-0.013782
-0.013584
-0.013395
-0.013211
-0.013030
-0.012861
-0.012695
-0.012533
-0.012375
-0.012221
-0.012068
-0.011920
-0.011774
-0.011629
-0.011484
-0.011341
-0.011199
-0.011057
-0.010916
-0.010774
-0.010633
-0.010491
-0.010350
-0.010208
-0.010066
-0.009924
-0.009781
-0.009638
-0.005929
-0.005795
-0.005610
-0.005430
-0.005288
-0.005185
-0.005073
-0.004949
-0.004868
-0.004747
-0.004644
-0.004560
-0.004447
-0.004334
-0.004199
-0.004070
-0.003943
-0.003813
-0.003696
-0.003612
-0.003519
-0.003430
-0.003323
-0.003221
-0.003096
-0.002955
-0.002818
0.001340
-0.010383
-0.017954
0.008641
-0.017335
0.008029
-0.011985
0.002911
-0.016580
-0.015866
-0.013241
-0.014833
0.007533
0.006827
0.005786
0.004127
0.009798
-0.018859
-0.011215
0.002154
-0.006003
-0.002485
0.006801
-0.015848
-0.010362
0.001164
-0.019958
0.010484
-0.005231
0.008998
-0.003246
-0.009939
-0.019150
-0.006883
0.000746
0.011329
0.009271
0.004611
-0.013659
-0.009515
0.005179
0.003558
-0.014262
-0.012638
-0.008743
0.001725
-0.019540
-0.007985
-0.020524
0.010652
0.000466
-0.001029
0.006494
0.007246
0.002589
-0.016289
-0.015533
-0.011657
-0.017085
-0.017706
0.000249
0.009014
-0.000844
0.003519
-0.012565
-0.010928
-0.018594
-0.004902
-0.003582
-0.019264
0.010206
-0.018047
-0.000003
-0.009241
-0.020810
0.011046
0.004968
0.004754
0.006327
0.004584
0.006165
0.005589
0.003930
0.007104
0.003382
0.007791
0.003214
-0.014035
-0.013827
-0.016146
-0.015368
-0.013618
-0.015207
-0.014641
-0.013013
-0.016842
-0.012461
-0.012292
0.008275
0.008895
0.008519
-0.017582
-0.018206
0.002441
-0.011508
0.002431
-0.011474
-0.009836
0.009533
-0.008196
-0.007649
-0.018463
-0.001391
0.005706
-0.014752
-0.010785
0.002011
0.001584
-0.010644
0.001444
-0.019128
-0.007101
0.010069
-0.019818
-0.004351
-0.004131
0.007898
-0.016946
0.001024
0.010764
-0.020240
-0.010221
-0.009798
-0.002691
-0.005781
-0.002137
0.000327
-0.020256
-0.008573
-0.009174
0.011615
0.010100
0.011758
-0.017163
0.008098
-0.015766
-0.015021
-0.014300
-0.013085
-0.012086
0.005985
0.005253
0.004054
0.006724
0.002849
-0.010233
-0.017912
0.001597
-0.011110
-0.000989
-0.006963
-0.010374
0.000892
-0.003725
-0.018707
0.009649
-0.004761
-0.009669
-0.005373
-0.019403
-0.002556
0.003572
0.008372
-0.009387
-0.000091
0.010508
0.005661
0.004214
0.004635
-0.014701
-0.013287
-0.013699
-0.011758
0.005421
0.006006
0.004370
0.006690
0.006975
0.003772
0.007416
0.003068
-0.014478
-0.016014
-0.015049
-0.016460
-0.013429
-0.015728
-0.012839
-0.012144
0.007663
-0.016712
0.007917
-0.016971
0.008165
0.002780
-0.017223
-0.011851
0.008409
-0.017470
-0.017851
0.008774
-0.018088
0.009147
-0.018339
0.001881
-0.010924
0.000791
-0.009287
0.002972
-0.012017
0.002303
-0.011368
0.009402
-0.000299
0.004064
-0.013110
-0.008050
0.005158
-0.014204
-0.018726
-0.011073
0.001869
0.009664
-0.010232
-0.001938
0.001171
-0.006552
0.006252
-0.015299
-0.010504
0.001305
-0.018992
0.009932
-0.019401
-0.005453
-0.003033
-0.019679
0.010344
-0.003799
-0.004681
-0.016396
0.007349
-0.017496
0.008447
0.000885
-0.010080
-0.018598
0.010623
-0.020099
0.000607
0.010904
-0.009657
-0.006332
-0.020382
-0.001583
0.011187
0.000176
-0.007434
-0.009373
-0.019703
-0.008679
0.009549
-0.000488
-0.020113
-0.020667
0.011472
0.011061
0.011205
-0.016473
0.007418
-0.012590
0.002829
0.003516
-0.009822
-0.012977
0.005021
-0.015158
0.007206
0.010350
-0.017353
0.000331
0.008856
0.000666
-0.018455
-0.019827
0.004890
0.002533
-0.013946
0.007189
0.006881
-0.016238
-0.015927
0.006451
0.006157
-0.015489
-0.015194
0.007668
-0.016727
0.002227
-0.010814
-0.011873
-0.010519
0.009106
0.001316
-0.018172
-0.002081
-0.003177
-0.004823
0.008304
-0.019123
-0.018845
-0.006474
-0.009105
-0.019544
0.010068
0.009788
-0.001457
-0.000238
0.010633
0.010365
0.005057
0.005454
-0.014108
0.003843
-0.014495
0.002720
-0.012871
-0.012296
0.008256
0.006593
-0.015632
-0.011610
-0.011276
-0.017303
-0.017541
0.003189
0.003387
0.007866
0.007982
-0.016929
-0.017046
-0.010800
0.004445
0.005824
-0.017788
-0.013505
-0.014862
0.003023
0.008597
0.008478
-0.011934
-0.010964
0.001748
0.003921
-0.000430
-0.008591
0.001756
-0.009160
0.001458
-0.018044
-0.014065
-0.006417
-0.001536
0.009375
0.009511
-0.018435
-0.018571
0.000751
0.006111
-0.010093
-0.009809
-0.007507
0.001033
-0.004273
-0.009697
-0.005311
-0.016254
-0.003659
-0.004210
-0.003107
-0.019262
-0.005923
0.009405
-0.009528
-0.009246
-0.007577
0.009956
-0.002006
-0.008128
0.010918
0.000051
-0.000387
-0.019970
-0.008822
-0.019559
-0.010736
0.007946
-0.016473
0.002152
-0.014690
-0.015436
-0.013626
-0.009511
0.006398
0.005674
0.004526
-0.017254
0.001203
-0.006822
-0.000589
0.008823
0.000482
-0.017882
-0.003320
-0.004072
-0.009256
-0.004965
-0.018568
-0.008694
-0.011777
-0.012389
0.002702
-0.001874
0.005012
-0.014074
-0.011092
0.007754
0.003933
-0.013013
-0.009969
-0.010422
-0.017496
-0.001679
-0.006066
0.000471
-0.018848
-0.000503
0.003288
0.004370
0.002518
-0.013439
0.006307
0.007025
-0.015344
-0.016072
0.007294
-0.016346
-0.017417
0.005321
0.003672
-0.012786
0.007543
-0.016600
-0.011478
-0.014356
0.002344
-0.017653
-0.012645
-0.012362
-0.008989
-0.010627
-0.012410
0.006124
-0.015162
0.008726
-0.016811
-0.011418
0.007749
0.004460
0.000108
0.001201
0.003365
0.002056
0.001902
0.008983
-0.010667
0.007469
-0.005860
0.009242
-0.013521
-0.018302
0.000339
0.000909
-0.007908
-0.002630
-0.009952
-0.016535
-0.016799
0.005566
-0.014611
0.008960
0.009233
-0.009684
-0.018018
-0.018290
-0.005169
-0.003520
0.000763
0.006659
-0.015706
-0.018984
-0.004414
-0.011334
0.009928
-0.008976
0.000611
-0.016802
0.007754
-0.002971
0.008854
0.010209
0.009813
-0.007025
0.000191
-0.019685
0.010491
-0.008270
-0.017903
0.010222
0.010775
-0.008963
-0.000788
-0.000916
-0.019416
-0.019007
0.002292
0.002874
-0.015954
-0.012958
-0.012103
0.003922
-0.008892
-0.017335
0.000365
0.002689
0.008276
-0.009423
-0.012836
0.004879
0.007611
-0.003931
-0.015016
-0.004559
0.009655
0.007002
-0.016660
0.009670
-0.017760
0.003211
-0.016058
0.008310
-0.000069
-0.012217
0.005766
-0.014871
-0.015803
-0.015524
0.006750
0.006480
0.000524
-0.017753
-0.005722
-0.009401
-0.002774
0.009374
0.000060
-0.008554
-0.018863
-0.011901
0.006019
-0.015059
-0.010888
0.002259
-0.013908
0.004781
0.002325
-0.016209
0.007139
0.007405
-0.012355
0.007838
-0.016364
-0.017034
-0.016902
-0.017135
0.005477
-0.014507
0.005084
0.001347
0.001699
-0.014144
-0.000052
-0.011731
-0.011158
0.004109
-0.013169
0.006239
-0.015280
0.003065
-0.010575
0.008691
0.008067
-0.011582
0.003778
0.002010
-0.017623
-0.017370
0.001599
-0.006278
-0.016643
-0.009544
-0.002225
0.001054
-0.001139
-0.013383
-0.010115
-0.010271
0.007574
-0.011260
0.009096
0.005425
-0.007364
0.008435
-0.008448
-0.018153
-0.018429
0.000624
0.000200
-0.009137
-0.015564
0.006517
-0.009117
-0.003867
0.008711
-0.004621
-0.005516
-0.003383
-0.008836
-0.013925
-0.000082
-0.000362
0.009262
0.009938
0.010080
-0.007167
-0.006616
-0.008412
-0.007719
-0.018708
-0.002422
-0.018990
-0.019274
-0.010092
-0.001330
-0.000645
0.007416
0.006532
-0.014579
-0.013957
-0.010930
-0.011809
0.005543
0.004945
0.000346
-0.012704
0.004743
-0.014877
-0.006140
-0.003793
-0.017877
-0.008567
-0.016526
-0.000489
-0.010203
-0.001821
0.006885
0.005973
-0.015011
-0.008284
-0.005658
-0.006759
-0.018295
-0.018721
-0.010485
0.003681
0.002806
0.004515
0.004063
-0.013586
-0.013117
-0.012742
0.007249
0.002388
-0.011301
0.008152
0.000078
0.005207
-0.002917
0.008545
-0.004012
-0.008002
-0.000914
-0.001740
-0.009421
-0.016722
-0.016958
-0.017208
0.003443
0.003032
-0.016410
0.002017
0.001649
-0.012531
0.006602
-0.015651
-0.015821
-0.015594
-0.015921
0.006866
0.007302
0.001853
0.001525
0.005640
-0.014672
-0.011902
-0.008362
-0.007764
-0.010040
-0.011061
0.000508
0.000818
-0.009723
-0.012287
-0.016027
-0.010607
0.008189
0.004331
-0.005576
0.003234
0.000222
0.002133
-0.008999
0.006952
0.008412
-0.000739
-0.016261
-0.017603
-0.017469
-0.009575
0.009514
-0.014469
0.005970
-0.009279
-0.000208
-0.005109
0.008822
-0.005028
-0.004479
-0.007223
0.008558
-0.013244
-0.016111
0.008160
-0.018016
0.007063
-0.008850
-0.000221
0.009119
0.009386
0.009796
-0.002835
-0.017210
-0.001194
0.009528
-0.007309
-0.007861
-0.018311
-0.019132
0.001060
-0.014221
-0.012041
0.005848
-0.014884
-0.009677
-0.015356
0.006370
-0.012667
-0.014174
0.003423
0.005110
-0.008753
-0.000024
-0.008881
-0.016668
-0.012566
0.007606
-0.000611
-0.004154
0.006374
-0.017327
-0.010394
-0.008453
-0.016518
0.003023
0.001367
-0.015210
-0.015473
0.006160
0.006407
0.006586
-0.007622
-0.005980
0.000994
0.001458
0.007649
0.002548
-0.016923
0.007865
-0.014335
-0.005250
-0.000773
0.007468
0.008568
-0.018579
-0.011977
-0.014425
0.005374
0.001536
0.004270
0.004720
-0.013303
-0.010404
-0.013732
-0.015032
0.005987
0.001872
0.007312
0.006731
0.002588
-0.011751
0.001784
-0.011081
-0.011608
-0.012483
-0.009890
0.005781
0.000672
-0.014819
-0.015449
-0.015667
0.000881
0.007896
-0.017084
0.008022
0.004197
0.002557
-0.010758
-0.000320
0.007532
0.005046
0.003102
-0.009180
-0.016131
-0.016831
-0.013784
-0.002372
-0.000347
0.008962
0.009245
-0.004886
-0.003466
-0.008735
-0.017740
-0.012160
-0.011603
-0.000201
-0.008426
0.007051
-0.004339
-0.000632
0.008682
-0.006681
-0.018155
-0.003246
-0.008708
-0.006208
-0.017067
-0.018169
-0.006900
0.005284
-0.018437
-0.015421
0.008835
0.008977
-0.008143
-0.001603
-0.001054
-0.007451
-0.002287
-0.001280
-0.009955
-0.016607
-0.014062
-0.014455
-0.011425
-0.012109
0.005307
0.003554
-0.015339
0.006286
0.002850
0.004708
0.006882
-0.014948
0.005817
-0.010613
-0.012208
-0.011120
0.001268
-0.008345
-0.001422
0.004063
-0.016026
-0.004745
0.008275
-0.014735
-0.008017
-0.014870
-0.014570
0.005528
-0.001036
0.008694
-0.016377
-0.017604
-0.013767
0.004790
0.001312
0.006727
0.004493
0.004067
0.003760
0.006046
0.006270
-0.009340
-0.009865
-0.013529
-0.016199
-0.006520
-0.017189
-0.002515
-0.003609
-0.003654
-0.006350
-0.002150
0.000198
-0.014039
0.005011
-0.013094
-0.011497
0.003213
0.002297
0.001876
-0.009928
-0.010199
-0.015140
0.001492
-0.015246
-0.011253
-0.011481
0.001150
-0.009509
-0.012281
-0.011596
0.005302
-0.008151
0.000139
-0.014353
0.001058
-0.009284
0.000481
-0.011488
-0.010926
-0.016424
0.007358
0.002746
-0.007086
-0.000171
0.003645
-0.008597
0.006995
-0.015529
0.001993
-0.016791
0.006437
-0.017056
0.007732
-0.013652
-0.013104
-0.015754
-0.009060
-0.005430
-0.000463
0.007767
0.005828
-0.014234
0.005201
-0.007876
-0.007042
-0.016544
-0.004703
-0.001181
-0.001464
-0.015967
-0.017465
-0.005799
0.008016
0.009103
-0.000751
-0.010230
0.008000
-0.002699
0.006921
0.008287
-0.018027
-0.007734
-0.008305
0.008427
-0.007592
-0.017617
-0.000879
-0.017885
0.004601
0.007478
-0.012030
-0.011007
0.003125
0.002463
-0.014765
0.005714
0.001377
0.004363
-0.012822
-0.009345
0.006346
-0.014277
0.005226
-0.013597
0.003214
0.004610
0.002273
-0.009673
-0.000386
-0.015903
-0.007512
-0.011894
-0.001021
0.006941
-0.016380
0.003923
-0.003753
-0.001002
-0.007913
-0.016780
0.005009
-0.014048
-0.007469
-0.001587
0.007322
-0.005392
0.006232
0.008145
0.007238
-0.012975
-0.015827
0.008554
-0.006493
-0.007184
-0.017336
0.002647
-0.012389
0.005550
-0.014596
0.003845
-0.009734
0.003912
-0.013214
-0.015876
-0.014669
0.006153
0.006787
-0.015040
-0.010985
0.002100
-0.014822
-0.010867
0.004607
0.005938
0.000302
0.000879
0.000633
0.002389
-0.008111
-0.016314
-0.010255
0.001796
-0.011836
-0.011999
0.007110
-0.000707
-0.010820
-0.013619
-0.016087
-0.006919
0.002961
-0.014982
0.002970
0.003512
0.004689
-0.013712
0.005883
-0.013947
-0.008535
-0.008905
-0.016128
0.001987
-0.000891
-0.016513
-0.005830
0.007066
-0.015630
-0.001967
0.008137
0.006533
-0.003066
-0.015279
0.008414
-0.005287
0.007873
-0.004298
-0.008162
-0.016917
-0.004199
-0.002011
-0.016925
-0.001291
0.006780
-0.008201
-0.001321
0.004865
-0.010421
-0.014193
-0.002562
-0.003109
-0.017477
-0.017744
0.005141
-0.000342
-0.009166
0.000733
0.004874
-0.013909
-0.011206
0.001376
-0.008615
0.004288
-0.011590
-0.011305
0.005616
-0.014664
0.003774
-0.009981
0.000946
-0.012936
0.001548
-0.013273
-0.008828
-0.014450
-0.013617
-0.013088
0.004579
-0.011966
-0.010678
0.002739
-0.009598
-0.007986
-0.007319
0.006401
-0.015845
-0.003897
-0.005145
0.000498
-0.016236
-0.014594
-0.015690
0.001121
-0.011445
0.006094
-0.010560
-0.014388
0.005175
-0.014225
0.006236
-0.010137
0.006587
0.004320
-0.002113
-0.003515
-0.007618
-0.003211
-0.010783
0.007590
-0.006635
-0.002417
-0.017195
-0.016787
-0.009741
0.006818
-0.012815
0.000349
-0.014727
0.001051
0.006265
0.005070
-0.014118
-0.014317
0.005519
0.005592
-0.008731
0.001619
0.004097
-0.007954
-0.013327
0.005823
-0.000217
-0.015688
-0.015541
-0.015371
-0.013470
0.001791
0.006461
-0.010168
-0.000548
0.004442
-0.008061
0.003379
0.002106
-0.001434
0.004778
-0.013802
-0.011754
0.002288
-0.016016
-0.015040
0.005933
-0.007765
-0.012429
-0.011060
-0.000852
0.005343
-0.001566
0.007456
-0.015252
0.008006
-0.001727
-0.006372
0.005684
-0.016254
-0.004604
-0.005944
-0.017055
-0.007328
0.007190
-0.001870
-0.001148
0.007739
-0.016643
-0.007815
0.000056
-0.000485
-0.004845
0.001822
0.007730
-0.013513
0.007325
0.004459
0.002769
-0.015790
0.001448
-0.009146
-0.011360
0.003921
0.003588
-0.008960
0.002467
0.000131
-0.012557
0.003343
-0.009467
0.001100
0.004190
-0.016042
-0.010464
-0.014534
0.005691
-0.013886
0.004909
-0.013176
-0.011541
0.003681
0.004190
0.001681
-0.009524
-0.000730
-0.015203
0.001505
-0.000629
-0.007460
0.003781
-0.012303
0.006781
-0.001386
-0.005004
-0.007377
-0.001830
-0.013959
-0.014874
-0.007694
0.001173
0.002197
-0.008434
0.005977
0.006282
-0.009077
-0.015380
0.000842
0.000902
-0.003355
0.003495
-0.007076
-0.004987
0.007047
-0.001717
0.005546
-0.016101
-0.006088
0.007192
0.002915
-0.009280
0.004567
-0.013611
-0.011476
0.005690
-0.010348
-0.008179
-0.000014
0.004274
0.004457
-0.013299
-0.013489
-0.013143
-0.010614
-0.015614
-0.013044
-0.008515
-0.001075
0.003924
0.004740
-0.013793
-0.014499
-0.015605
-0.001978
-0.002274
0.001394
-0.010847
0.002823
-0.015721
0.002548
-0.011184
0.000690
0.005000
-0.015974
-0.002668
-0.015138
-0.011225
-0.014218
0.007868
-0.016648
-0.010792
-0.015136
-0.002964
0.006637
-0.005684
0.006021
-0.006771
0.007462
-0.016234
-0.004442
-0.014050
0.006527
0.007599
-0.006779
-0.004060
-0.001533
-0.007671
-0.016372
-0.012837
-0.008658
-0.009937
0.004189
0.000591
0.006702
-0.010696
0.002074
-0.012105
-0.012574
0.000409
0.003459
-0.000061
-0.008981
0.000590
-0.015561
-0.012861
-0.014315
0.005508
-0.008857
-0.012698
-0.010281
0.002510
0.001779
0.003807
0.000920
0.005748
-0.011699
-0.012166
-0.015081
-0.015438
-0.001910
-0.003497
-0.010064
-0.002369
0.005408
0.005222
-0.011025
-0.014994
-0.003919
-0.012683
-0.008174
-0.010391
-0.000509
0.003214
-0.015695
-0.005541
-0.002817
-0.016102
-0.006233
0.007324
-0.004583
0.006168
-0.010557
-0.008334
-0.009640
-0.009103
0.005724
0.005076
-0.000388
0.001969
-0.007637
0.003798
-0.015045
-0.012826
0.001540
-0.014100
-0.013814
0.005856
-0.013978
-0.000897
0.002384
0.004367
-0.013394
-0.007528
-0.010659
-0.015281
0.003520
0.001008
0.003081
0.002685
0.002323
0.001831
0.004041
-0.014560
-0.011368
-0.011752
-0.001228
-0.007226
0.006507
0.006915
-0.001174
-0.013200
-0.015490
-0.013809
0.004787
0.004164
-0.002268
0.007185
-0.005537
-0.006224
-0.006925
-0.012919
-0.016510
-0.002127
0.005436
-0.002818
-0.001681
0.001179
-0.014761
-0.004461
0.006918
0.005863
0.006063
-0.013915
-0.013372
-0.000088
-0.007291
-0.009398
-0.009241
0.007055
0.006652
0.004317
-0.015193
0.003246
-0.008490
-0.012192
-0.010040
0.000983
-0.007167
0.000674
-0.015064
-0.015124
0.000028
-0.000048
0.000305
0.005157
-0.012422
0.004653
-0.013700
-0.000361
-0.013347
0.004477
-0.011152
-0.012352
0.003286
0.002108
-0.009477
-0.000229
0.005214
-0.007122
0.002019
0.003640
-0.014564
0.006243
-0.005398
0.005306
-0.013543
-0.014691
-0.014386
-0.006829
0.000416
0.001940
-0.004322
0.003062
0.001393
0.001051
-0.002211
0.005421
-0.011634
-0.005690
0.006376
0.006510
0.006784
-0.001322
-0.002672
-0.015966
-0.013239
-0.000536
-0.001237
0.000180
0.004263
-0.013311
-0.011215
0.003543
0.003687
-0.010371
-0.012793
0.005134
0.005443
0.005634
-0.009878
0.002130
-0.007914
0.002682
-0.000935
0.001375
-0.013466
0.001629
-0.001414
-0.001752
-0.002058
-0.010478
0.005331
-0.014874
0.003894
0.004059
-0.013089
-0.014976
-0.012917
-0.013360
0.004313
-0.011083
-0.014037
-0.003370
-0.010739
-0.005128
-0.015535
-0.006528
-0.015312
-0.014656
-0.002514
-0.015827
-0.006378
0.004858
-0.001870
-0.002959
-0.010182
0.000743
-0.006623
-0.006075
-0.012700
0.005955
-0.014556
-0.008165
-0.004042
0.000445
-0.015562
-0.007148
0.005987
-0.006942
0.002569
-0.014452
0.005511
-0.013847
-0.008490
-0.012488
-0.009916
-0.007584
-0.012555
-0.012062
-0.011855
0.000209
-0.008842
-0.009173
0.004735
0.004293
-0.013336
-0.008633
0.004294
-0.013023
-0.012902
-0.010023
0.003235
0.001235
-0.001467
-0.009243
-0.006610
0.001322
-0.001477
-0.003102
-0.012040
-0.002268
-0.012204
0.000500
-0.014903
-0.007845
0.004758
0.004932
-0.010712
-0.009936
0.002261
-0.013423
0.001583
0.003458
-0.011626
-0.002747
-0.003054
-0.014314
-0.015158
-0.004730
-0.005984
0.006243
0.004734
0.005106
0.004853
-0.015428
-0.008396
0.000303
-0.011313
-0.012290
-0.012817
-0.000106
0.003783
0.003852
-0.009853
-0.009384
-0.010978
0.003418
-0.012419
0.005080
0.001210
-0.010248
-0.013601
-0.007381
0.003139
-0.010538
0.000587
-0.003789
0.003983
-0.013007
-0.001734
-0.012456
-0.007000
-0.014644
-0.012131
0.004867
-0.014353
-0.010980
-0.010432
0.004609
-0.001582
-0.014091
-0.014278
0.002768
-0.014664
-0.006689
-0.014779
0.006648
0.001942
0.004178
0.006115
-0.000778
-0.013412
0.005532
-0.007993
-0.006469
-0.007029
0.004357
-0.012570
-0.002415
-0.004859
-0.013532
-0.003642
0.000825
-0.005287
0.005174
-0.013774
0.005331
-0.005935
-0.006771
-0.003213
-0.002428
-0.005836
0.005836
0.003104
-0.000850
0.006375
-0.014461
-0.009782
0.001895
-0.000522
-0.008088
0.000233
-0.014483
-0.008981
-0.000211
-0.009078
-0.000497
-0.010944
-0.010216
0.001748
-0.001946
-0.013848
0.001243
0.004578
-0.011909
0.003503
-0.006861