# vtk DataFile Version 2.0
Test
ASCII
DATASET POLYDATA
POINTS 5510 float
0.000000 0.000000 0.000000
0.080000 0.000000 0.000000
0.080000 0.160000 0.000000
0.000000 0.160000 0.000000
0.035000 0.076250 0.000000
0.046500 0.083750 0.000000
0.002000 0.000000 0.000000
0.004000 0.000000 0.000000
0.006000 0.000000 0.000000
0.008000 0.000000 0.000000
0.010000 0.000000 0.000000
0.012000 0.000000 0.000000
0.014000 0.000000 0.000000
0.016000 0.000000 0.000000
0.018000 0.000000 0.000000
0.020000 0.000000 0.000000
0.022000 0.000000 0.000000
0.024000 0.000000 0.000000
0.026000 0.000000 0.000000
0.028000 0.000000 0.000000
0.030000 0.000000 0.000000
0.032000 0.000000 0.000000
0.034000 0.000000 0.000000
0.036000 0.000000 0.000000
0.038000 0.000000 0.000000
0.040000 0.000000 0.000000
0.042000 0.000000 0.000000
0.044000 0.000000 0.000000
0.046000 0.000000 0.000000
0.048000 0.000000 0.000000
0.050000 0.000000 0.000000
0.052000 0.000000 0.000000
0.054000 0.000000 0.000000
0.056000 0.000000 0.000000
0.058000 0.000000 0.000000
0.060000 0.000000 0.000000
0.062000 0.000000 0.000000
0.064000 0.000000 0.000000
0.066000 0.000000 0.000000
0.068000 0.000000 0.000000
0.070000 0.000000 0.000000
0.072000 0.000000 0.000000
0.074000 0.000000 0.000000
0.076000 0.000000 0.000000
0.078000 0.000000 0.000000
0.080000 0.002000 0.000000
0.080000 0.004000 0.000000
0.080000 0.006000 0.000000
0.080000 0.008000 0.000000
0.080000 0.010000 0.000000
0.080000 0.012000 0.000000
0.080000 0.014000 0.000000
0.080000 0.016000 0.000000
0.080000 0.018000 0.000000
0.080000 0.020000 0.000000
0.080000 0.022000 0.000000
0.080000 0.024000 0.000000
0.080000 0.026000 0.000000
0.080000 0.028000 0.000000
0.080000 0.030000 0.000000
0.080000 0.032000 0.000000
0.080000 0.034000 0.000000
0.080000 0.036000 0.000000
0.080000 0.038000 0.000000
0.080000 0.040000 0.000000
0.080000 0.042000 0.000000
0.080000 0.044000 0.000000
0.080000 0.046000 0.000000
0.080000 0.048000 0.000000
0.080000 0.050000 0.000000
0.080000 0.052000 0.000000
0.080000 0.054000 0.000000
0.080000 0.056000 0.000000
0.080000 0.058000 0.000000
0.080000 0.060000 0.000000
0.080000 0.062000 0.000000
0.080000 0.064000 0.000000
0.080000 0.066000 0.000000
0.080000 0.068000 0.000000
0.080000 0.070000 0.000000
0.080000 0.072000 0.000000
0.080000 0.074000 0.000000
0.080000 0.076000 0.000000
0.080000 0.078000 0.000000
0.080000 0.080000 0.000000
0.080000 0.082000 0.000000
0.080000 0.084000 0.000000
0.080000 0.086000 0.000000
0.080000 0.088000 0.000000
0.080000 0.090000 0.000000
0.080000 0.092000 0.000000
0.080000 0.094000 0.000000
0.080000 0.096000 0.000000
0.080000 0.098000 0.000000
0.080000 0.100000 0.000000
0.080000 0.102000 0.000000
0.080000 0.104000 0.000000
0.080000 0.106000 0.000000
0.080000 0.108000 0.000000
0.080000 0.110000 0.000000
0.080000 0.112000 0.000000
0.080000 0.114000 0.000000
0.080000 0.116000 0.000000
0.080000 0.118000 0.000000
0.080000 0.120000 0.000000
0.080000 0.122000 0.000000
0.080000 0.124000 0.000000
0.080000 0.126000 0.000000
0.080000 0.128000 0.000000
0.080000 0.130000 0.000000
0.080000 0.132000 0.000000
0.080000 0.134000 0.000000
0.080000 0.136000 0.000000
0.080000 0.138000 0.000000
0.080000 0.140000 0.000000
0.080000 0.142000 0.000000
0.080000 0.144000 0.000000
0.080000 0.146000 0.000000
0.080000 0.148000 0.000000
0.080000 0.150000 0.000000
0.080000 0.152000 0.000000
0.080000 0.154000 0.000000
0.080000 0.156000 0.000000
0.080000 0.158000 0.000000
0.078000 0.160000 0.000000
0.076000 0.160000 0.000000
0.074000 0.160000 0.000000
0.072000 0.160000 0.000000
0.070000 0.160000 0.000000
0.068000 0.160000 0.000000
0.066000 0.160000 0.000000
0.064000 0.160000 0.000000
0.062000 0.160000 0.000000
0.060000 0.160000 0.000000
0.058000 0.160000 0.000000
0.056000 0.160000 0.000000
0.054000 0.160000 0.000000
0.052000 0.160000 0.000000
0.050000 0.160000 0.000000
0.048000 0.160000 0.000000
0.046000 0.160000 0.000000
0.044000 0.160000 0.000000
0.042000 0.160000 0.000000
0.040000 0.160000 0.000000
0.038000 0.160000 0.000000
0.036000 0.160000 0.000000
0.034000 0.160000 0.000000
0.032000 0.160000 0.000000
0.030000 0.160000 0.000000
0.028000 0.160000 0.000000
0.026000 0.160000 0.000000
0.024000 0.160000 0.000000
0.022000 0.160000 0.000000
0.020000 0.160000 0.000000
0.018000 0.160000 0.000000
0.016000 0.160000 0.000000
0.014000 0.160000 0.000000
0.012000 0.160000 0.000000
0.010000 0.160000 0.000000
0.008000 0.160000 0.000000
0.006000 0.160000 0.000000
0.004000 0.160000 0.000000
0.002000 0.160000 0.000000
0.000000 0.158000 0.000000
0.000000 0.156000 0.000000
0.000000 0.154000 0.000000
0.000000 0.152000 0.000000
0.000000 0.150000 0.000000
0.000000 0.148000 0.000000
0.000000 0.146000 0.000000
0.000000 0.144000 0.000000
0.000000 0.142000 0.000000
0.000000 0.140000 0.000000
0.000000 0.138000 0.000000
0.000000 0.136000 0.000000
0.000000 0.134000 0.000000
0.000000 0.132000 0.000000
0.000000 0.130000 0.000000
0.000000 0.128000 0.000000
0.000000 0.126000 0.000000
0.000000 0.124000 0.000000
0.000000 0.122000 0.000000
0.000000 0.120000 0.000000
0.000000 0.118000 0.000000
0.000000 0.116000 0.000000
0.000000 0.114000 0.000000
0.000000 0.112000 0.000000
0.000000 0.110000 0.000000
0.000000 0.108000 0.000000
0.000000 0.106000 0.000000
0.000000 0.104000 0.000000
0.000000 0.102000 0.000000
0.000000 0.100000 0.000000
0.000000 0.098000 0.000000
0.000000 0.096000 0.000000
0.000000 0.094000 0.000000
0.000000 0.092000 0.000000
0.000000 0.090000 0.000000
0.000000 0.088000 0.000000
0.000000 0.086000 0.000000
0.000000 0.084000 0.000000
0.000000 0.082000 0.000000
0.000000 0.080000 0.000000
0.000000 0.078000 0.000000
0.000000 0.076000 0.000000
0.000000 0.074000 0.000000
0.000000 0.072000 0.000000
0.000000 0.070000 0.000000
0.000000 0.068000 0.000000
0.000000 0.066000 0.000000
0.000000 0.064000 0.000000
0.000000 0.062000 0.000000
0.000000 0.060000 0.000000
0.000000 0.058000 0.000000
0.000000 0.056000 0.000000
0.000000 0.054000 0.000000
0.000000 0.052000 0.000000
0.000000 0.050000 0.000000
0.000000 0.048000 0.000000
0.000000 0.046000 0.000000
0.000000 0.044000 0.000000
0.000000 0.042000 0.000000
0.000000 0.040000 0.000000
0.000000 0.038000 0.000000
0.000000 0.036000 0.000000
0.000000 0.034000 0.000000
0.000000 0.032000 0.000000
0.000000 0.030000 0.000000
0.000000 0.028000 0.000000
0.000000 0.026000 0.000000
0.000000 0.024000 0.000000
0.000000 0.022000 0.000000
0.000000 0.020000 0.000000
0.000000 0.018000 0.000000
0.000000 0.016000 0.000000
0.000000 0.014000 0.000000
0.000000 0.012000 0.000000
0.000000 0.010000 0.000000
0.000000 0.008000 0.000000
0.000000 0.006000 0.000000
0.000000 0.004000 0.000000
0.000000 0.002000 0.000000
0.035411 0.076518 0.000000
0.035821 0.076786 0.000000
0.036232 0.077054 0.000000
0.036643 0.077321 0.000000
0.037054 0.077589 0.000000
0.037464 0.077857 0.000000
0.037875 0.078125 0.000000
0.038286 0.078393 0.000000
0.038696 0.078661 0.000000
0.039107 0.078929 0.000000
0.039518 0.079196 0.000000
0.039929 0.079464 0.000000
0.040339 0.079732 0.000000
0.040750 0.080000 0.000000
0.041161 0.080268 0.000000
0.041571 0.080536 0.000000
0.041982 0.080804 0.000000
0.042393 0.081071 0.000000
0.042804 0.081339 0.000000
0.043214 0.081607 0.000000
0.043625 0.081875 0.000000
0.044036 0.082143 0.000000
0.044446 0.082411 0.000000
0.044857 0.082679 0.000000
0.045268 0.082946 0.000000
0.045679 0.083214 0.000000
0.046089 0.083482 0.000000
0.040000 0.002000 0.000000
0.040001 0.158005 0.000000
0.002000 0.116000 0.000000
0.078000 0.048000 0.000000
0.002000 0.106000 0.000000
0.078000 0.058000 0.000000
0.001986 0.042173 0.000000
0.078015 0.117826 0.000000
0.001985 0.094174 0.000000
0.001985 0.084174 0.000000
0.001914 0.056074 0.000000
0.002000 0.072000 0.000000
0.078015 0.065826 0.000000
0.078016 0.075826 0.000000
0.078000 0.088000 0.000000
0.078000 0.104000 0.000000
0.078003 0.029997 0.000000
0.001998 0.130002 0.000000
0.002000 0.032000 0.000000
0.078013 0.128003 0.000000
0.056000 0.158000 0.000000
0.026000 0.002000 0.000000
0.060000 0.002000 0.000000
0.020000 0.158000 0.000000
0.002000 0.020000 0.000000
0.078000 0.142000 0.000000
0.002000 0.146000 0.000000
0.078000 0.020000 0.000000
0.016000 0.002000 0.000000
0.068000 0.002000 0.000000
0.066000 0.158000 0.000000
0.002000 0.014000 0.000000
0.008000 0.158000 0.000000
0.010000 0.002000 0.000000
0.078000 0.148000 0.000000
0.078000 0.008000 0.000000
0.078005 0.037995 0.000000
0.051991 0.001990 0.000000
0.028000 0.158000 0.000000
0.002000 0.008000 0.000000
0.078000 0.094000 0.000000
0.078000 0.110000 0.000000
0.001983 0.066159 0.000000
0.002000 0.050000 0.000000
0.046000 0.158000 0.000000
0.078000 0.134000 0.000000
0.002000 0.140000 0.000000
0.006000 0.002000 0.000000
0.002000 0.154000 0.000000
0.074000 0.002000 0.000000
0.078000 0.152000 0.000000
0.074000 0.158000 0.000000
0.078000 0.080000 0.000000
0.078000 0.070000 0.000000
0.078000 0.122000 0.000000
0.002000 0.090000 0.000000
0.002000 0.080000 0.000000
0.002000 0.038000 0.000000
0.002000 0.102000 0.000000
0.002000 0.112000 0.000000
0.036000 0.002000 0.000000
0.078000 0.042000 0.000000
0.032000 0.002000 0.000000
0.047987 0.001989 0.000000
0.032008 0.158010 0.000000
0.002000 0.028000 0.000000
0.002000 0.126000 0.000000
0.060000 0.158000 0.000000
0.022000 0.002000 0.000000
0.002000 0.136000 0.000000
0.078000 0.024000 0.000000
0.012000 0.158000 0.000000
0.078000 0.158000 0.000000
0.001947 0.003947 0.000000
0.002000 0.158000 0.000000
0.078000 0.012000 0.000000
0.078000 0.096000 0.000000
0.078000 0.098000 0.000000
0.078000 0.082000 0.000000
0.078111 0.099889 0.000000
0.078035 0.083965 0.000000
0.078000 0.090000 0.000000
0.078000 0.106000 0.000000
0.078000 0.072000 0.000000
0.078000 0.112000 0.000000
0.078043 0.061976 0.000000
0.078000 0.114000 0.000000
0.002000 0.064000 0.000000
0.002000 0.062000 0.000000
0.002000 0.088000 0.000000
0.002000 0.078000 0.000000
0.002000 0.060000 0.000000
0.001966 0.076034 0.000000
0.002000 0.070000 0.000000
0.002000 0.054000 0.000000
0.001957 0.098024 0.000000
0.002000 0.048000 0.000000
0.002000 0.046000 0.000000
[...]
POINT_DATA 5510
SCALARS UX float 1
LOOKUP_TABLE default
-0.007276
0.001906
0.000000
-0.008992
-0.004307
-0.002635
-0.007045
-0.006814
-0.006583
-0.006353
-0.006122
-0.005892
-0.005661
-0.005431
-0.005201
-0.004972
-0.004742
-0.004513
-0.004284
-0.004056
-0.003827
-0.003599
-0.003370
-0.003142
-0.002914
-0.002686
-0.002457
-0.002229
-0.002001
-0.001773
-0.001544
-0.001315
-0.001087
-0.000858
-0.000628
-0.000399
-0.000169
0.000061
0.000291
0.000521
0.000752
0.000982
0.001213
0.001444
0.001675
0.001888
0.001870
0.001851
0.001833
0.001815
0.001797
0.001778
0.001760
0.001743
0.001725
0.001707
0.001690
0.001673
0.001656
0.001640
0.001624
0.001609
0.001594
0.001580
0.001566
0.001554
0.001541
0.001530
0.001520
0.001510
0.001501
0.001492
0.001484
0.001476
0.001468
0.001460
0.001451
0.001441
0.001429
0.001415
0.001399
0.001380
0.001357
0.001332
0.001302
0.001269
0.001233
0.001193
0.001151
0.001107
0.001062
0.001016
0.000970
0.000925
0.000882
0.000841
0.000802
0.000764
0.000730
0.000698
0.000668
0.000639
0.000613
0.000588
0.000565
0.000543
0.000521
0.000501
0.000481
0.000461
0.000442
0.000424
0.000406
0.000388
0.000370
0.000352
0.000335
0.000318
0.000301
0.000284
0.000268
0.000252
0.000232
0.000177
-0.000001
-0.000244
-0.000483
-0.000718
-0.000952
-0.001184
-0.001415
-0.001646
-0.001877
-0.002107
-0.002337
-0.002567
-0.002796
-0.003025
-0.003254
-0.003483
-0.003711
-0.003940
-0.004168
-0.004397
-0.004625
-0.004854
-0.005082
-0.005311
-0.005539
-0.005768
-0.005997
-0.006226
-0.006456
-0.006685
-0.006915
-0.007145
-0.007376
-0.007606
-0.007837
-0.008068
-0.008299
-0.008530
-0.008761
-0.008974
-0.008955
-0.008937
-0.008919
-0.008901
-0.008883
-0.008865
-0.008847
-0.008830
-0.008812
-0.008795
-0.008778
-0.008761
-0.008745
-0.008729
-0.008713
-0.008698
-0.008684
-0.008670
-0.008657
-0.008644
-0.008632
-0.008620
-0.008610
-0.008599
-0.008590
-0.008581
-0.008572
-0.008563
-0.008554
-0.008544
-0.008534
-0.008522
-0.008509
-0.008494
-0.008478
-0.008457
-0.008434
-0.008409
-0.008379
-0.008348
-0.008312
-0.008274
-0.008233
-0.008192
-0.008148
-0.008104
-0.008060
-0.008017
-0.007975
-0.007935
-0.007896
-0.007859
-0.007825
-0.007793
-0.007761
-0.007733
-0.007707
-0.007681
-0.007657
-0.007634
-0.007612
-0.007591
-0.007571
-0.007551
-0.007532
-0.007513
-0.007494
-0.007476
-0.007457
-0.007439
-0.007421
-0.007403
-0.007385
-0.007367
-0.007349
-0.007331
-0.007313
-0.007295
-0.004240
-0.004175
-0.004085
-0.003997
-0.003928
-0.003878
-0.003822
-0.003762
-0.003722
-0.003663
-0.003612
-0.003571
-0.003516
-0.003461
-0.003395
-0.003331
-0.003270
-0.003206
-0.003149
-0.003110
-0.003065
-0.003021
-0.002969
-0.002919
-0.002859
-0.002790
-0.002723
-0.002704
-0.004379
-0.008399
0.001286
-0.008349
0.001245
-0.007450
0.000357
-0.008297
-0.008212
-0.007671
-0.008004
0.001215
0.001136
0.000922
0.000565
0.001408
-0.008497
-0.007338
0.000249
-0.002549
-0.004303
-0.000417
-0.006667
-0.007226
0.000120
-0.008633
0.001493
-0.005450
0.000503
-0.001398
-0.007172
-0.008049
-0.006140
0.000069
0.001602
0.001347
-0.001334
-0.005750
-0.007118
0.000783
0.000462
-0.007877
-0.007556
-0.003693
0.000191
-0.008580
-0.006602
-0.008706
0.001195
0.000034
-0.000471
0.001077
0.001188
0.000308
-0.008268
-0.008154
-0.007400
-0.008332
-0.008377
-0.003160
0.001320
-0.003617
-0.001792
-0.005292
-0.007299
-0.008465
-0.002089
-0.004761
-0.008546
0.001458
-0.007588
-0.000033
-0.007088
-0.008742
0.001565
0.000736
0.000691
0.001043
0.000662
0.001010
0.000877
0.000528
0.001172
0.000432
0.001235
0.000404
-0.007827
-0.007783
-0.008251
-0.008121
-0.007740
-0.008089
-0.007961
-0.007623
-0.008320
-0.007526
-0.007498
0.001260
0.001311
0.001277
-0.008367
-0.008424
0.000287
-0.007379
-0.002247
-0.004835
-0.004150
0.001377
-0.003465
-0.003236
-0.008451
-0.003845
-0.000876
-0.006208
-0.007280
0.000230
0.000173
-0.007262
0.000156
-0.008529
-0.003007
0.001441
-0.008616
-0.001859
-0.004990
0.000042
-0.007127
0.000103
0.001529
-0.008669
-0.007208
-0.007154
-0.001166
-0.005680
-0.000935
0.000018
-0.008511
-0.006852
-0.007109
0.001638
0.000964
0.001657
-0.008152
0.001061
-0.008050
-0.007941
-0.007783
-0.007518
-0.007330
0.000865
0.000701
0.000450
0.000971
0.000209
-0.004357
-0.008221
0.000016
-0.007173
-0.003636
-0.002991
-0.007067
-0.000076
-0.004779
-0.008314
0.001226
-0.002071
-0.006976
-0.005468
-0.008402
-0.001150
0.000339
0.001095
-0.006941
-0.000198
0.001176
0.000799
0.000463
0.000559
-0.007877
-0.007556
-0.007647
-0.007275
0.000841
0.000976
0.000616
0.001116
0.001159
0.000503
0.001209
0.000384
-0.007927
-0.008237
-0.008056
-0.008290
-0.007705
-0.008192
-0.007595
-0.007477
0.001227
-0.008310
0.001242
-0.008329
0.001257
0.000339
-0.008345
-0.007432
0.001272
-0.008362
-0.008393
0.001300
-0.008414
0.001335
-0.008439
-0.002478
-0.004605
-0.002933
-0.003920
-0.002021
-0.005062
0.000270
-0.007360
0.001362
-0.003389
-0.001564
-0.005520
-0.003445
-0.001106
-0.005978
-0.008481
-0.007319
0.000211
0.001392
-0.007049
-0.004074
-0.000040
-0.002778
-0.000647
-0.006437
-0.007244
0.000138
-0.008512
0.001424
-0.008563
-0.002319
-0.004532
-0.008598
0.001475
-0.001628
-0.005220
-0.006897
-0.000188
-0.007357
0.000272
0.000086
-0.007190
-0.007818
0.001511
-0.008651
0.000052
0.001547
-0.007136
-0.005910
-0.008688
-0.000703
0.001583
-0.000003
-0.006371
-0.007100
-0.008280
-0.006851
0.000733
-0.000243
-0.008493
-0.008724
0.001620
0.001407
0.001426
-0.008111
0.001025
-0.007309
-0.002040
0.000217
-0.006837
-0.005505
-0.001122
-0.006420
-0.000206
0.001316
-0.007339
-0.000146
0.001134
-0.002945
-0.007800
-0.008456
0.000630
0.000162
-0.007715
0.001026
0.000992
-0.008109
-0.008075
0.000943
0.000899
-0.008019
-0.007976
0.001046
-0.008134
0.000120
-0.007130
-0.005043
-0.007088
0.001160
-0.000021
-0.008251
-0.004092
-0.004550
-0.005238
0.000254
-0.008366
-0.008331
-0.005928
-0.006905
-0.008420
0.001279
0.001244
-0.000690
-0.000217
0.001352
0.001158
0.000658
0.000755
-0.007742
0.000413
-0.007834
0.000193
-0.007478
-0.007378
0.001091
0.000961
-0.008038
-0.007260
-0.007202
-0.008170
-0.008188
0.000272
0.000307
0.001048
0.001056
-0.008138
-0.008146
-0.004593
0.000519
0.000831
-0.008211
-0.007606
-0.007908
0.000242
0.001106
0.001097
-0.007307
-0.007152
0.000039
-0.001583
-0.003403
-0.003670
-0.002489
-0.003908
-0.000002
-0.008237
-0.005961
-0.002763
-0.003865
0.001192
0.001209
-0.008281
-0.008297
-0.000093
-0.000665
-0.007031
-0.006994
-0.003218
-0.000057
-0.005008
-0.004133
-0.002301
-0.006879
-0.001611
-0.001842
-0.001381
-0.008384
-0.005698
0.000715
-0.006959
-0.006923
-0.006389
0.000945
-0.000920
-0.006620
0.001389
-0.000181
-0.000237
-0.008474
-0.006869
-0.008262
-0.006978
0.000874
-0.007940
-0.000032
-0.007767
-0.007871
-0.007535
-0.004095
0.000793
0.000700
0.000430
-0.007986
-0.000188
-0.002973
-0.003429
0.000962
-0.000288
-0.008050
-0.004569
-0.001825
-0.006763
-0.005256
-0.008135
-0.006692
-0.007163
-0.007268
0.000063
-0.000905
0.000557
-0.007646
-0.007038
0.000880
0.000306
-0.007402
-0.006859
-0.006926
-0.008008
-0.003884
-0.005716
-0.000129
-0.008170
-0.000412
0.000181
0.000411
0.000033
-0.007503
0.000921
0.001006
-0.007997
-0.008088
0.001019
-0.008104
-0.008175
0.000623
0.000242
-0.007350
0.001032
-0.008120
-0.007247
-0.007698
0.000131
-0.008197
-0.007436
-0.007369
-0.003877
-0.004562
-0.005268
0.000759
-0.007836
0.001119
-0.008129
-0.007092
0.001040
-0.001357
-0.003178
-0.002721
-0.001816
0.000087
0.000063
0.001148
-0.007109
0.000838
-0.002531
0.001176
-0.005733
-0.008265
-0.000307
-0.000231
-0.003426
-0.004321
-0.007013
-0.007929
-0.007964
-0.000893
-0.006190
0.000979
0.001012
-0.006819
-0.008067
-0.008100
-0.002283
-0.001594
-0.000251
-0.000435
-0.006649
-0.008349
-0.005026
-0.004818
0.001261
-0.006727
-0.000111
-0.007108
0.000024
-0.001364
0.000484
0.001297
0.000927
-0.006159
-0.000163
-0.008438
0.001334
-0.006638
-0.007569
0.001139
0.001370
-0.006887
-0.000447
-0.000462
-0.008243
-0.008031
-0.002265
0.000089
-0.007726
-0.007292
-0.007108
0.000212
-0.003876
-0.007822
-0.000457
-0.002058
0.000734
-0.006630
-0.005487
-0.001140
0.000005
-0.001807
-0.006402
-0.005045
0.001066
0.000821
-0.007090
0.000909
-0.007551
0.000053
-0.007908
0.000906
-0.000518
-0.007241
0.000710
-0.007814
-0.007890
-0.007877
0.000805
0.000796
-0.002964
-0.008036
-0.002514
-0.006783
-0.004341
0.001031
-0.000342
-0.006674
-0.008012
-0.007181
0.000752
-0.007829
-0.007003
-0.000126
-0.007603
0.000494
-0.000004
-0.007917
0.000824
0.000848
-0.007162
0.000871
-0.007929
-0.007979
-0.007970
-0.007975
0.000657
-0.007726
0.000556
-0.000167
-0.000103
-0.007645
-0.003204
-0.005024
-0.004784
0.000340
-0.007428
0.000767
-0.007845
0.000129
-0.006951
0.000948
0.000884
-0.007120
-0.001602
-0.000054
-0.008022
-0.007995
-0.002514
-0.002746
-0.007935
-0.006801
-0.004111
-0.000211
-0.003658
-0.005717
-0.006880
-0.006903
0.000843
-0.007065
0.000995
-0.000911
-0.003199
0.000919
-0.003651
-0.008083
-0.008118
-0.000269
-0.000324
-0.006591
-0.006631
-0.000453
-0.006745
-0.004797
0.000466
-0.002054
-0.005486
-0.001578
-0.006710
-0.005944
-0.000360
-0.000395
0.000696
0.001103
0.001121
-0.006177
-0.005946
-0.006656
-0.006407
-0.008153
-0.001134
-0.008189
-0.008225
-0.004338
-0.000676
-0.000430
0.000651
0.000612
-0.007629
-0.007524
-0.006885
-0.006950
0.000553
0.000457
-0.002997
-0.005473
-0.001156
-0.006384
-0.002729
-0.001789
-0.007887
-0.006515
-0.007759
-0.000571
-0.006757
-0.003902
0.000633
0.000614
-0.007692
-0.006479
-0.005504
-0.005964
-0.007939
-0.007994
-0.004543
0.000152
-0.000009
0.000352
0.000244
-0.007441
-0.007320
-0.007239
0.000669
-0.000109
-0.006968
0.000722
-0.000497
0.000504
-0.004359
0.000766
-0.004816
-0.006443
-0.000625
-0.000889
-0.004098
-0.007763
-0.007783
-0.007809
0.000116
0.000016
-0.007755
-0.000190
-0.000255
-0.007197
0.000803
-0.007886
-0.007716
-0.007700
-0.007897
0.000811
0.000835
-0.000082
-0.000135
0.000552
-0.007626
-0.007066
-0.003655
-0.003407
-0.006728
-0.004784
-0.000437
-0.000388
-0.006677
-0.005257
-0.007716
-0.006829
0.000895
-0.001370
-0.002494
-0.001830
-0.000477
-0.002290
-0.006573
0.000622
0.000750
-0.003451
-0.007738
-0.007854
-0.007838
-0.006654
0.001048
-0.006172
-0.000683
-0.006610
-0.000536
-0.005275
0.000801
-0.002265
-0.002036
-0.003181
0.000932
-0.005699
-0.006860
0.000235
-0.007904
-0.000225
-0.006552
-0.000377
0.000678
0.000872
0.001084
-0.001348
-0.007321
-0.000659
0.000890
-0.006195
-0.006425
-0.007781
-0.008207
-0.002739
-0.007572
-0.007206
0.000718
-0.007794
-0.006540
-0.007512
0.000417
-0.007140
-0.007453
0.000010
0.000367
-0.003859
-0.000659
-0.006404
-0.007583
-0.005456
0.000494
-0.000744
-0.004835
-0.000472
-0.007657
-0.004545
-0.006345
-0.007072
-0.000062
-0.000269
-0.007681
-0.007695
0.000598
0.000606
0.000597
-0.003388
-0.002703
-0.000352
-0.002533
0.000670
-0.002076
-0.007610
0.000522
-0.006157
-0.005293
-0.000607
-0.000013
0.000447
-0.007976
-0.006984
-0.007600
0.000518
-0.000262
0.000279
0.000390
-0.007360
-0.006811
-0.007459
-0.007659
0.000577
-0.000208
0.000651
0.000617
-0.000066
-0.007042
-0.000324
-0.006909
-0.006901
-0.007097
-0.006704
0.000572
-0.000411
-0.007649
-0.007512
-0.007691
-0.002774
0.000694
-0.007796
0.000707
-0.001385
-0.000180
-0.006855
-0.000703
0.000660
0.000468
-0.001844
-0.006453
-0.007722
-0.007770
-0.005926
-0.004132
-0.000553
0.000818
0.000854
-0.002246
-0.004589
-0.006382
-0.007870
-0.005245
-0.005011
-0.003226
-0.006497
0.000626
-0.002018
-0.000590
0.000783
-0.002955
-0.007922
-0.001561
-0.006533
-0.005734
-0.007302
-0.007763
-0.005982
-0.000929
-0.007958
-0.006612
0.000641
0.000660
-0.006461
-0.000872
-0.000642
-0.006213
-0.001118
-0.003676
-0.004321
-0.007753
-0.007537
-0.007639
-0.006987
-0.007008
0.000516
0.000133
-0.007685
0.000599
-0.000020
0.000410
0.000428
-0.007334
0.000392
-0.006718
-0.006951
-0.006707
-0.002572
-0.006180
-0.003695
-0.001400
-0.007545
-0.002228
0.000572
-0.006366
-0.006285
-0.007477
-0.007504
0.000424
-0.000800
0.000624
-0.007054
-0.007692
-0.007382
0.000330
-0.000431
0.000452
0.000270
0.000168
0.000119
0.000406
0.000413
-0.006484
-0.004324
-0.007346
-0.007544
-0.002928
-0.007640
-0.004151
-0.004608
-0.001772
-0.005752
-0.001102
-0.003019
-0.007430
0.000358
-0.007238
-0.006794
-0.000046
-0.000226
-0.000321
-0.006609
-0.006654
-0.007501
-0.000412
-0.007506
-0.006833
-0.006884
-0.000329
-0.006507
-0.007047
-0.007018
0.000376
-0.003606
-0.000630
-0.007458
-0.000467
-0.004081
-0.000567
-0.005003
-0.004768
-0.007560
0.000469
-0.000140
-0.003164
-0.000682
-0.001617
-0.006365
0.000437
-0.007507
-0.002308
-0.007595
0.000408
-0.007625
0.000506
-0.005912
-0.005682
-0.007528
-0.006441
-0.002473
-0.000723
0.000680
-0.000701
-0.007444
0.000370
-0.006267
-0.006001
-0.007571
-0.005064
-0.000819
-0.000855
-0.006841
-0.007674
-0.005522
0.000216
0.000836
-0.000763
-0.006634
0.000538
-0.001332
-0.000243
0.000412
-0.007745
-0.006249
-0.006324
0.000430
-0.006231
-0.007532
-0.003469
-0.007727
-0.001174
0.000480
-0.005231
-0.006803
-0.000055
-0.000186
-0.007479
0.000395
-0.000290
0.000266
-0.007174
-0.006363
0.000205
-0.007268
0.000184
-0.007247
-0.000110
0.000191
-0.000332
-0.004283
-0.000849
-0.007341
-0.003380
-0.005215
-0.003487
0.000256
-0.007383
-0.001418
-0.004627
-0.000948
-0.006119
-0.007429
0.000218
-0.007296
-0.006057
-0.001030
0.000295
-0.005311
-0.000490
0.000394
0.000457
-0.005669
-0.006824
0.000606
-0.005771
-0.006019
-0.007497
-0.000244
-0.006998
0.000401
-0.007483
0.000101
-0.006461
0.000076
-0.007239
-0.007542
-0.007300
0.000407
0.000432
-0.007498
-0.006691
-0.000268
-0.007316
-0.006782
0.000284
0.000400
-0.000603
-0.000475
-0.000539
-0.002102
-0.003628
-0.007552
-0.004527
-0.002350
-0.006870
-0.006898
0.000446
-0.000904
-0.004764
-0.007352
-0.007536
-0.003134
-0.001862
-0.007314
-0.000177
-0.001631
0.000190
-0.007261
0.000214
-0.007423
-0.006219
-0.006289
-0.007357
-0.000377
-0.000781
-0.007398
-0.002680
0.000268
-0.007513
-0.003922
0.000555
0.000410
-0.004381
-0.006594
0.000589
-0.002454
0.000198
-0.004854
-0.006305
-0.007445
-0.001999
-0.001084
-0.007284
-0.000989
-0.000260
-0.006159
-0.000837
0.000329
-0.006678
-0.006139
-0.001315
-0.001544
-0.007515
-0.007709
-0.000948
-0.003244
-0.006325
-0.002795
0.000197
-0.007273
-0.006849
-0.000493
-0.003841
0.000213
-0.006801
-0.006749
0.000396
-0.007479
0.000097
-0.006593
-0.000483
-0.007200
-0.000363
-0.007286
-0.006147
-0.007130
-0.007115
-0.007162
0.000038
-0.006820
-0.006527
-0.000304
-0.004291
-0.005990
-0.003341
0.000030
-0.007159
-0.004647
-0.002435
-0.000694
-0.007201
-0.006348
-0.006808
-0.002593
-0.006704
-0.000507
-0.006618
-0.007275
0.000201
-0.007284
0.000248
-0.006521
0.000225
0.000135
-0.003943
-0.001754
-0.006078
-0.004401
-0.006643
0.000326
-0.005790
-0.001295
-0.007479
-0.007268
-0.006430
0.000244
-0.007093
-0.000690
-0.007349
-0.000572
0.000215
0.000206
-0.007288
-0.007117
0.000239
0.000206
-0.006253
-0.000461
0.000098
-0.003603
-0.007200
0.000222
-0.000815
-0.007328
-0.007338
-0.007333
-0.007226
-0.002313
0.000214
-0.004531
-0.000878
0.000153
-0.006140
-0.001646
-0.000366
-0.001008
0.000192
-0.007263
-0.006764
-0.002103
-0.007349
-0.007303
0.000197
-0.006098
-0.005439
-0.006615
-0.000925
0.000195
-0.003715
0.000311
-0.007320
0.000377
-0.001048
-0.002907
-0.000720
-0.007370
-0.002209
-0.005542
-0.007462
-0.006038
0.000280
-0.001066
-0.000969
0.000182
-0.007412
-0.005958
-0.003037
-0.003263
-0.005083
-0.000411
0.000343
-0.005894
-0.000032
-0.001193
-0.000223
-0.007333
-0.000498
-0.004063
-0.004990
0.000051
-0.000031
-0.006277
-0.000284
-0.000751
-0.007042
-0.000085
-0.006376
-0.000581
0.000276
-0.007578
-0.006806
-0.007297
-0.000029
-0.006927
0.000015
-0.007072
-0.006645
-0.000074
0.000018
-0.000545
-0.004300
-0.001031
-0.007124
-0.002393
-0.003283
-0.005771
-0.001436
-0.005428
0.000069
-0.001148
-0.002415
-0.005895
-0.001213
-0.007097
-0.007128
-0.003532
-0.000646
-0.000432
-0.006094
0.000007
0.000020
-0.004074
-0.007122
-0.000624
-0.000694
-0.004421
-0.000099
-0.005851
-0.005101
0.000099
-0.003737
-0.000737
-0.007185
-0.005561
-0.000046
-0.000259
-0.006269
0.000005
-0.007085
-0.006688
0.000201
-0.006570
-0.006030
-0.000774
0.000015
0.000021
-0.007086
-0.007096
-0.007157
-0.006530
-0.007334
-0.007053
-0.003839
-0.001096
-0.000033
0.000016
-0.007101
-0.007112
-0.007138
-0.001234
-0.001276
-0.000591
-0.006564
-0.001879
-0.007147
-0.000353
-0.006630
-0.000651
-0.000966
-0.007172
-0.004174
-0.007308
-0.004974
-0.007110
0.000360
-0.007250
-0.006679
-0.006575
-0.001524
-0.000279
-0.002659
0.000197
-0.003113
0.000149
-0.007036
-0.004874
-0.006120
0.000043
0.000165
-0.005809
-0.001982
-0.001170
-0.005937
-0.007217
-0.005651
-0.006113
-0.006476
0.000109
-0.002814
0.000234
-0.004752
-0.000448
-0.006850
-0.007021
-0.000698
-0.000061
-0.000865
-0.006174
-0.000754
-0.007378
-0.007090
-0.007176
0.000209
-0.006089
-0.006902
-0.006360
-0.000429
-0.000602
-0.000150
-0.000781
-0.000203
-0.006684
-0.005411
-0.006918
-0.006948
-0.001367
-0.004439
-0.006415
-0.001437
-0.000753
0.000009
-0.006527
-0.006557
-0.001963
-0.006994
-0.003736
-0.006473
-0.000973
-0.000190
-0.006975
-0.002640
-0.001503
-0.007022
-0.005581
0.000132
-0.004893
0.000011
-0.004734
-0.005939
-0.006317
-0.004124
0.000035
0.000021
-0.000964
-0.002198
-0.005807
-0.000054
-0.007130
-0.006919
-0.000570
-0.007119
-0.006933
-0.000008
-0.006929
-0.001063
-0.000391
0.000018
-0.007090
-0.005917
-0.006445
-0.007119
-0.000115
-0.000681
-0.000217
-0.001897
-0.000477
-0.000516
-0.000014
-0.007102
-0.006601
-0.005196
-0.001121
-0.005873
-0.000293
0.000084
-0.003511
-0.006940
-0.007129
-0.007071
-0.000001
-0.000137
-0.003967
0.000116
-0.005331
-0.002884
-0.005829
-0.007030
-0.007234
-0.001255
-0.000010
-0.004196
-0.001192
-0.000452
-0.007116
-0.002189
-0.000079
-0.000195
0.000006
-0.006104
-0.005876
-0.003057
-0.005739
-0.006254
-0.006224
-0.000063
0.000055
-0.001211
-0.006925
-0.001661
-0.006079
-0.006858
-0.004517
-0.002610
-0.003317
-0.000752
-0.007172
-0.007129
-0.000891
-0.000892
-0.000839
0.000089
-0.006937
0.000015
-0.007097
-0.001065
-0.006732
-0.000163
-0.006482
-0.006750
-0.000238
-0.000595
-0.004316
-0.003076
-0.000427
-0.005591
-0.002135
-0.001455
-0.006701
-0.000157
-0.002619
-0.000221
-0.006927
-0.006909
-0.006925
-0.005667
-0.000894
-0.000568
-0.002171
-0.000278
-0.000690
-0.000759
-0.001412
0.000017
-0.005187
-0.005354
-0.000306
-0.000127
-0.000094
-0.003532
-0.001482
-0.007006
-0.005861
-0.001065
-0.001243
-0.000927
-0.000154
-0.006929
-0.006565
-0.000194
-0.000167
-0.006499
-0.007006
0.000007
-0.000211
-0.000212
-0.006373
-0.000524
-0.005876
-0.000389
-0.001159
-0.002408
-0.006745
-0.000631
-0.001275
-0.001339
-0.001389
-0.006402
0.000020
-0.006909
-0.000148
-0.000147
-0.006927
-0.006913
-0.006923
-0.006917
-0.000166
-0.004955
-0.006918
-0.001733
-0.006446
-0.005120
-0.006784
-0.005622
-0.006935
-0.007106
-0.001458
-0.006989
-0.005601
-0.000985
-0.003760
-0.004215
-0.006351
-0.000825
-0.003090
-0.002862
-0.005635
-0.000524
-0.006926
-0.005906
-0.004667
-0.002834
-0.006960
-0.005718
-0.000182
-0.005554
-0.001904
-0.006330
-0.000015
-0.006979
-0.005969
-0.006941
-0.004504
-0.003523
-0.006871
-0.006782
-0.006725
-0.000847
-0.006045
-0.006123
-0.000089
-0.000116
-0.006965
-0.003928
-0.000274
-0.006570
-0.006757
-0.006223
-0.000336
-0.000799
-0.001375
-0.004253
-0.005376
-0.002388
-0.003556
-0.004235
-0.005398
-0.001555
-0.006718
-0.000958
-0.006724
-0.005734
-0.000185
-0.000219
-0.006368
-0.006283
-0.000557
-0.006800
-0.000723
-0.000302
-0.006605
-0.001634
-0.001682
-0.006313
-0.006749
-0.004913
-0.005397
-0.000321
-0.000995
-0.000433
-0.000422
-0.006780
-0.005894
-0.002853
-0.006524
-0.006821
-0.006783
-0.001021
-0.000293
-0.000326
-0.006291
-0.006173
-0.006438
-0.000217
-0.006845
-0.000275
-0.000728
-0.006275
-0.006916
-0.005666
-0.000275
-0.006333
-0.000856
-0.001948
-0.000146
-0.006925
-0.001444
-0.006761
-0.005696
-0.006925
-0.006785
-0.000178
-0.006690
-0.004952
-0.004721
-0.000179
-0.001306
-0.006905
-0.006915
-0.000377
-0.006703
-0.005648
-0.006907
-0.000110
-0.000636
-0.001229
-0.000171
-0.003305
-0.006904
-0.000216
-0.005870
-0.003066
-0.003299
-0.000182
-0.005621
-0.003988
-0.002395
-0.006738
-0.004460
-0.002637
-0.005146
-0.000198