# vtk DataFile Version 2.0
Test
ASCII
DATASET POLYDATA
POINTS 5510 float
0.000000 0.000000 0.000000
0.080000 0.000000 0.000000
0.080000 0.160000 0.000000
0.000000 0.160000 0.000000
0.035000 0.076250 0.000000
0.046500 0.083750 0.000000
0.002000 0.000000 0.000000
0.004000 0.000000 0.000000
0.006000 0.000000 0.000000
0.008000 0.000000 0.000000
0.010000 0.000000 0.000000
0.012000 0.000000 0.000000
0.014000 0.000000 0.000000
0.016000 0.000000 0.000000
0.018000 0.000000 0.000000
0.020000 0.000000 0.000000
0.022000 0.000000 0.000000
0.024000 0.000000 0.000000
0.026000 0.000000 0.000000
0.028000 0.000000 0.000000
0.030000 0.000000 0.000000
0.032000 0.000000 0.000000
0.034000 0.000000 0.000000
0.036000 0.000000 0.000000
0.038000 0.000000 0.000000
0.040000 0.000000 0.000000
0.042000 0.000000 0.000000
0.044000 0.000000 0.000000
0.046000 0.000000 0.000000
0.048000 0.000000 0.000000
0.050000 0.000000 0.000000
0.052000 0.000000 0.000000
0.054000 0.000000 0.000000
0.056000 0.000000 0.000000
0.058000 0.000000 0.000000
0.060000 0.000000 0.000000
0.062000 0.000000 0.000000
0.064000 0.000000 0.000000
0.066000 0.000000 0.000000
0.068000 0.000000 0.000000
0.070000 0.000000 0.000000
0.072000 0.000000 0.000000
0.074000 0.000000 0.000000
0.076000 0.000000 0.000000
0.078000 0.000000 0.000000
0.080000 0.002000 0.000000
0.080000 0.004000 0.000000
0.080000 0.006000 0.000000
0.080000 0.008000 0.000000
0.080000 0.010000 0.000000
0.080000 0.012000 0.000000
0.080000 0.014000 0.000000
0.080000 0.016000 0.000000
0.080000 0.018000 0.000000
0.080000 0.020000 0.000000
0.080000 0.022000 0.000000
0.080000 0.024000 0.000000
0.080000 0.026000 0.000000
0.080000 0.028000 0.000000
0.080000 0.030000 0.000000
0.080000 0.032000 0.000000
0.080000 0.034000 0.000000
0.080000 0.036000 0.000000
0.080000 0.038000 0.000000
0.080000 0.040000 0.000000
0.080000 0.042000 0.000000
0.080000 0.044000 0.000000
0.080000 0.046000 0.000000
0.080000 0.048000 0.000000
0.080000 0.050000 0.000000
0.080000 0.052000 0.000000
0.080000 0.054000 0.000000
0.080000 0.056000 0.000000
0.080000 0.058000 0.000000
0.080000 0.060000 0.000000
0.080000 0.062000 0.000000
0.080000 0.064000 0.000000
0.080000 0.066000 0.000000
0.080000 0.068000 0.000000
0.080000 0.070000 0.000000
0.080000 0.072000 0.000000
0.080000 0.074000 0.000000
0.080000 0.076000 0.000000
0.080000 0.078000 0.000000
0.080000 0.080000 0.000000
0.080000 0.082000 0.000000
0.080000 0.084000 0.000000
0.080000 0.086000 0.000000
0.080000 0.088000 0.000000
0.080000 0.090000 0.000000
0.080000 0.092000 0.000000
0.080000 0.094000 0.000000
0.080000 0.096000 0.000000
0.080000 0.098000 0.000000
0.080000 0.100000 0.000000
0.080000 0.102000 0.000000
0.080000 0.104000 0.000000
0.080000 0.106000 0.000000
0.080000 0.108000 0.000000
0.080000 0.110000 0.000000
0.080000 0.112000 0.000000
0.080000 0.114000 0.000000
0.080000 0.116000 0.000000
0.080000 0.118000 0.000000
0.080000 0.120000 0.000000
0.080000 0.122000 0.000000
0.080000 0.124000 0.000000
0.080000 0.126000 0.000000
0.080000 0.128000 0.000000
0.080000 0.130000 0.000000
0.080000 0.132000 0.000000
0.080000 0.134000 0.000000
0.080000 0.136000 0.000000
0.080000 0.138000 0.000000
0.080000 0.140000 0.000000
0.080000 0.142000 0.000000
0.080000 0.144000 0.000000
0.080000 0.146000 0.000000
0.080000 0.148000 0.000000
0.080000 0.150000 0.000000
0.080000 0.152000 0.000000
0.080000 0.154000 0.000000
0.080000 0.156000 0.000000
0.080000 0.158000 0.000000
0.078000 0.160000 0.000000
0.076000 0.160000 0.000000
0.074000 0.160000 0.000000
0.072000 0.160000 0.000000
0.070000 0.160000 0.000000
0.068000 0.160000 0.000000
0.066000 0.160000 0.000000
0.064000 0.160000 0.000000
0.062000 0.160000 0.000000
0.060000 0.160000 0.000000
0.058000 0.160000 0.000000
0.056000 0.160000 0.000000
0.054000 0.160000 0.000000
0.052000 0.160000 0.000000
0.050000 0.160000 0.000000
0.048000 0.160000 0.000000
0.046000 0.160000 0.000000
0.044000 0.160000 0.000000
0.042000 0.160000 0.000000
0.040000 0.160000 0.000000
0.038000 0.160000 0.000000
0.036000 0.160000 0.000000
0.034000 0.160000 0.000000
0.032000 0.160000 0.000000
0.030000 0.160000 0.000000
0.028000 0.160000 0.000000
0.026000 0.160000 0.000000
0.024000 0.160000 0.000000
0.022000 0.160000 0.000000
0.020000 0.160000 0.000000
0.018000 0.160000 0.000000
0.016000 0.160000 0.000000
0.014000 0.160000 0.000000
0.012000 0.160000 0.000000
0.010000 0.160000 0.000000
0.008000 0.160000 0.000000
0.006000 0.160000 0.000000
0.004000 0.160000 0.000000
0.002000 0.160000 0.000000
0.000000 0.158000 0.000000
0.000000 0.156000 0.000000
0.000000 0.154000 0.000000
0.000000 0.152000 0.000000
0.000000 0.150000 0.000000
0.000000 0.148000 0.000000
0.000000 0.146000 0.000000
0.000000 0.144000 0.000000
0.000000 0.142000 0.000000
0.000000 0.140000 0.000000
0.000000 0.138000 0.000000
0.000000 0.136000 0.000000
0.000000 0.134000 0.000000
0.000000 0.132000 0.000000
0.000000 0.130000 0.000000
0.000000 0.128000 0.000000
0.000000 0.126000 0.000000
0.000000 0.124000 0.000000
0.000000 0.122000 0.000000
0.000000 0.120000 0.000000
0.000000 0.118000 0.000000
0.000000 0.116000 0.000000
0.000000 0.114000 0.000000
0.000000 0.112000 0.000000
0.000000 0.110000 0.000000
0.000000 0.108000 0.000000
0.000000 0.106000 0.000000
0.000000 0.104000 0.000000
0.000000 0.102000 0.000000
0.000000 0.100000 0.000000
0.000000 0.098000 0.000000
0.000000 0.096000 0.000000
0.000000 0.094000 0.000000
0.000000 0.092000 0.000000
0.000000 0.090000 0.000000
0.000000 0.088000 0.000000
0.000000 0.086000 0.000000
0.000000 0.084000 0.000000
0.000000 0.082000 0.000000
0.000000 0.080000 0.000000
0.000000 0.078000 0.000000
0.000000 0.076000 0.000000
0.000000 0.074000 0.000000
0.000000 0.072000 0.000000
0.000000 0.070000 0.000000
0.000000 0.068000 0.000000
0.000000 0.066000 0.000000
0.000000 0.064000 0.000000
0.000000 0.062000 0.000000
0.000000 0.060000 0.000000
0.000000 0.058000 0.000000
0.000000 0.056000 0.000000
0.000000 0.054000 0.000000
0.000000 0.052000 0.000000
0.000000 0.050000 0.000000
0.000000 0.048000 0.000000
0.000000 0.046000 0.000000
0.000000 0.044000 0.000000
0.000000 0.042000 0.000000
0.000000 0.040000 0.000000
0.000000 0.038000 0.000000
0.000000 0.036000 0.000000
0.000000 0.034000 0.000000
0.000000 0.032000 0.000000
0.000000 0.030000 0.000000
0.000000 0.028000 0.000000
0.000000 0.026000 0.000000
0.000000 0.024000 0.000000
0.000000 0.022000 0.000000
0.000000 0.020000 0.000000
0.000000 0.018000 0.000000
0.000000 0.016000 0.000000
0.000000 0.014000 0.000000
0.000000 0.012000 0.000000
0.000000 0.010000 0.000000
0.000000 0.008000 0.000000
0.000000 0.006000 0.000000
0.000000 0.004000 0.000000
0.000000 0.002000 0.000000
0.035411 0.076518 0.000000
0.035821 0.076786 0.000000
0.036232 0.077054 0.000000
0.036643 0.077321 0.000000
0.037054 0.077589 0.000000
0.037464 0.077857 0.000000
0.037875 0.078125 0.000000
0.038286 0.078393 0.000000
0.038696 0.078661 0.000000
0.039107 0.078929 0.000000
0.039518 0.079196 0.000000
0.039929 0.079464 0.000000
0.040339 0.079732 0.000000
0.040750 0.080000 0.000000
0.041161 0.080268 0.000000
0.041571 0.080536 0.000000
0.041982 0.080804 0.000000
0.042393 0.081071 0.000000
0.042804 0.081339 0.000000
0.043214 0.081607 0.000000
0.043625 0.081875 0.000000
0.044036 0.082143 0.000000
0.044446 0.082411 0.000000
0.044857 0.082679 0.000000
0.045268 0.082946 0.000000
0.045679 0.083214 0.000000
0.046089 0.083482 0.000000
0.040000 0.002000 0.000000
0.040001 0.158005 0.000000
0.002000 0.116000 0.000000
0.078000 0.048000 0.000000
0.002000 0.106000 0.000000
0.078000 0.058000 0.000000
0.001986 0.042173 0.000000
0.078015 0.117826 0.000000
0.001985 0.094174 0.000000
0.001985 0.084174 0.000000
0.001914 0.056074 0.000000
0.002000 0.072000 0.000000
0.078015 0.065826 0.000000
0.078016 0.075826 0.000000
0.078000 0.088000 0.000000
0.078000 0.104000 0.000000
0.078003 0.029997 0.000000
0.001998 0.130002 0.000000
0.002000 0.032000 0.000000
0.078013 0.128003 0.000000
0.056000 0.158000 0.000000
0.026000 0.002000 0.000000
0.060000 0.002000 0.000000
0.020000 0.158000 0.000000
0.002000 0.020000 0.000000
0.078000 0.142000 0.000000
0.002000 0.146000 0.000000
0.078000 0.020000 0.000000
0.016000 0.002000 0.000000
0.068000 0.002000 0.000000
0.066000 0.158000 0.000000
0.002000 0.014000 0.000000
0.008000 0.158000 0.000000
0.010000 0.002000 0.000000
0.078000 0.148000 0.000000
0.078000 0.008000 0.000000
0.078005 0.037995 0.000000
0.051991 0.001990 0.000000
0.028000 0.158000 0.000000
0.002000 0.008000 0.000000
0.078000 0.094000 0.000000
0.078000 0.110000 0.000000
0.001983 0.066159 0.000000
0.002000 0.050000 0.000000
0.046000 0.158000 0.000000
0.078000 0.134000 0.000000
0.002000 0.140000 0.000000
0.006000 0.002000 0.000000
0.002000 0.154000 0.000000
0.074000 0.002000 0.000000
0.078000 0.152000 0.000000
0.074000 0.158000 0.000000
0.078000 0.080000 0.000000
0.078000 0.070000 0.000000
0.078000 0.122000 0.000000
0.002000 0.090000 0.000000
0.002000 0.080000 0.000000
0.002000 0.038000 0.000000
0.002000 0.102000 0.000000
0.002000 0.112000 0.000000
0.036000 0.002000 0.000000
0.078000 0.042000 0.000000
0.032000 0.002000 0.000000
0.047987 0.001989 0.000000
0.032008 0.158010 0.000000
0.002000 0.028000 0.000000
0.002000 0.126000 0.000000
0.060000 0.158000 0.000000
0.022000 0.002000 0.000000
0.002000 0.136000 0.000000
0.078000 0.024000 0.000000
0.012000 0.158000 0.000000
0.078000 0.158000 0.000000
0.001947 0.003947 0.000000
0.002000 0.158000 0.000000
0.078000 0.012000 0.000000
0.078000 0.096000 0.000000
0.078000 0.098000 0.000000
0.078000 0.082000 0.000000
0.078111 0.099889 0.000000
0.078035 0.083965 0.000000
0.078000 0.090000 0.000000
0.078000 0.106000 0.000000
0.078000 0.072000 0.000000
0.078000 0.112000 0.000000
0.078043 0.061976 0.000000
0.078000 0.114000 0.000000
0.002000 0.064000 0.000000
0.002000 0.062000 0.000000
0.002000 0.088000 0.000000
0.002000 0.078000 0.000000
0.002000 0.060000 0.000000
0.001966 0.076034 0.000000
0.002000 0.070000 0.000000
0.002000 0.054000 0.000000
0.001957 0.098024 0.000000
0.002000 0.048000 0.000000
0.002000 0.046000 0.000000
[...]
POINT_DATA 5510
SCALARS UX float 1
LOOKUP_TABLE default
-0.009442
0.006401
0.000000
-0.015520
-0.005763
-0.003105
-0.009044
-0.008646
-0.008248
-0.007850
-0.007452
-0.007054
-0.006657
-0.006260
-0.005863
-0.005467
-0.005071
-0.004675
-0.004280
-0.003885
-0.003491
-0.003096
-0.002702
-0.002308
-0.001915
-0.001521
-0.001127
-0.000734
-0.000340
0.000054
0.000448
0.000843
0.001237
0.001632
0.002027
0.002423
0.002819
0.003215
0.003612
0.004010
0.004408
0.004806
0.005204
0.005603
0.006002
0.006330
0.006259
0.006189
0.006118
0.006048
0.005978
0.005908
0.005838
0.005769
0.005700
0.005631
0.005563
0.005496
0.005429
0.005363
0.005298
0.005234
0.005170
0.005108
0.005047
0.004987
0.004927
0.004869
0.004812
0.004756
0.004701
0.004646
0.004590
0.004535
0.004479
0.004422
0.004363
0.004303
0.004240
0.004174
0.004106
0.004033
0.003956
0.003875
0.003788
0.003698
0.003602
0.003500
0.003393
0.003284
0.003170
0.003053
0.002936
0.002818
0.002702
0.002589
0.002479
0.002372
0.002271
0.002174
0.002082
0.001992
0.001907
0.001825
0.001745
0.001668
0.001591
0.001518
0.001445
0.001373
0.001302
0.001231
0.001161
0.001092
0.001023
0.000954
0.000885
0.000816
0.000748
0.000681
0.000614
0.000548
0.000473
0.000337
-0.000002
-0.000421
-0.000833
-0.001240
-0.001643
-0.002044
-0.002444
-0.002843
-0.003241
-0.003639
-0.004036
-0.004432
-0.004828
-0.005224
-0.005619
-0.006014
-0.006409
-0.006803
-0.007197
-0.007591
-0.007985
-0.008379
-0.008773
-0.009168
-0.009562
-0.009957
-0.010352
-0.010747
-0.011142
-0.011538
-0.011935
-0.012332
-0.012729
-0.013127
-0.013525
-0.013923
-0.014322
-0.014721
-0.015121
-0.015449
-0.015378
-0.015307
-0.015237
-0.015167
-0.015097
-0.015028
-0.014959
-0.014890
-0.014822
-0.014754
-0.014686
-0.014619
-0.014553
-0.014488
-0.014423
-0.014360
-0.014296
-0.014235
-0.014174
-0.014114
-0.014055
-0.013996
-0.013939
-0.013882
-0.013825
-0.013769
-0.013712
-0.013656
-0.013598
-0.013539
-0.013478
-0.013416
-0.013351
-0.013284
-0.013215
-0.013140
-0.013063
-0.012981
-0.012895
-0.012806
-0.012712
-0.012611
-0.012507
-0.012401
-0.012290
-0.012177
-0.012063
-0.011948
-0.011835
-0.011723
-0.011615
-0.011508
-0.011408
-0.011311
-0.011215
-0.011127
-0.011041
-0.010957
-0.010876
-0.010798
-0.010720
-0.010645
-0.010571
-0.010499
-0.010427
-0.010355
-0.010285
-0.010214
-0.010144
-0.010074
-0.010005
-0.009935
-0.009865
-0.009795
-0.009725
-0.009655
-0.009584
-0.009513
-0.005657
-0.005553
-0.005410
-0.005271
-0.005160
-0.005080
-0.004993
-0.004897
-0.004833
-0.004740
-0.004659
-0.004595
-0.004507
-0.004420
-0.004315
-0.004214
-0.004116
-0.004014
-0.003924
-0.003860
-0.003789
-0.003719
-0.003636
-0.003558
-0.003461
-0.003351
-0.003245
-0.001591
-0.007521
-0.013652
0.004410
-0.013369
0.004137
-0.010560
0.001428
-0.013032
-0.012683
-0.011226
-0.012113
0.003918
0.003577
0.002999
0.002067
0.004961
-0.014086
-0.010169
0.001044
-0.004362
-0.004351
0.002352
-0.011468
-0.009745
0.000553
-0.014627
0.005299
-0.006331
0.003939
-0.002374
-0.009536
-0.013852
-0.007523
0.000348
0.005718
0.004706
0.000771
-0.009886
-0.009327
0.002650
0.001764
-0.011787
-0.010900
-0.006338
0.000830
-0.014421
-0.008319
-0.014908
0.005133
0.000211
-0.000775
0.003400
0.003784
0.001262
-0.012894
-0.012506
-0.010392
-0.013258
-0.013537
-0.002379
0.004583
-0.003167
-0.000018
-0.009096
-0.010025
-0.013957
-0.003569
-0.005141
-0.014285
0.005162
-0.013056
-0.000027
-0.009195
-0.015049
0.005578
0.002530
0.002411
0.003308
0.002322
0.003218
0.002886
0.001962
0.003716
0.001671
0.004036
0.001584
-0.011658
-0.011542
-0.012824
-0.012415
-0.011427
-0.012327
-0.012003
-0.011099
-0.013153
-0.010807
-0.010718
0.004245
0.004529
0.004354
-0.013480
-0.013771
0.001188
-0.010316
-0.000804
-0.008309
-0.007127
0.004832
-0.005944
-0.005549
-0.013894
-0.003561
0.001562
-0.010676
-0.009954
0.000973
0.000761
-0.009884
0.000691
-0.014218
-0.005154
0.005094
-0.014558
-0.003171
-0.005538
0.003145
-0.012261
0.000485
0.005438
-0.014767
-0.009675
-0.009466
-0.001975
-0.006728
-0.001575
0.000143
-0.014650
-0.008747
-0.009184
0.005860
0.004735
0.005931
-0.013147
0.004019
-0.012517
-0.012138
-0.011729
-0.011043
-0.010506
0.003034
0.002616
0.001947
0.003408
0.001287
-0.007445
-0.013497
0.000642
-0.009998
-0.003239
-0.005087
-0.009625
0.000292
-0.005212
-0.013884
0.004761
-0.003499
-0.009276
-0.006401
-0.014227
-0.001909
0.001672
0.004153
-0.009137
-0.000191
0.005062
0.002854
0.002020
0.002260
-0.011962
-0.011152
-0.011385
-0.010334
0.002791
0.003128
0.002203
0.003508
0.003654
0.001880
0.003867
0.001510
-0.011912
-0.012761
-0.012238
-0.012978
-0.011326
-0.012613
-0.011009
-0.010644
0.003978
-0.013094
0.004091
-0.013210
0.004199
0.001362
-0.013322
-0.010493
0.004307
-0.013433
-0.013606
0.004472
-0.013716
0.004648
-0.013835
-0.001201
-0.007912
-0.001987
-0.006731
-0.000413
-0.008701
0.001119
-0.010247
0.004769
-0.002774
0.000376
-0.009490
-0.005871
0.001165
-0.010280
-0.014021
-0.010098
0.000902
0.004896
-0.009555
-0.003956
0.000430
-0.004758
0.001956
-0.011071
-0.009815
0.000623
-0.014151
0.005027
-0.014352
-0.003965
-0.004746
-0.014489
0.005230
-0.002773
-0.005934
-0.011864
0.002748
-0.012658
0.003541
0.000416
-0.009605
-0.013454
0.005368
-0.014697
0.000280
0.005508
-0.009396
-0.007125
-0.014837
-0.001175
0.005648
0.000067
-0.007921
-0.009256
-0.014251
-0.008788
0.004337
-0.000382
-0.014579
-0.014978
0.005789
0.005461
0.005532
-0.012843
0.003723
-0.010685
-0.000485
0.001553
-0.009227
-0.009426
0.001099
-0.011002
0.002677
0.005108
-0.012587
0.000017
0.004376
-0.002046
-0.013383
-0.014438
0.002416
0.001126
-0.011536
0.003634
0.003487
-0.012749
-0.012600
0.003279
0.003128
-0.012384
-0.012234
0.003838
-0.012961
0.000972
-0.009848
-0.008629
-0.009698
0.004494
0.000503
-0.013623
-0.004026
-0.004817
-0.006005
0.003471
-0.014089
-0.013952
-0.007196
-0.008998
-0.014297
0.004969
0.004830
-0.001114
-0.000264
0.005249
0.004991
0.002505
0.002737
-0.011622
0.001836
-0.011846
0.001224
-0.010929
-0.010625
0.004105
0.003348
-0.012455
-0.010264
-0.010087
-0.013216
-0.013324
0.001470
0.001575
0.003918
0.003970
-0.013044
-0.013096
-0.007854
0.002154
0.002944
-0.013439
-0.011277
-0.012050
0.001381
0.004251
0.004197
-0.010428
-0.009924
0.000720
0.000304
-0.002836
-0.006260
-0.001259
-0.006671
0.000573
-0.013561
-0.010212
-0.004693
-0.003634
0.004626
0.004693
-0.013750
-0.013816
0.000223
0.001887
-0.009486
-0.009345
-0.005479
0.000362
-0.005608
-0.007058
-0.003895
-0.011793
-0.002704
-0.003102
-0.002306
-0.014158
-0.006798
0.004265
-0.009207
-0.009068
-0.007991
0.004663
-0.001511
-0.008390
0.005390
-0.000121
-0.000337
-0.014508
-0.008858
-0.014180
-0.009698
0.003813
-0.012709
0.000824
-0.011872
-0.012247
-0.011269
-0.006956
0.003140
0.002782
0.002117
-0.013053
0.000327
-0.005017
-0.002919
0.004228
-0.000035
-0.013352
-0.004888
-0.003034
-0.008946
-0.006075
-0.013689
-0.008669
-0.010253
-0.010574
0.001115
-0.001447
0.002409
-0.011533
-0.009885
0.003741
0.001786
-0.010923
-0.009302
-0.009534
-0.013166
-0.003705
-0.006869
0.000085
-0.013828
-0.000521
0.001436
0.002040
0.001019
-0.011170
0.003204
0.003554
-0.012309
-0.012668
0.003670
-0.012788
-0.013265
0.002582
0.001634
-0.010794
0.003778
-0.012900
-0.010201
-0.011686
0.001027
-0.013375
-0.010807
-0.010644
-0.006579
-0.007761
-0.009016
0.003005
-0.012111
0.004313
-0.012990
-0.010056
0.003865
0.000694
-0.002448
-0.001659
-0.000097
0.000879
0.000800
0.004436
-0.009773
0.003597
-0.004292
0.004561
-0.009819
-0.013685
-0.000107
0.000177
-0.005800
-0.004422
-0.009416
-0.012725
-0.012856
0.001492
-0.010607
0.004296
0.004430
-0.009159
-0.013418
-0.013552
-0.003826
-0.002636
0.000104
0.002282
-0.011398
-0.014020
-0.005677
-0.008240
0.004899
-0.008808
0.000154
-0.012190
0.003074
-0.002240
0.003868
0.005038
0.004593
-0.007594
-0.000052
-0.014367
0.005178
-0.008460
-0.012984
0.004920
0.005319
-0.008928
-0.000661
-0.000722
-0.014109
-0.013781
-0.000872
0.001202
-0.012337
-0.010816
-0.010336
0.001708
-0.006540
-0.012958
-0.000214
-0.000554
0.003835
-0.008908
-0.009357
0.001029
0.003002
-0.002965
-0.010932
-0.005749
0.004639
0.003399
-0.012119
0.004522
-0.012914
0.001304
-0.012521
0.003982
-0.000433
-0.010486
0.002826
-0.011980
-0.012406
-0.012286
0.003288
0.003175
-0.002116
-0.013289
-0.004224
-0.009019
-0.004494
0.004500
-0.000244
-0.008600
-0.013710
-0.010315
0.002959
-0.012065
-0.009778
0.000792
-0.011434
0.002268
0.000914
-0.012587
0.003456
0.003579
-0.010476
0.003768
-0.012657
-0.012960
-0.012902
-0.012997
0.002671
-0.011767
0.002436
0.000400
0.000589
-0.011560
-0.002532
-0.008558
-0.008144
0.001882
-0.011005
0.003057
-0.012165
0.001308
-0.009613
0.004165
0.003868
-0.010143
0.000233
0.000751
-0.013227
-0.013106
-0.001341
-0.004625
-0.012772
-0.009090
-0.004098
0.000250
-0.003315
-0.009752
-0.009376
-0.009456
0.003642
-0.009973
0.004362
0.001423
-0.005408
0.004042
-0.006189
-0.013484
-0.013621
0.000036
-0.000175
-0.008765
-0.011327
0.002212
-0.008878
-0.005282
0.003797
-0.003430
-0.006472
-0.002569
-0.008739
-0.010144
-0.000314
-0.000452
0.004195
0.004779
0.004850
-0.007664
-0.007266
-0.008530
-0.008062
-0.013758
-0.001843
-0.013898
-0.014038
-0.007375
-0.001053
-0.000590
0.003430
0.003050
-0.011719
-0.011392
-0.009702
-0.010096
0.002615
0.002304
-0.002213
-0.009293
0.000962
-0.010863
-0.004557
-0.002896
-0.013222
-0.008480
-0.012588
-0.000640
-0.009315
-0.003775
0.003206
0.002833
-0.011939
-0.008341
-0.006542
-0.007336
-0.013429
-0.013639
-0.007690
0.001566
0.001097
0.002052
0.001789
-0.011181
-0.010901
-0.010689
0.003378
0.000856
-0.009913
0.003776
-0.000359
0.002444
-0.004565
0.003966
-0.005355
-0.008201
-0.000849
-0.001382
-0.006922
-0.012669
-0.012778
-0.012897
0.001445
0.001206
-0.012540
0.000646
0.000451
-0.010573
0.003229
-0.012343
-0.012276
-0.012175
-0.012458
0.003338
0.003529
0.000667
0.000496
0.002653
-0.011754
-0.010224
-0.006159
-0.005728
-0.009228
-0.008106
-0.000142
0.000019
-0.009063
-0.008960
-0.012357
-0.009530
0.003926
0.000632
-0.004151
-0.000160
-0.000286
-0.000955
-0.008696
0.003223
0.003901
-0.002995
-0.012467
-0.013088
-0.013023
-0.008987
0.004569
-0.010536
0.001817
-0.008835
-0.000501
-0.006146
0.004102
-0.003756
-0.003360
-0.005338
0.004100
-0.009683
-0.011722
0.003399
-0.013291
0.002606
-0.008621
-0.000382
0.004124
0.004381
0.004709
-0.002173
-0.012516
-0.000987
0.004451
-0.007734
-0.008132
-0.013311
-0.013968
-0.001729
-0.011534
-0.010389
0.002865
-0.011969
-0.008938
-0.011934
0.002833
-0.010582
-0.011422
0.001354
0.002298
-0.006472
-0.000526
-0.008517
-0.012508
-0.009226
0.003383
-0.000824
-0.005425
0.002141
-0.012826
-0.007656
-0.008302
-0.012049
0.001140
0.000329
-0.012009
-0.012124
0.002893
0.002997
0.003060
-0.005657
-0.004474
0.000116
-0.001411
0.003537
-0.000624
-0.012629
0.003507
-0.010472
-0.006216
-0.000780
0.002932
0.003726
-0.013569
-0.010188
-0.011636
0.002521
0.000401
0.001898
0.002162
-0.011005
-0.009436
-0.011252
-0.011922
0.002809
0.000576
0.003389
0.003132
0.000968
-0.010147
0.000450
-0.009780
-0.009979
-0.010475
-0.009150
0.002723
-0.000057
-0.011830
-0.011970
-0.012197
-0.001827
0.003653
-0.012838
0.003713
0.000568
0.000865
-0.009611
-0.000677
0.003483
0.002353
-0.000223
-0.008673
-0.012403
-0.012718
-0.010074
-0.004173
-0.000570
0.004171
0.004311
-0.003685
-0.004961
-0.008443
-0.013155
-0.008900
-0.008498
-0.002607
-0.008411
0.003266
-0.003290
-0.000711
0.004033
-0.004948
-0.013359
-0.002502
-0.008550
-0.006939
-0.012446
-0.013241
-0.007406
0.001353
-0.013499
-0.011257
0.003983
0.004053
-0.008271
-0.001315
-0.000918
-0.007804
-0.001777
-0.003385
-0.007308
-0.012616
-0.011444
-0.011679
-0.009976
-0.010259
0.002493
0.001501
-0.012062
0.002944
0.001106
0.002174
0.003045
-0.011633
0.002597
-0.009446
-0.010253
-0.009635
-0.001516
-0.008131
-0.003456
0.000503
-0.012223
-0.003615
0.003708
-0.010793
-0.008083
-0.011715
-0.011618
0.002509
-0.001035
0.003914
-0.011980
-0.012962
-0.011206
0.002144
0.000180
0.003002
0.001980
0.001731
0.001571
0.002698
0.002791
-0.008761
-0.007274
-0.011084
-0.012291
-0.004863
-0.012758
-0.004243
-0.005032
-0.002828
-0.007009
-0.001710
-0.002288
-0.011351
0.002253
-0.010828
-0.009851
0.001226
0.000727
0.000488
-0.009091
-0.009232
-0.011840
0.000266
-0.011886
-0.009787
-0.009916
0.000196
-0.008846
-0.010357
-0.010067
0.002382
-0.006037
-0.000439
-0.011497
0.000052
-0.006855
-0.000254
-0.008446
-0.008040
-0.012393
0.003265
0.000970
-0.005271
-0.000601
0.000169
-0.008374
0.003096
-0.011998
-0.001024
-0.012565
0.002853
-0.012694
0.003442
-0.010010
-0.009614
-0.012103
-0.008617
-0.004077
-0.000748
0.003592
0.001746
-0.011439
0.002337
-0.008014
-0.007477
-0.012449
-0.005821
-0.001107
-0.001246
-0.011651
-0.012894
-0.006612
0.003328
0.004241
-0.000893
-0.009230
0.003573
-0.002107
0.002536
0.003587
-0.013171
-0.007943
-0.008228
0.003656
-0.007874
-0.012843
-0.003065
-0.013101
0.000892
0.003321
-0.008838
-0.009667
0.001185
0.000824
-0.011676
0.002559
0.000316
0.001925
-0.010670
-0.008668
0.002659
-0.011317
0.002201
-0.011033
0.001177
0.001964
0.000634
-0.007167
-0.000817
-0.012016
-0.005608
-0.008772
-0.003135
0.002934
-0.012238
0.000434
-0.005104
-0.001137
-0.007912
-0.012432
0.002142
-0.011249
-0.007689
-0.001432
0.003115
-0.006286
0.002071
0.003518
0.003209
-0.009553
-0.011583
0.003844
-0.007081
-0.007546
-0.012705
0.000849
-0.010361
0.002499
-0.011612
0.001591
-0.008899
0.001599
-0.010876
-0.012162
-0.011497
0.002740
0.003010
-0.011799
-0.009570
0.000618
-0.011570
-0.009597
0.002036
0.002651
-0.000353
-0.000025
-0.000173
-0.000706
-0.006038
-0.012343
-0.007587
-0.001134
-0.010043
-0.010129
0.003149
-0.000986
-0.007996
-0.011124
-0.012241
-0.005182
-0.000293
-0.011631
0.001028
0.000105
0.001994
-0.011090
0.002483
-0.011310
-0.008236
-0.008437
-0.012118
0.000487
-0.000963
-0.012302
-0.004397
0.002993
-0.012042
-0.003849
0.003640
0.002893
-0.004641
-0.011186
0.003776
-0.004006
0.003256
-0.005497
-0.008156
-0.012498
-0.003221
-0.001642
-0.012375
-0.001283
0.002467
-0.008057
-0.001176
0.002173
-0.009339
-0.010402
-0.002039
-0.002434
-0.012774
-0.013031
0.001282
-0.002677
-0.008568
-0.001902
0.002073
-0.011176
-0.009782
0.000156
-0.006404
0.001854
-0.009892
-0.009741
0.002521
-0.011635
0.001560
-0.009099
-0.000005
-0.010735
0.000326
-0.010936
-0.008295
-0.011277
-0.010938
-0.010766
0.001832
-0.010055
-0.009320
0.000837
-0.007144
-0.007841
-0.005501
0.002544
-0.011852
-0.005176
-0.003934
-0.000347
-0.012039
-0.010723
-0.011515
-0.001590
-0.009760
0.002004
-0.009347
-0.011367
0.002194
-0.011310
0.002649
-0.009104
0.002770
0.001805
-0.003922
-0.002759
-0.007764
-0.004713
-0.009454
0.003245
-0.007151
-0.001966
-0.012635
-0.012308
-0.008877
0.002876
-0.010605
-0.000402
-0.011558
-0.000033
0.002635
0.002157
-0.011271
-0.011214
0.002360
0.002362
-0.008340
0.000277
0.001689
-0.005957
-0.010890
0.002465
-0.000724
-0.011921
-0.011870
-0.011799
-0.010967
-0.001107
0.002711
-0.007556
-0.000904
0.001868
-0.007987
0.000041
0.000542
-0.001354
0.002030
-0.011127
-0.009928
-0.000747
-0.012067
-0.011645
0.002490
-0.007838
-0.009158
-0.009538
-0.001060
0.002256
-0.003528
0.003180
-0.011742
0.003449
-0.001501
-0.004788
0.001675
-0.012178
-0.003544
-0.006684
-0.012566
-0.007618
0.003051
-0.001571
-0.001211
0.003192
-0.012364
-0.007748
-0.002358
-0.002748
-0.005892
0.000396
0.003314
-0.009942
0.002861
0.000822
0.000913
-0.011965
0.000181
-0.006787
-0.008386
0.001583
0.001387
-0.008449
0.000747
-0.000536
-0.010462
0.001247
-0.008727
-0.000021
0.001864
-0.012256
-0.009456
-0.011442
0.002217
-0.010896
0.001944
-0.010731
-0.009751
0.001390
0.001663
0.000235
-0.007121
-0.001095
-0.011570
-0.001282
-0.002821
-0.007461
0.000364
-0.009100
0.002725
-0.001445
-0.003864
-0.007526
-0.001671
-0.011058
-0.011443
-0.005798
-0.000043
0.000525
-0.008099
0.002359
0.002490
-0.006768
-0.011639
-0.000156
-0.000187
-0.004786
0.001297
-0.007372
-0.005962
0.002853
-0.003605
0.001607
-0.011973
-0.006756
0.002797
0.000942
-0.008569
0.001801
-0.010912
-0.009758
0.002397
-0.009226
-0.007947
-0.000612
0.001693
0.001771
-0.010790
-0.010873
-0.010784
-0.009298
-0.011896
-0.010663
-0.006363
-0.001282
0.001518
0.001878
-0.010996
-0.011282
-0.011740
-0.001746
-0.001895
0.000087
-0.009415
-0.000361
-0.011793
0.000724
-0.009598
-0.000237
0.001213
-0.011913
-0.004322
-0.011687
-0.008320
-0.011170
0.003382
-0.012239
-0.009485
-0.011115
-0.002361
0.002396
-0.004323
0.002524
-0.005106
0.003056
-0.011909
-0.005569
-0.010330
0.002604
0.003123
-0.007223
-0.003152
-0.001520
-0.007675
-0.012105
-0.009485
-0.008201
-0.008990
0.001733
-0.001972
0.002822
-0.007937
0.000464
-0.010134
-0.010453
-0.000385
0.001312
-0.000701
-0.008376
-0.000357
-0.011909
-0.010620
-0.011260
0.002331
-0.008261
-0.010408
-0.009033
0.000649
0.000227
0.001380
-0.000249
0.002104
-0.009844
-0.009032
-0.011362
-0.011525
-0.001823
-0.004856
-0.008992
-0.002059
0.001540
0.002062
-0.009455
-0.011045
-0.003082
-0.010474
-0.006147
-0.009166
-0.000962
0.001115
-0.011648
-0.004251
-0.002287
-0.011846
-0.006829
0.002988
-0.005640
0.002438
-0.007868
-0.007938
-0.008748
-0.006817
0.002280
0.002014
-0.000908
-0.000947
-0.007559
0.001452
-0.011513
-0.010472
0.000161
-0.011131
-0.010872
0.002299
-0.010934
-0.001186
0.000630
0.001733
-0.010830
-0.007603
-0.009248
-0.011597
0.001294
-0.000136
0.001041
-0.000429
0.000538
0.000316
0.001579
-0.011299
-0.009648
-0.008701
-0.001362
-0.007449
0.002334
0.002790
-0.003214
-0.010636
-0.011688
-0.010979
0.001883
0.001531
-0.004003
0.002921
-0.006359
-0.004712
-0.007296
-0.010596
-0.012172
-0.001821
0.002131
-0.004399
-0.001596
0.000111
-0.011389
-0.003473
0.002663
0.002156
0.002392
-0.010265
-0.009872
-0.002431
-0.007369
-0.008603
-0.008519
0.002730
0.002663
0.000751
-0.011411
-0.000023
-0.008109
-0.010174
-0.007494
-0.001658
-0.005422
-0.000323
-0.011553
-0.011543
-0.000687
-0.000718
-0.000536
0.002100
-0.010327
0.001843
-0.010957
-0.000976
-0.010530
0.001634
-0.009469
-0.010154
0.001106
0.000361
-0.007115
-0.002501
0.001719
-0.007187
-0.000878
0.000294
-0.010987
0.002336
-0.004179
0.001915
-0.010761
-0.011200
-0.011092
-0.007131
-0.000536
0.000317
-0.003404
0.000986
0.000008
-0.000180
-0.001977
0.002147
-0.008647
-0.006437
0.002272
0.002465
0.002598
-0.003289
-0.002213
-0.011780
-0.009808
-0.001045
-0.001461
-0.000654
0.001557
-0.010672
-0.009559
0.001242
0.001320
-0.009179
-0.010527
0.002026
0.001977
0.002053
-0.008886
0.000426
-0.007722
0.000749
-0.001276
-0.001345
-0.010588
0.000146
-0.001555
-0.001739
-0.001899
-0.009144
0.002114
-0.011272
0.001417
0.001482
-0.010583
-0.011316
-0.010511
-0.010681
0.001567
-0.008249
-0.010948
-0.002685
-0.009279
-0.006033
-0.011435
-0.006977
-0.011466
-0.011340
-0.002132
-0.011712
-0.006902
0.001142
-0.003683
-0.004469
-0.008988
-0.000353
-0.005030
-0.004636
-0.009418
0.001935
-0.011160
-0.007845
-0.005250
-0.002046
-0.011584
-0.007297
0.002215
-0.007087
-0.000481
-0.010653
0.002158
-0.010922
-0.008023
-0.010357
-0.007435
-0.005748
-0.010328
-0.010063
-0.009938
-0.000581
-0.008221
-0.008413
0.001793
0.001599
-0.010709
-0.006479
0.001475
-0.010277
-0.010376
-0.008824
0.001009
-0.000140
-0.001655
-0.006974
-0.006818
-0.001351
-0.003369
-0.004540
-0.008972
-0.002112
-0.010070
-0.000552
-0.011140
-0.007584
0.001727
0.001769
-0.009207
-0.008838
0.000451
-0.010614
0.000055
0.001123
-0.009753
-0.002363
-0.002520
-0.010585
-0.011260
-0.005714
-0.006586
0.002208
0.001085
0.001672
0.001580
-0.011390
-0.007927
-0.002116
-0.009566
-0.010185
-0.010362
-0.000841
0.001258
0.001260
-0.008812
-0.008535
-0.009366
0.001174
-0.010254
0.001784
-0.000093
-0.008954
-0.010775
-0.007348
0.001019
-0.009111
-0.000439
-0.003019
0.001453
-0.010549
-0.001815
-0.010203
-0.007221
-0.011195
-0.010093
0.001776
-0.010896
-0.008206
-0.007809
0.001673
-0.001646
-0.010960
-0.011041
0.000792
-0.011029
-0.007061
-0.011234
0.002532
0.000263
0.000683
0.002275
-0.002897
-0.010692
0.002009
-0.007749
-0.004950
-0.005354
0.001572
-0.009356
-0.004077
-0.003790
-0.010609
-0.004930
-0.001742
-0.006115
0.001881
-0.010195
0.001772
-0.004566
-0.006994
-0.002603
-0.002196
-0.006511
0.001881
-0.000093
-0.001245
0.002399
-0.010944
-0.008702
-0.000936
-0.001063
-0.006120
-0.000641
-0.011136
-0.008298
-0.000894
-0.006828
-0.001124