# vtk DataFile Version 2.0
Test
ASCII
DATASET POLYDATA
POINTS 5510 float
0.000000 0.000000 0.000000
0.080000 0.000000 0.000000
0.080000 0.160000 0.000000
0.000000 0.160000 0.000000
0.035000 0.076250 0.000000
0.046500 0.083750 0.000000
0.002000 0.000000 0.000000
0.004000 0.000000 0.000000
0.006000 0.000000 0.000000
0.008000 0.000000 0.000000
0.010000 0.000000 0.000000
0.012000 0.000000 0.000000
0.014000 0.000000 0.000000
0.016000 0.000000 0.000000
0.018000 0.000000 0.000000
0.020000 0.000000 0.000000
0.022000 0.000000 0.000000
0.024000 0.000000 0.000000
0.026000 0.000000 0.000000
0.028000 0.000000 0.000000
0.030000 0.000000 0.000000
0.032000 0.000000 0.000000
0.034000 0.000000 0.000000
0.036000 0.000000 0.000000
0.038000 0.000000 0.000000
0.040000 0.000000 0.000000
0.042000 0.000000 0.000000
0.044000 0.000000 0.000000
0.046000 0.000000 0.000000
0.048000 0.000000 0.000000
0.050000 0.000000 0.000000
0.052000 0.000000 0.000000
0.054000 0.000000 0.000000
0.056000 0.000000 0.000000
0.058000 0.000000 0.000000
0.060000 0.000000 0.000000
0.062000 0.000000 0.000000
0.064000 0.000000 0.000000
0.066000 0.000000 0.000000
0.068000 0.000000 0.000000
0.070000 0.000000 0.000000
0.072000 0.000000 0.000000
0.074000 0.000000 0.000000
0.076000 0.000000 0.000000
0.078000 0.000000 0.000000
0.080000 0.002000 0.000000
0.080000 0.004000 0.000000
0.080000 0.006000 0.000000
0.080000 0.008000 0.000000
0.080000 0.010000 0.000000
0.080000 0.012000 0.000000
0.080000 0.014000 0.000000
0.080000 0.016000 0.000000
0.080000 0.018000 0.000000
0.080000 0.020000 0.000000
0.080000 0.022000 0.000000
0.080000 0.024000 0.000000
0.080000 0.026000 0.000000
0.080000 0.028000 0.000000
0.080000 0.030000 0.000000
0.080000 0.032000 0.000000
0.080000 0.034000 0.000000
0.080000 0.036000 0.000000
0.080000 0.038000 0.000000
0.080000 0.040000 0.000000
0.080000 0.042000 0.000000
0.080000 0.044000 0.000000
0.080000 0.046000 0.000000
0.080000 0.048000 0.000000
0.080000 0.050000 0.000000
0.080000 0.052000 0.000000
0.080000 0.054000 0.000000
0.080000 0.056000 0.000000
0.080000 0.058000 0.000000
0.080000 0.060000 0.000000
0.080000 0.062000 0.000000
0.080000 0.064000 0.000000
0.080000 0.066000 0.000000
0.080000 0.068000 0.000000
0.080000 0.070000 0.000000
0.080000 0.072000 0.000000
0.080000 0.074000 0.000000
0.080000 0.076000 0.000000
0.080000 0.078000 0.000000
0.080000 0.080000 0.000000
0.080000 0.082000 0.000000
0.080000 0.084000 0.000000
0.080000 0.086000 0.000000
0.080000 0.088000 0.000000
0.080000 0.090000 0.000000
0.080000 0.092000 0.000000
0.080000 0.094000 0.000000
0.080000 0.096000 0.000000
0.080000 0.098000 0.000000
0.080000 0.100000 0.000000
0.080000 0.102000 0.000000
0.080000 0.104000 0.000000
0.080000 0.106000 0.000000
0.080000 0.108000 0.000000
0.080000 0.110000 0.000000
0.080000 0.112000 0.000000
0.080000 0.114000 0.000000
0.080000 0.116000 0.000000
0.080000 0.118000 0.000000
0.080000 0.120000 0.000000
0.080000 0.122000 0.000000
0.080000 0.124000 0.000000
0.080000 0.126000 0.000000
0.080000 0.128000 0.000000
0.080000 0.130000 0.000000
0.080000 0.132000 0.000000
0.080000 0.134000 0.000000
0.080000 0.136000 0.000000
0.080000 0.138000 0.000000
0.080000 0.140000 0.000000
0.080000 0.142000 0.000000
0.080000 0.144000 0.000000
0.080000 0.146000 0.000000
0.080000 0.148000 0.000000
0.080000 0.150000 0.000000
0.080000 0.152000 0.000000
0.080000 0.154000 0.000000
0.080000 0.156000 0.000000
0.080000 0.158000 0.000000
0.078000 0.160000 0.000000
0.076000 0.160000 0.000000
0.074000 0.160000 0.000000
0.072000 0.160000 0.000000
0.070000 0.160000 0.000000
0.068000 0.160000 0.000000
0.066000 0.160000 0.000000
0.064000 0.160000 0.000000
0.062000 0.160000 0.000000
0.060000 0.160000 0.000000
0.058000 0.160000 0.000000
0.056000 0.160000 0.000000
0.054000 0.160000 0.000000
0.052000 0.160000 0.000000
0.050000 0.160000 0.000000
0.048000 0.160000 0.000000
0.046000 0.160000 0.000000
0.044000 0.160000 0.000000
0.042000 0.160000 0.000000
0.040000 0.160000 0.000000
0.038000 0.160000 0.000000
0.036000 0.160000 0.000000
0.034000 0.160000 0.000000
0.032000 0.160000 0.000000
0.030000 0.160000 0.000000
0.028000 0.160000 0.000000
0.026000 0.160000 0.000000
0.024000 0.160000 0.000000
0.022000 0.160000 0.000000
0.020000 0.160000 0.000000
0.018000 0.160000 0.000000
0.016000 0.160000 0.000000
0.014000 0.160000 0.000000
0.012000 0.160000 0.000000
0.010000 0.160000 0.000000
0.008000 0.160000 0.000000
0.006000 0.160000 0.000000
0.004000 0.160000 0.000000
0.002000 0.160000 0.000000
0.000000 0.158000 0.000000
0.000000 0.156000 0.000000
0.000000 0.154000 0.000000
0.000000 0.152000 0.000000
0.000000 0.150000 0.000000
0.000000 0.148000 0.000000
0.000000 0.146000 0.000000
0.000000 0.144000 0.000000
0.000000 0.142000 0.000000
0.000000 0.140000 0.000000
0.000000 0.138000 0.000000
0.000000 0.136000 0.000000
0.000000 0.134000 0.000000
0.000000 0.132000 0.000000
0.000000 0.130000 0.000000
0.000000 0.128000 0.000000
0.000000 0.126000 0.000000
0.000000 0.124000 0.000000
0.000000 0.122000 0.000000
0.000000 0.120000 0.000000
0.000000 0.118000 0.000000
0.000000 0.116000 0.000000
0.000000 0.114000 0.000000
0.000000 0.112000 0.000000
0.000000 0.110000 0.000000
0.000000 0.108000 0.000000
0.000000 0.106000 0.000000
0.000000 0.104000 0.000000
0.000000 0.102000 0.000000
0.000000 0.100000 0.000000
0.000000 0.098000 0.000000
0.000000 0.096000 0.000000
0.000000 0.094000 0.000000
0.000000 0.092000 0.000000
0.000000 0.090000 0.000000
0.000000 0.088000 0.000000
0.000000 0.086000 0.000000
0.000000 0.084000 0.000000
0.000000 0.082000 0.000000
0.000000 0.080000 0.000000
0.000000 0.078000 0.000000
0.000000 0.076000 0.000000
0.000000 0.074000 0.000000
0.000000 0.072000 0.000000
0.000000 0.070000 0.000000
0.000000 0.068000 0.000000
0.000000 0.066000 0.000000
0.000000 0.064000 0.000000
0.000000 0.062000 0.000000
0.000000 0.060000 0.000000
0.000000 0.058000 0.000000
0.000000 0.056000 0.000000
0.000000 0.054000 0.000000
0.000000 0.052000 0.000000
0.000000 0.050000 0.000000
0.000000 0.048000 0.000000
0.000000 0.046000 0.000000
0.000000 0.044000 0.000000
0.000000 0.042000 0.000000
0.000000 0.040000 0.000000
0.000000 0.038000 0.000000
0.000000 0.036000 0.000000
0.000000 0.034000 0.000000
0.000000 0.032000 0.000000
0.000000 0.030000 0.000000
0.000000 0.028000 0.000000
0.000000 0.026000 0.000000
0.000000 0.024000 0.000000
0.000000 0.022000 0.000000
0.000000 0.020000 0.000000
0.000000 0.018000 0.000000
0.000000 0.016000 0.000000
0.000000 0.014000 0.000000
0.000000 0.012000 0.000000
0.000000 0.010000 0.000000
0.000000 0.008000 0.000000
0.000000 0.006000 0.000000
0.000000 0.004000 0.000000
0.000000 0.002000 0.000000
0.035411 0.076518 0.000000
0.035821 0.076786 0.000000
0.036232 0.077054 0.000000
0.036643 0.077321 0.000000
0.037054 0.077589 0.000000
0.037464 0.077857 0.000000
0.037875 0.078125 0.000000
0.038286 0.078393 0.000000
0.038696 0.078661 0.000000
0.039107 0.078929 0.000000
0.039518 0.079196 0.000000
0.039929 0.079464 0.000000
0.040339 0.079732 0.000000
0.040750 0.080000 0.000000
0.041161 0.080268 0.000000
0.041571 0.080536 0.000000
0.041982 0.080804 0.000000
0.042393 0.081071 0.000000
0.042804 0.081339 0.000000
0.043214 0.081607 0.000000
0.043625 0.081875 0.000000
0.044036 0.082143 0.000000
0.044446 0.082411 0.000000
0.044857 0.082679 0.000000
0.045268 0.082946 0.000000
0.045679 0.083214 0.000000
0.046089 0.083482 0.000000
0.040000 0.002000 0.000000
0.040001 0.158005 0.000000
0.002000 0.116000 0.000000
0.078000 0.048000 0.000000
0.002000 0.106000 0.000000
0.078000 0.058000 0.000000
0.001986 0.042173 0.000000
0.078015 0.117826 0.000000
0.001985 0.094174 0.000000
0.001985 0.084174 0.000000
0.001914 0.056074 0.000000
0.002000 0.072000 0.000000
0.078015 0.065826 0.000000
0.078016 0.075826 0.000000
0.078000 0.088000 0.000000
0.078000 0.104000 0.000000
0.078003 0.029997 0.000000
0.001998 0.130002 0.000000
0.002000 0.032000 0.000000
0.078013 0.128003 0.000000
0.056000 0.158000 0.000000
0.026000 0.002000 0.000000
0.060000 0.002000 0.000000
0.020000 0.158000 0.000000
0.002000 0.020000 0.000000
0.078000 0.142000 0.000000
0.002000 0.146000 0.000000
0.078000 0.020000 0.000000
0.016000 0.002000 0.000000
0.068000 0.002000 0.000000
0.066000 0.158000 0.000000
0.002000 0.014000 0.000000
0.008000 0.158000 0.000000
0.010000 0.002000 0.000000
0.078000 0.148000 0.000000
0.078000 0.008000 0.000000
0.078005 0.037995 0.000000
0.051991 0.001990 0.000000
0.028000 0.158000 0.000000
0.002000 0.008000 0.000000
0.078000 0.094000 0.000000
0.078000 0.110000 0.000000
0.001983 0.066159 0.000000
0.002000 0.050000 0.000000
0.046000 0.158000 0.000000
0.078000 0.134000 0.000000
0.002000 0.140000 0.000000
0.006000 0.002000 0.000000
0.002000 0.154000 0.000000
0.074000 0.002000 0.000000
0.078000 0.152000 0.000000
0.074000 0.158000 0.000000
0.078000 0.080000 0.000000
0.078000 0.070000 0.000000
0.078000 0.122000 0.000000
0.002000 0.090000 0.000000
0.002000 0.080000 0.000000
0.002000 0.038000 0.000000
0.002000 0.102000 0.000000
0.002000 0.112000 0.000000
0.036000 0.002000 0.000000
0.078000 0.042000 0.000000
0.032000 0.002000 0.000000
0.047987 0.001989 0.000000
0.032008 0.158010 0.000000
0.002000 0.028000 0.000000
0.002000 0.126000 0.000000
0.060000 0.158000 0.000000
0.022000 0.002000 0.000000
0.002000 0.136000 0.000000
0.078000 0.024000 0.000000
0.012000 0.158000 0.000000
0.078000 0.158000 0.000000
0.001947 0.003947 0.000000
0.002000 0.158000 0.000000
0.078000 0.012000 0.000000
0.078000 0.096000 0.000000
0.078000 0.098000 0.000000
0.078000 0.082000 0.000000
0.078111 0.099889 0.000000
0.078035 0.083965 0.000000
0.078000 0.090000 0.000000
0.078000 0.106000 0.000000
0.078000 0.072000 0.000000
0.078000 0.112000 0.000000
0.078043 0.061976 0.000000
0.078000 0.114000 0.000000
0.002000 0.064000 0.000000
0.002000 0.062000 0.000000
0.002000 0.088000 0.000000
0.002000 0.078000 0.000000
0.002000 0.060000 0.000000
0.001966 0.076034 0.000000
0.002000 0.070000 0.000000
0.002000 0.054000 0.000000
0.001957 0.098024 0.000000
0.002000 0.048000 0.000000
0.002000 0.046000 0.000000
[...]
POINT_DATA 5510
SCALARS UX float 1
LOOKUP_TABLE default
0.031578
0.122347
0.000003
-0.089086
0.012367
0.022328
0.033853
0.036128
0.038402
0.040679
0.042956
0.045236
0.047516
0.049799
0.052083
0.054368
0.056653
0.058938
0.061221
0.063501
0.065777
0.068048
0.070316
0.072580
0.074839
0.077095
0.079346
0.081592
0.083836
0.086078
0.088319
0.090558
0.092799
0.095040
0.097282
0.099527
0.101776
0.104030
0.106291
0.108556
0.110828
0.113109
0.115403
0.117712
0.120024
0.120893
0.119461
0.118055
0.116648
0.115279
0.113910
0.112572
0.111234
0.109905
0.108579
0.107258
0.105951
0.104643
0.103334
0.102022
0.100705
0.099378
0.098040
0.096687
0.095317
0.093926
0.092540
0.091134
0.089716
0.088303
0.086859
0.085407
0.083949
0.082489
0.081027
0.079564
0.078101
0.076637
0.075172
0.073704
0.072236
0.070765
0.069293
0.067820
0.066346
0.064873
0.063398
0.061924
0.060448
0.058976
0.057473
0.055934
0.054361
0.052613
0.050433
0.048194
0.045796
0.043358
0.041075
0.038982
0.037086
0.035236
0.033656
0.032101
0.030601
0.029138
0.027680
0.026236
0.024791
0.023347
0.021904
0.020461
0.019017
0.017575
0.016135
0.014697
0.013260
0.011831
0.010404
0.008974
0.007551
0.006079
0.004478
0.002518
-0.000030
-0.002284
-0.004644
-0.007003
-0.009321
-0.011636
-0.013958
-0.016272
-0.018578
-0.020881
-0.023178
-0.025471
-0.027761
-0.030047
-0.032332
-0.034608
-0.036879
-0.039147
-0.041409
-0.043667
-0.045921
-0.048172
-0.050419
-0.052664
-0.054908
-0.057151
-0.059394
-0.061638
-0.063884
-0.066133
-0.068387
-0.070648
-0.072916
-0.075192
-0.077474
-0.079767
-0.082075
-0.084405
-0.086737
-0.087619
-0.086184
-0.084747
-0.083367
-0.081994
-0.080630
-0.079291
-0.077961
-0.076632
-0.075310
-0.073994
-0.072683
-0.071371
-0.070057
-0.068736
-0.067404
-0.066056
-0.064713
-0.063352
-0.061986
-0.060609
-0.059225
-0.057829
-0.056419
-0.055013
-0.053581
-0.052144
-0.050700
-0.049254
-0.047804
-0.046351
-0.044895
-0.043437
-0.041977
-0.040512
-0.039047
-0.037577
-0.036107
-0.034635
-0.033161
-0.031687
-0.030210
-0.028732
-0.027253
-0.025780
-0.024277
-0.022750
-0.021163
-0.019509
-0.017455
-0.015280
-0.013043
-0.010720
-0.008392
-0.006185
-0.004044
-0.002311
-0.000653
0.000967
0.002524
0.004028
0.005516
0.006964
0.008411
0.009858
0.011306
0.012753
0.014201
0.015649
0.017097
0.018546
0.019995
0.021443
0.022891
0.024339
0.025787
0.027234
0.028682
0.030130
0.012731
0.013115
0.013648
0.014160
0.014571
0.014875
0.015198
0.015554
0.015797
0.016150
0.016456
0.016710
0.017040
0.017371
0.017754
0.018119
0.018504
0.018873
0.019219
0.019521
0.019815
0.020084
0.020403
0.020707
0.021074
0.021480
0.021852
0.075655
-0.042229
-0.056907
0.087420
-0.049893
0.080236
0.003216
0.029880
-0.041336
-0.034004
-0.010471
-0.025017
0.074532
0.067189
0.058214
0.042914
0.099581
-0.066307
0.010709
0.022508
-0.024008
0.059764
0.098101
-0.064705
0.019377
0.012405
-0.076884
0.106167
0.048345
0.107118
-0.012499
0.023719
-0.078308
0.041506
0.008086
0.114303
0.094301
0.089131
-0.055723
0.028061
0.053667
0.036336
-0.020613
-0.003402
-0.035428
0.018170
-0.072886
0.036954
-0.082386
0.113942
0.005180
-0.003327
0.064099
0.071455
0.026816
-0.038265
-0.030916
0.006373
-0.047010
-0.054144
0.071134
0.091583
0.066598
0.084643
-0.051232
0.013595
-0.063663
-0.019412
0.055196
-0.070245
0.103509
-0.073745
0.000507
0.030934
-0.085245
0.111547
0.051994
0.049987
0.062627
0.048008
0.061220
0.056727
0.040544
0.069985
0.034478
0.077380
0.032806
-0.018848
-0.016938
-0.036798
-0.029442
-0.014820
-0.028029
-0.023528
-0.007897
-0.044173
-0.001515
0.000177
0.083142
0.090232
0.086003
-0.052734
-0.059632
0.025374
0.007824
0.080160
-0.046737
-0.039965
0.096962
-0.033154
-0.030873
-0.062324
0.064326
0.093615
-0.060212
0.015040
0.021065
0.016728
0.016486
0.015286
-0.068930
-0.028589
0.102200
-0.075551
-0.017111
0.052912
0.102599
-0.069211
0.010966
0.108844
-0.079616
0.020824
0.025167
-0.010184
0.046064
-0.007890
0.003700
-0.082912
0.034604
0.032230
0.117112
0.111659
0.118549
-0.051875
0.085133
-0.036052
-0.028753
-0.022803
-0.012368
-0.000828
0.061942
0.056004
0.045290
0.069240
0.032187
-0.040764
-0.059968
0.020201
0.008656
0.065141
-0.027156
0.015884
0.013006
0.053744
-0.067815
0.101089
-0.017958
0.023103
0.046896
-0.074510
-0.008809
0.040082
0.087997
0.025997
0.002819
0.112498
0.059121
0.047586
0.051370
-0.025928
-0.014578
-0.018199
0.002439
0.055423
0.059890
0.045708
0.065828
0.068599
0.038613
0.073176
0.031338
-0.022229
-0.035411
-0.026694
-0.039982
-0.012680
-0.032641
-0.005704
0.001702
0.075928
-0.042727
0.078846
-0.045631
0.081758
0.028588
-0.048518
0.004560
0.084641
-0.051380
-0.055702
0.088863
-0.058315
0.092971
-0.061007
0.077901
-0.044474
0.073391
-0.037693
0.082397
-0.048979
0.023975
0.009228
0.095640
0.068864
0.086885
-0.053474
-0.031689
0.091371
-0.057964
-0.064988
0.012139
0.019623
0.098270
0.017327
0.062045
0.015882
-0.026300
0.095856
-0.062456
0.017928
0.013849
-0.067618
0.100886
-0.071562
-0.021713
0.057480
-0.074217
0.104832
-0.014806
0.050628
-0.066955
0.100347
-0.071474
0.104854
0.009526
0.022272
-0.076024
0.107499
-0.078244
0.006644
0.110188
0.026614
0.043784
-0.080990
-0.005603
0.112909
0.002146
0.039229
0.029509
-0.080603
0.033231
0.109385
-0.001224
-0.081459
-0.083796
0.115695
0.114792
0.116236
-0.043761
0.076970
-0.010137
0.080966
0.042960
0.018169
-0.052087
0.089970
-0.061034
0.098921
0.107826
-0.070040
0.007228
0.093285
0.072031
-0.074577
-0.078639
0.053061
0.029078
-0.019865
0.074004
0.070800
-0.040806
-0.037589
0.066354
0.063463
-0.033166
-0.030253
0.079788
-0.046559
0.026094
0.011526
-0.047546
0.014438
0.095824
0.017338
-0.062581
0.060595
0.056026
0.049177
0.103424
-0.071812
-0.069140
0.042335
0.028889
-0.075876
0.105117
0.102419
-0.004334
0.001289
0.110577
0.111068
0.054472
0.057407
-0.021264
0.042654
-0.024205
0.030821
-0.009929
-0.002865
0.086575
0.067797
-0.034606
0.004065
0.007145
-0.053306
-0.055976
0.035604
0.037800
0.082351
0.083716
-0.049108
-0.050461
-0.043119
0.049656
0.060558
-0.058638
-0.016513
-0.027365
0.033915
0.090623
0.089310
0.000760
0.010076
0.021659
0.085460
0.067476
-0.033943
0.076545
-0.036319
0.018784
-0.061294
-0.056554
-0.024877
0.062867
0.098443
0.099761
-0.065178
-0.066496
0.011559
0.094439
0.018759
0.021659
-0.029424
0.014450
0.051465
-0.038546
-0.020253
-0.065527
-0.013365
-0.015665
-0.011072
-0.073149
0.044615
0.107946
0.024548
0.027442
0.037782
0.110217
-0.006565
0.035506
0.113368
0.004312
-0.000235
-0.080039
0.031783
-0.079151
0.009403
0.087064
-0.047396
0.028226
-0.028107
-0.035512
-0.019401
-0.036930
0.068719
0.061379
0.052419
-0.056393
0.019403
-0.025708
0.065965
0.096036
0.012176
-0.062764
0.054576
-0.014239
0.023942
0.047732
-0.069418
0.029719
-0.000451
-0.007904
0.033576
-0.005276
0.055842
-0.022714
0.006120
0.084504
0.047399
-0.014326
0.016721
0.012328
-0.058904
0.061420
0.043169
0.008673
-0.072146
0.001981
0.039966
0.050943
0.031631
-0.017797
0.064963
0.072347
-0.031774
-0.039150
0.075491
-0.042287
-0.054663
0.058422
0.044937
-0.012193
0.078438
-0.045218
0.005504
-0.025223
0.027338
-0.057218
-0.007201
-0.004241
-0.034760
-0.041566
-0.049751
0.065946
-0.032752
0.091968
-0.047755
0.002971
0.080988
0.087670
0.069706
0.074240
0.083169
0.024597
0.023142
0.094569
0.012973
0.081669
-0.022549
0.097146
-0.054319
-0.063877
0.010716
0.016517
-0.030242
0.058305
0.020197
-0.048442
-0.051109
0.092204
-0.058793
0.097364
0.100027
0.019591
-0.064084
-0.066733
-0.018806
-0.011959
0.015046
0.096680
-0.063281
-0.070474
0.050021
-0.045319
0.103764
0.026829
0.010118
-0.067781
0.101169
-0.009711
0.105681
0.106462
0.108786
0.040058
0.005774
-0.077247
0.109196
0.034058
-0.072303
0.109655
0.111963
0.030336
-0.001021
-0.002249
-0.077721
-0.076859
0.078744
0.035525
-0.045194
-0.015974
-0.007783
0.049306
-0.033519
-0.060383
0.014232
0.079549
0.093664
0.018985
-0.050663
0.088548
0.099743
-0.012843
-0.059608
0.048569
0.104108
0.075891
-0.066355
0.107367
-0.070875
0.042646
-0.042685
0.090904
0.009882
-0.005640
0.062373
-0.029478
-0.039772
-0.036502
0.072964
0.069706
0.070599
-0.061483
-0.021118
0.022475
0.056850
0.101382
0.007837
0.031164
-0.075425
-0.001972
0.064754
-0.031574
0.008004
0.031729
-0.021487
0.054250
0.029859
-0.044434
0.077622
0.080617
-0.010463
0.085757
-0.046223
-0.053783
-0.052304
-0.055136
0.059729
-0.026607
0.056778
0.020813
0.023961
-0.023611
0.068196
-0.046122
-0.043754
0.049065
-0.015890
0.067250
-0.034057
0.037619
0.010879
0.094716
0.088359
0.001364
0.084028
0.026879
-0.060184
-0.057638
0.075050
-0.023442
-0.049711
0.021019
0.059143
0.017961
0.063669
-0.052909
0.015289
0.013772
0.082934
0.004502
0.098690
0.090786
-0.027975
0.092167
-0.032496
-0.065402
-0.068073
0.013622
0.009281
0.021852
-0.061855
0.095257
0.025380
0.052298
0.104251
-0.016522
0.045448
-0.010603
0.028270
-0.055136
0.006380
0.003466
0.106516
0.106869
0.108257
0.038612
0.040892
0.032612
0.036334
-0.070781
-0.007488
-0.073531
-0.076310
-0.039342
-0.003154
0.000476
0.084798
0.074225
-0.029562
-0.023732
0.004956
-0.007438
0.062760
0.057040
0.069009
-0.049275
0.087144
-0.058193
-0.022016
-0.011484
-0.065704
0.027653
-0.051787
0.005563
0.011638
0.059977
0.078408
0.066969
-0.033754
0.030551
0.044007
0.039445
-0.069815
-0.074006
-0.040135
0.047440
0.037284
0.053736
0.050376
-0.020694
-0.017345
-0.014294
0.082361
0.033231
0.001741
0.092397
0.011342
0.059464
0.055408
0.096321
0.050846
0.033442
0.001156
-0.004009
-0.035712
-0.054108
-0.056573
-0.059108
0.044734
0.040589
-0.050415
0.029819
0.026415
-0.012290
0.071107
-0.037911
-0.043669
-0.041055
-0.041145
0.074343
0.079519
0.025474
0.022414
0.064011
-0.030805
-0.005475
-0.031307
-0.028794
0.013115
-0.042515
0.015645
0.018614
0.016095
-0.048409
-0.046340
0.007988
0.089646
0.086299
-0.019660
0.081791
0.012799
0.077251
0.023271
0.079502
0.094996
0.064494
-0.048879
-0.063020
-0.061701
0.017529
0.102740
-0.057366
0.093020
0.020420
0.008453
0.046286
0.099019
-0.017377
-0.015099
-0.026539
0.093422
-0.051491
-0.064099
0.101993
-0.067065
0.097496
0.024767
0.004932
0.105095
0.104561
0.105485
-0.008384
-0.068613
-0.001815
0.105960
0.037166
0.034888
-0.073142
-0.074913
0.072811
-0.026146
-0.003612
0.063256
-0.030066
0.013847
-0.041958
0.076275
-0.015344
-0.028020
0.047059
0.061060
-0.032104
0.013436
0.021235
-0.056766
-0.047860
0.090020
0.007630
0.049405
0.093834
-0.063365
-0.038917
0.025548
-0.064928
0.042876
0.023158
-0.036508
-0.039595
0.069702
0.072727
0.075267
-0.027362
-0.020515
0.020137
0.073620
0.087287
0.078124
-0.059337
0.092647
-0.055974
0.044846
0.002635
0.098319
0.102829
-0.072599
-0.009315
-0.028191
0.061322
0.025131
0.052166
0.055546
-0.018814
0.010189
-0.022194
-0.034712
0.067907
0.028299
0.083508
0.076729
0.035228
-0.003526
0.029648
0.003459
-0.005387
-0.013910
0.014525
0.065404
0.017211
-0.032201
-0.043161
-0.042191
0.071230
0.089829
-0.057850
0.091095
0.084907
0.038202
0.006593
0.010527
0.086041
0.058122
0.080404
0.018418
-0.047568
-0.055292
-0.053714
0.057678
0.007021
0.100400
0.103173
-0.015967
0.053116
0.022683
-0.064359
-0.047041
-0.044750
0.066727
0.029095
0.080716
-0.013716
0.004099
0.097667
-0.024274
-0.068434
-0.009267
0.026210
0.041723
-0.067187
-0.071722
0.038000
0.089367
-0.071203
-0.060428
0.102273
0.103681
0.031995
-0.002620
-0.000335
0.035720
-0.006179
0.062232
-0.037932
-0.052885
-0.024804
-0.027755
0.000382
-0.010749
0.060494
0.046070
-0.038091
0.071286
0.038423
0.054977
0.082481
-0.040411
0.069588
0.005538
-0.013356
-0.002704
0.071994
0.023473
0.060798
0.083511
-0.049743
-0.014586
0.096717
-0.056767
0.029930
-0.036394
-0.031997
0.065194
0.003291
0.100877
-0.063511
-0.066114
-0.024248
0.057716
0.025757
0.080111
0.055115
0.051830
0.049094
0.072271
0.075056
0.016999
-0.036723
-0.021932
-0.051856
-0.022762
-0.062005
0.056239
0.051675
-0.010137
0.040279
-0.004848
0.067549
-0.026762
0.059991
-0.018614
-0.006740
0.045450
0.034974
0.030913
0.012091
0.009571
-0.039370
0.027668
-0.040648
-0.001174
-0.003650
0.021629
0.015313
-0.012287
-0.001584
0.063305
-0.029608
0.014932
-0.030183
0.023293
-0.034304
0.018006
-0.043431
-0.041109
-0.054263
0.087491
0.040353
-0.025125
0.012004
0.082637
0.024089
0.083699
-0.044272
0.075824
-0.058027
0.077322
-0.060662
0.091321
-0.052325
-0.050072
-0.046709
0.019708
-0.018222
0.009098
0.088530
0.091597
-0.028950
0.062165
0.031380
0.036555
-0.055499
0.047121
0.001808
-0.001149
-0.062668
-0.064735
0.042567
0.100567
0.101783
0.006203
0.008760
0.093990
-0.007060
0.096076
0.100013
-0.070308
0.032829
0.027021
0.101418
0.034276
-0.069448
0.063063
-0.068894
0.085721
0.088733
-0.045660
0.001993
0.044388
0.036711
-0.034990
0.068186
0.023716
0.053556
-0.016557
0.014444
0.080140
-0.033116
0.066318
-0.024887
0.046834
0.058287
0.037909
-0.035094
0.012741
-0.052015
-0.026107
-0.044255
0.061626
0.086407
-0.057010
0.082090
0.050235
0.006842
0.027789
-0.061057
0.062821
-0.029614
0.032210
0.000981
0.090323
0.043408
0.092410
0.098603
0.086257
-0.048695
-0.061256
0.099485
0.038833
0.035113
-0.066625
0.041877
-0.014664
0.065959
-0.032767
0.050422
0.011515
0.051716
-0.020110
-0.047956
-0.037533
0.073654
0.081240
-0.038147
-0.000795
0.032929
-0.039157
0.003516
0.056310
0.071001
0.016473
0.021181
0.019383
0.076623
-0.028637
-0.053094
-0.037498
0.074175
-0.010153
-0.011768
0.084920
0.009738
-0.039835
-0.022975
-0.050655
-0.023600
0.078975
-0.041257
0.045084
0.081248
0.059322
-0.026076
0.074217
-0.025719
0.021830
0.018538
-0.054429
0.034127
0.004771
-0.058348
-0.019073
0.087702
-0.045451
0.058525
0.095343
0.078498
0.053939
-0.059003
0.098097
-0.016824
0.099144
0.047964
0.028469
-0.062432
-0.012353
-0.003431
-0.065764
0.003960
0.094659
0.024898
0.000343
0.058695
0.007212
-0.054550
-0.005695
-0.007922
-0.068035
-0.067504
0.087938
0.065293
0.015949
0.069767
0.061536
-0.028326
0.000083
0.027910
-0.030694
0.053670
-0.008180
-0.004744
0.066895
-0.033701
0.049667
0.011094
0.022201
-0.017441
0.027355
-0.019902
0.016565
-0.038252
-0.027834
-0.020093
0.061041
-0.012914
-0.000413
0.044746
-0.033956
0.024145
-0.024454
0.084082
-0.054743
0.048795
-0.015445
0.020863
-0.058775
-0.055342
-0.059848
0.070537
-0.008496
0.091004
0.004010
-0.034403
0.065296
-0.032105
0.077988
0.007569
0.082687
0.055741
0.057073
-0.008767
0.030733
0.052496
0.001222
0.093041
0.037390
-0.004245
-0.065217
-0.064361
0.010767
0.085131
-0.018027
0.018869
-0.037242
0.025340
0.078967
0.063838
-0.030659
-0.036818
0.068943
0.070608
0.020010
0.030568
0.053611
-0.027159
-0.022399
0.073262
0.014220
-0.049687
-0.047735
-0.045757
-0.023690
0.073318
0.081367
-0.036310
0.011257
0.056927
0.026307
0.079854
0.035924
0.002500
0.060419
-0.027173
-0.011404
0.075363
-0.053220
-0.042222
0.075180
0.029265
-0.046450
-0.004572
0.008309
0.067594
0.059351
0.091673
-0.044547
0.097209
-0.000476
-0.021325
0.090167
-0.055720
-0.013221
0.041113
-0.063817
0.033652
0.088995
-0.001960
0.005398
0.097758
-0.059683
0.025675
0.066115
0.063854
0.045683
0.032354
0.094426
-0.050909
0.096896
0.084293
0.043284
-0.050810
0.029019
-0.032890
-0.042060
0.052326
0.049809
0.017573
0.039882
0.017330
-0.015847
0.047911
0.013155
0.026156
0.051297
-0.049297
0.009351
-0.035823
0.076554
-0.035200
0.065765
-0.023119
-0.011093
0.051854
0.056507
0.033882
-0.032830
0.012107
-0.047607
0.071314
0.062412
0.026336
0.080660
-0.045089
0.088034
0.006065
-0.014076
0.030011
0.001697
-0.032602
-0.043582
-0.025310
0.028591
0.039740
0.020529
0.079350
0.082822
-0.031784
-0.049766
0.023772
0.025975
0.051054
0.049987
0.032986
0.044251
0.090761
0.057882
0.088757
-0.057407
0.039665
0.095511
0.046048
0.013330
0.061570
-0.028381
-0.009331
0.071980
0.005829
0.022482
0.015969
0.057634
0.059820
-0.024395
-0.026600
-0.020927
0.000787
-0.048685
-0.021826
-0.029446
0.009012
0.054138
0.063565
-0.030381
-0.039227
-0.052202
0.000203
-0.002779
0.030434
-0.002294
0.077557
-0.053447
0.043216
-0.006316
0.022402
0.086517
-0.056076
0.054757
-0.043353
-0.040661
-0.035684
0.095817
-0.062955
0.002063
-0.057578
-0.006509
0.093236
-0.017666
0.076286
-0.022167
0.094956
-0.062085
0.046523
-0.053119
0.085388
0.096354
0.035944
-0.010995
0.004626
0.027094
-0.060156
-0.047284
0.018030
0.009208
0.054576
0.068330
0.083906
-0.038484
0.038001
-0.014023
-0.016456
0.019808
0.048828
0.017258
0.015162
0.023257
-0.047230
-0.018682
-0.035533
0.069461
0.014992
-0.020530
0.001472
0.044348
0.037606
0.055075
0.028185
0.080526
-0.012267
-0.043684
-0.049973
-0.053821
0.003874
0.049626
0.006242
-0.000588
0.087352
0.069953
-0.006670
-0.056153
-0.009615
-0.018384
-0.027222
0.002856
0.013735
0.048320
-0.056515
-0.016290
-0.005050
-0.060707
0.038216
0.093557
0.045096
0.081591
-0.037067
0.018575
0.009701
-0.031083
0.075742
0.067807
0.015122
0.073215
0.024801
0.052948
-0.045600
-0.021812
0.032181
-0.033968
-0.034161
0.078151
-0.036337
0.010616
0.041736
0.058754
-0.025516
0.028528
-0.002701
-0.048633
0.050642
0.027143
0.047221
0.076179
0.042926
0.035723
0.055261
-0.040195
-0.009784
-0.042827
0.007555
0.031506
0.091860
0.089405
0.060144
-0.026119
-0.050959
-0.031200
0.064518
0.059331
0.055584
0.092149
0.041960
-0.019898
0.034472
-0.020687
-0.061553
-0.001285
0.073040
0.053293
0.003180
0.024513
-0.042426
-0.011847
0.092715
0.081780
0.080410
-0.051718
-0.049488
0.064668
0.027849
0.011489
0.012871
0.094111
0.086700
0.082863
-0.051214
0.078461
0.019509
-0.014935
-0.034946
0.069124
-0.023016
0.024271
-0.045056
-0.046572
0.018950
0.017988
0.021400
0.067427
-0.016235
0.062463
-0.029265
0.017565
-0.032324
0.063934
-0.009450
-0.019231
0.050182
0.042590
-0.031902
0.063240
0.078242
0.026923
0.072557
0.079233
-0.047802
0.085778
-0.014910
0.075460
-0.030797
-0.045408
-0.041446
0.032314
0.023918
0.039425
-0.010466
0.048156
0.033277
0.029496
0.000945
0.072306
-0.041501
0.040480
0.090488
0.088528
0.091333
0.058689
-0.003581
-0.059314
-0.048100
0.015311
0.010005
0.021611
0.060954
-0.027761
-0.008524
0.052586
0.053881
0.003840
-0.019565
0.068863
0.076940
0.079285
0.007810
0.041291
0.022660
0.045651
0.012146
0.069958
-0.033575
0.035726
0.008379
0.005343
0.002434
-0.000761
0.071123
-0.047619
0.056128
0.058208
-0.024979
-0.048787
-0.022882
-0.028643
0.061851
-0.039235
-0.037287
-0.007348
-0.004158
0.042821
-0.058374
0.035277
-0.052502
-0.041303
-0.002045
-0.057886
0.036773
0.085090
0.056408
0.051869
0.002878
0.026729
-0.020752
-0.018489
-0.045881
0.089595
-0.043476
0.020051
0.047351
0.066878
-0.055149
0.029265
0.083089
0.028483
0.074819
-0.053918
0.074062
-0.033626
0.017192
-0.016983
-0.033625
-0.024098
-0.019319
-0.014831
-0.013375
0.020344
0.014266
0.011639
0.065720
0.060548
-0.027346
-0.029115
0.063891
-0.031483
-0.026081
0.001818
0.051595
0.033906
0.009789
-0.030195
0.029046
0.068854
0.057208
0.050438
-0.042333
0.003193
-0.017992
0.026393
-0.051592
0.020586
0.067997
0.070842
-0.006024
0.004917
0.043747
-0.031901
0.037937
0.053747
-0.012887
-0.001337
-0.004331
-0.052511
-0.054301
0.043648
0.037572
0.089105
0.083740
0.077023
0.073713
-0.057101
0.016830
0.065443
-0.010637
-0.016937
-0.024461
0.019913
0.057685
0.059268
0.006310
0.009971
-0.008127
0.051458
-0.018107
0.073706
0.031202
-0.000636
-0.031771
0.025159
0.049053
-0.004109
0.025353
-0.008252
0.057222
-0.023973
0.007790
-0.020324
0.030714
-0.044545
-0.015637
0.069226
-0.045406
-0.037981
-0.035729
0.065969
0.006866
-0.038209
-0.040327
0.046466
-0.048999
0.033739
-0.046492
0.089937
0.041255
0.081450
0.084447
0.060953
-0.029572
0.078106
0.021529
-0.019317
-0.021644
0.062753
-0.044511
0.054137
-0.012682
-0.034520
0.048186
0.067660
0.041324
0.073423
-0.050302
0.079527
-0.017123
0.029999
-0.005847
0.001718
0.039030
0.088263
0.077031
0.013318
0.087137
-0.046598
0.004777
0.071209
0.016130
-0.025964
0.022487
-0.042479
0.013083
0.018887
-0.030244
0.018314
-0.009078
-0.002817
0.041085
0.007592
-0.043272
0.067740
0.074770
-0.040966
0.077827
-0.020159
0.001065
-0.039340
-0.032216
0.048995
-0.013513
0.083516
0.012005
0.027122
0.066126
0.048591
0.044647
0.002115
0.013143
0.063990
-0.029058
0.061922
0.023544
0.032993
-0.041641
-0.048911
-0.034477
0.036051
0.086878
0.075867
-0.045599
0.052678
0.004701
0.050096
-0.015579
-0.013680
0.072306
0.046923
-0.016727
-0.028227
0.008344
0.006782
-0.005912
0.028294
0.031884
-0.030311
0.035835
0.052664
0.010979
0.024963
-0.017890
-0.043262
-0.021433
-0.023241
0.054710