# vtk DataFile Version 2.0
Test
ASCII
DATASET POLYDATA
POINTS 5510 float
0.000000 0.000000 0.000000
0.080000 0.000000 0.000000
0.080000 0.160000 0.000000
0.000000 0.160000 0.000000
0.035000 0.076250 0.000000
0.046500 0.083750 0.000000
0.002000 0.000000 0.000000
0.004000 0.000000 0.000000
0.006000 0.000000 0.000000
0.008000 0.000000 0.000000
0.010000 0.000000 0.000000
0.012000 0.000000 0.000000
0.014000 0.000000 0.000000
0.016000 0.000000 0.000000
0.018000 0.000000 0.000000
0.020000 0.000000 0.000000
0.022000 0.000000 0.000000
0.024000 0.000000 0.000000
0.026000 0.000000 0.000000
0.028000 0.000000 0.000000
0.030000 0.000000 0.000000
0.032000 0.000000 0.000000
0.034000 0.000000 0.000000
0.036000 0.000000 0.000000
0.038000 0.000000 0.000000
0.040000 0.000000 0.000000
0.042000 0.000000 0.000000
0.044000 0.000000 0.000000
0.046000 0.000000 0.000000
0.048000 0.000000 0.000000
0.050000 0.000000 0.000000
0.052000 0.000000 0.000000
0.054000 0.000000 0.000000
0.056000 0.000000 0.000000
0.058000 0.000000 0.000000
0.060000 0.000000 0.000000
0.062000 0.000000 0.000000
0.064000 0.000000 0.000000
0.066000 0.000000 0.000000
0.068000 0.000000 0.000000
0.070000 0.000000 0.000000
0.072000 0.000000 0.000000
0.074000 0.000000 0.000000
0.076000 0.000000 0.000000
0.078000 0.000000 0.000000
0.080000 0.002000 0.000000
0.080000 0.004000 0.000000
0.080000 0.006000 0.000000
0.080000 0.008000 0.000000
0.080000 0.010000 0.000000
0.080000 0.012000 0.000000
0.080000 0.014000 0.000000
0.080000 0.016000 0.000000
0.080000 0.018000 0.000000
0.080000 0.020000 0.000000
0.080000 0.022000 0.000000
0.080000 0.024000 0.000000
0.080000 0.026000 0.000000
0.080000 0.028000 0.000000
0.080000 0.030000 0.000000
0.080000 0.032000 0.000000
0.080000 0.034000 0.000000
0.080000 0.036000 0.000000
0.080000 0.038000 0.000000
0.080000 0.040000 0.000000
0.080000 0.042000 0.000000
0.080000 0.044000 0.000000
0.080000 0.046000 0.000000
0.080000 0.048000 0.000000
0.080000 0.050000 0.000000
0.080000 0.052000 0.000000
0.080000 0.054000 0.000000
0.080000 0.056000 0.000000
0.080000 0.058000 0.000000
0.080000 0.060000 0.000000
0.080000 0.062000 0.000000
0.080000 0.064000 0.000000
0.080000 0.066000 0.000000
0.080000 0.068000 0.000000
0.080000 0.070000 0.000000
0.080000 0.072000 0.000000
0.080000 0.074000 0.000000
0.080000 0.076000 0.000000
0.080000 0.078000 0.000000
0.080000 0.080000 0.000000
0.080000 0.082000 0.000000
0.080000 0.084000 0.000000
0.080000 0.086000 0.000000
0.080000 0.088000 0.000000
0.080000 0.090000 0.000000
0.080000 0.092000 0.000000
0.080000 0.094000 0.000000
0.080000 0.096000 0.000000
0.080000 0.098000 0.000000
0.080000 0.100000 0.000000
0.080000 0.102000 0.000000
0.080000 0.104000 0.000000
0.080000 0.106000 0.000000
0.080000 0.108000 0.000000
0.080000 0.110000 0.000000
0.080000 0.112000 0.000000
0.080000 0.114000 0.000000
0.080000 0.116000 0.000000
0.080000 0.118000 0.000000
0.080000 0.120000 0.000000
0.080000 0.122000 0.000000
0.080000 0.124000 0.000000
0.080000 0.126000 0.000000
0.080000 0.128000 0.000000
0.080000 0.130000 0.000000
0.080000 0.132000 0.000000
0.080000 0.134000 0.000000
0.080000 0.136000 0.000000
0.080000 0.138000 0.000000
0.080000 0.140000 0.000000
0.080000 0.142000 0.000000
0.080000 0.144000 0.000000
0.080000 0.146000 0.000000
0.080000 0.148000 0.000000
0.080000 0.150000 0.000000
0.080000 0.152000 0.000000
0.080000 0.154000 0.000000
0.080000 0.156000 0.000000
0.080000 0.158000 0.000000
0.078000 0.160000 0.000000
0.076000 0.160000 0.000000
0.074000 0.160000 0.000000
0.072000 0.160000 0.000000
0.070000 0.160000 0.000000
0.068000 0.160000 0.000000
0.066000 0.160000 0.000000
0.064000 0.160000 0.000000
0.062000 0.160000 0.000000
0.060000 0.160000 0.000000
0.058000 0.160000 0.000000
0.056000 0.160000 0.000000
0.054000 0.160000 0.000000
0.052000 0.160000 0.000000
0.050000 0.160000 0.000000
0.048000 0.160000 0.000000
0.046000 0.160000 0.000000
0.044000 0.160000 0.000000
0.042000 0.160000 0.000000
0.040000 0.160000 0.000000
0.038000 0.160000 0.000000
0.036000 0.160000 0.000000
0.034000 0.160000 0.000000
0.032000 0.160000 0.000000
0.030000 0.160000 0.000000
0.028000 0.160000 0.000000
0.026000 0.160000 0.000000
0.024000 0.160000 0.000000
0.022000 0.160000 0.000000
0.020000 0.160000 0.000000
0.018000 0.160000 0.000000
0.016000 0.160000 0.000000
0.014000 0.160000 0.000000
0.012000 0.160000 0.000000
0.010000 0.160000 0.000000
0.008000 0.160000 0.000000
0.006000 0.160000 0.000000
0.004000 0.160000 0.000000
0.002000 0.160000 0.000000
0.000000 0.158000 0.000000
0.000000 0.156000 0.000000
0.000000 0.154000 0.000000
0.000000 0.152000 0.000000
0.000000 0.150000 0.000000
0.000000 0.148000 0.000000
0.000000 0.146000 0.000000
0.000000 0.144000 0.000000
0.000000 0.142000 0.000000
0.000000 0.140000 0.000000
0.000000 0.138000 0.000000
0.000000 0.136000 0.000000
0.000000 0.134000 0.000000
0.000000 0.132000 0.000000
0.000000 0.130000 0.000000
0.000000 0.128000 0.000000
0.000000 0.126000 0.000000
0.000000 0.124000 0.000000
0.000000 0.122000 0.000000
0.000000 0.120000 0.000000
0.000000 0.118000 0.000000
0.000000 0.116000 0.000000
0.000000 0.114000 0.000000
0.000000 0.112000 0.000000
0.000000 0.110000 0.000000
0.000000 0.108000 0.000000
0.000000 0.106000 0.000000
0.000000 0.104000 0.000000
0.000000 0.102000 0.000000
0.000000 0.100000 0.000000
0.000000 0.098000 0.000000
0.000000 0.096000 0.000000
0.000000 0.094000 0.000000
0.000000 0.092000 0.000000
0.000000 0.090000 0.000000
0.000000 0.088000 0.000000
0.000000 0.086000 0.000000
0.000000 0.084000 0.000000
0.000000 0.082000 0.000000
0.000000 0.080000 0.000000
0.000000 0.078000 0.000000
0.000000 0.076000 0.000000
0.000000 0.074000 0.000000
0.000000 0.072000 0.000000
0.000000 0.070000 0.000000
0.000000 0.068000 0.000000
0.000000 0.066000 0.000000
0.000000 0.064000 0.000000
0.000000 0.062000 0.000000
0.000000 0.060000 0.000000
0.000000 0.058000 0.000000
0.000000 0.056000 0.000000
0.000000 0.054000 0.000000
0.000000 0.052000 0.000000
0.000000 0.050000 0.000000
0.000000 0.048000 0.000000
0.000000 0.046000 0.000000
0.000000 0.044000 0.000000
0.000000 0.042000 0.000000
0.000000 0.040000 0.000000
0.000000 0.038000 0.000000
0.000000 0.036000 0.000000
0.000000 0.034000 0.000000
0.000000 0.032000 0.000000
0.000000 0.030000 0.000000
0.000000 0.028000 0.000000
0.000000 0.026000 0.000000
0.000000 0.024000 0.000000
0.000000 0.022000 0.000000
0.000000 0.020000 0.000000
0.000000 0.018000 0.000000
0.000000 0.016000 0.000000
0.000000 0.014000 0.000000
0.000000 0.012000 0.000000
0.000000 0.010000 0.000000
0.000000 0.008000 0.000000
0.000000 0.006000 0.000000
0.000000 0.004000 0.000000
0.000000 0.002000 0.000000
0.035411 0.076518 0.000000
0.035821 0.076786 0.000000
0.036232 0.077054 0.000000
0.036643 0.077321 0.000000
0.037054 0.077589 0.000000
0.037464 0.077857 0.000000
0.037875 0.078125 0.000000
0.038286 0.078393 0.000000
0.038696 0.078661 0.000000
0.039107 0.078929 0.000000
0.039518 0.079196 0.000000
0.039929 0.079464 0.000000
0.040339 0.079732 0.000000
0.040750 0.080000 0.000000
0.041161 0.080268 0.000000
0.041571 0.080536 0.000000
0.041982 0.080804 0.000000
0.042393 0.081071 0.000000
0.042804 0.081339 0.000000
0.043214 0.081607 0.000000
0.043625 0.081875 0.000000
0.044036 0.082143 0.000000
0.044446 0.082411 0.000000
0.044857 0.082679 0.000000
0.045268 0.082946 0.000000
0.045679 0.083214 0.000000
0.046089 0.083482 0.000000
0.040000 0.002000 0.000000
0.040001 0.158005 0.000000
0.002000 0.116000 0.000000
0.078000 0.048000 0.000000
0.002000 0.106000 0.000000
0.078000 0.058000 0.000000
0.001986 0.042173 0.000000
0.078015 0.117826 0.000000
0.001985 0.094174 0.000000
0.001985 0.084174 0.000000
0.001914 0.056074 0.000000
0.002000 0.072000 0.000000
0.078015 0.065826 0.000000
0.078016 0.075826 0.000000
0.078000 0.088000 0.000000
0.078000 0.104000 0.000000
0.078003 0.029997 0.000000
0.001998 0.130002 0.000000
0.002000 0.032000 0.000000
0.078013 0.128003 0.000000
0.056000 0.158000 0.000000
0.026000 0.002000 0.000000
0.060000 0.002000 0.000000
0.020000 0.158000 0.000000
0.002000 0.020000 0.000000
0.078000 0.142000 0.000000
0.002000 0.146000 0.000000
0.078000 0.020000 0.000000
0.016000 0.002000 0.000000
0.068000 0.002000 0.000000
0.066000 0.158000 0.000000
0.002000 0.014000 0.000000
0.008000 0.158000 0.000000
0.010000 0.002000 0.000000
0.078000 0.148000 0.000000
0.078000 0.008000 0.000000
0.078005 0.037995 0.000000
0.051991 0.001990 0.000000
0.028000 0.158000 0.000000
0.002000 0.008000 0.000000
0.078000 0.094000 0.000000
0.078000 0.110000 0.000000
0.001983 0.066159 0.000000
0.002000 0.050000 0.000000
0.046000 0.158000 0.000000
0.078000 0.134000 0.000000
0.002000 0.140000 0.000000
0.006000 0.002000 0.000000
0.002000 0.154000 0.000000
0.074000 0.002000 0.000000
0.078000 0.152000 0.000000
0.074000 0.158000 0.000000
0.078000 0.080000 0.000000
0.078000 0.070000 0.000000
0.078000 0.122000 0.000000
0.002000 0.090000 0.000000
0.002000 0.080000 0.000000
0.002000 0.038000 0.000000
0.002000 0.102000 0.000000
0.002000 0.112000 0.000000
0.036000 0.002000 0.000000
0.078000 0.042000 0.000000
0.032000 0.002000 0.000000
0.047987 0.001989 0.000000
0.032008 0.158010 0.000000
0.002000 0.028000 0.000000
0.002000 0.126000 0.000000
0.060000 0.158000 0.000000
0.022000 0.002000 0.000000
0.002000 0.136000 0.000000
0.078000 0.024000 0.000000
0.012000 0.158000 0.000000
0.078000 0.158000 0.000000
0.001947 0.003947 0.000000
0.002000 0.158000 0.000000
0.078000 0.012000 0.000000
0.078000 0.096000 0.000000
0.078000 0.098000 0.000000
0.078000 0.082000 0.000000
0.078111 0.099889 0.000000
0.078035 0.083965 0.000000
0.078000 0.090000 0.000000
0.078000 0.106000 0.000000
0.078000 0.072000 0.000000
0.078000 0.112000 0.000000
0.078043 0.061976 0.000000
0.078000 0.114000 0.000000
0.002000 0.064000 0.000000
0.002000 0.062000 0.000000
0.002000 0.088000 0.000000
0.002000 0.078000 0.000000
0.002000 0.060000 0.000000
0.001966 0.076034 0.000000
0.002000 0.070000 0.000000
0.002000 0.054000 0.000000
0.001957 0.098024 0.000000
0.002000 0.048000 0.000000
0.002000 0.046000 0.000000
[...]
POINT_DATA 5510
SCALARS UX float 1
LOOKUP_TABLE default
0.065326
0.217032
0.000007
-0.162507
0.024492
0.040466
0.068698
0.072192
0.075768
0.079475
0.083246
0.087044
0.090836
0.094617
0.098364
0.102077
0.105743
0.109358
0.112923
0.116441
0.119910
0.123337
0.126745
0.130133
0.133509
0.136876
0.140249
0.143645
0.147094
0.150606
0.154203
0.157896
0.161651
0.165511
0.169503
0.173656
0.178019
0.182385
0.186793
0.191176
0.195578
0.199965
0.204304
0.208566
0.212831
0.213727
0.210341
0.206945
0.203535
0.200253
0.196991
0.194238
0.191583
0.189038
0.186659
0.184374
0.182257
0.180190
0.178169
0.176082
0.173930
0.171704
0.169418
0.167088
0.164733
0.162366
0.159993
0.157614
0.155246
0.152864
0.150523
0.148208
0.145912
0.143615
0.141320
0.139014
0.136704
0.134385
0.132051
0.129705
0.127378
0.125021
0.122668
0.120316
0.117951
0.115597
0.113194
0.110741
0.108236
0.105728
0.103145
0.100505
0.097871
0.094977
0.091055
0.086973
0.082413
0.077828
0.073303
0.069123
0.065290
0.061567
0.058324
0.055174
0.052169
0.049358
0.046605
0.044064
0.041585
0.039124
0.036714
0.034311
0.031895
0.029455
0.026989
0.024524
0.022050
0.019546
0.017034
0.014516
0.012008
0.009447
0.006755
0.003749
-0.000063
-0.003332
-0.006893
-0.010569
-0.014223
-0.017921
-0.021729
-0.025539
-0.029333
-0.033135
-0.036910
-0.040668
-0.044417
-0.048160
-0.051896
-0.055668
-0.059464
-0.063278
-0.067138
-0.071051
-0.074998
-0.079007
-0.083091
-0.087252
-0.091447
-0.095710
-0.100043
-0.104448
-0.108926
-0.113491
-0.118179
-0.122963
-0.127841
-0.132747
-0.137652
-0.142594
-0.147562
-0.152543
-0.157529
-0.158645
-0.154771
-0.150880
-0.147127
-0.143471
-0.139894
-0.136500
-0.133300
-0.130188
-0.127221
-0.124376
-0.121656
-0.119002
-0.116458
-0.113884
-0.111257
-0.108569
-0.105938
-0.103295
-0.100664
-0.098033
-0.095435
-0.092849
-0.090311
-0.087765
-0.085337
-0.082982
-0.080706
-0.078479
-0.076309
-0.074181
-0.072042
-0.069898
-0.067761
-0.065596
-0.063463
-0.061252
-0.059031
-0.056777
-0.054448
-0.052167
-0.049675
-0.047019
-0.044239
-0.041426
-0.038253
-0.034980
-0.031569
-0.028064
-0.024007
-0.019773
-0.015423
-0.011037
-0.006732
-0.002672
0.001203
0.004449
0.007555
0.010573
0.013501
0.016316
0.019092
0.021741
0.024348
0.026926
0.029472
0.032025
0.034587
0.037157
0.039729
0.042321
0.044927
0.047540
0.050159
0.052791
0.055412
0.058015
0.060563
0.063040
0.024997
0.025546
0.026330
0.027095
0.027740
0.028245
0.028786
0.029385
0.029828
0.030436
0.030981
0.031453
0.032031
0.032610
0.033257
0.033874
0.034514
0.035114
0.035678
0.036192
0.036681
0.037120
0.037622
0.038099
0.038652
0.039251
0.039791
0.134461
-0.068194
-0.092064
0.151417
-0.079425
0.139598
0.013615
0.051967
-0.066232
-0.055658
-0.011878
-0.041011
0.130667
0.119151
0.104587
0.077965
0.172110
-0.109824
0.027617
0.038353
-0.037917
0.110315
0.170699
-0.110116
0.043115
0.021193
-0.131782
0.182495
0.091875
0.187951
-0.019091
0.050958
-0.138878
0.080598
0.013628
0.199373
0.163356
0.155261
-0.092566
0.058821
0.096946
0.065120
-0.031840
0.001101
-0.056692
0.031049
-0.122668
0.073336
-0.146074
0.201076
0.008523
-0.004761
0.114274
0.125851
0.045969
-0.061801
-0.051117
0.019624
-0.074723
-0.086955
0.127688
0.158611
0.120855
0.148102
-0.084182
0.032782
-0.104857
-0.030367
0.103061
-0.117183
0.178069
-0.129066
0.000785
0.063952
-0.153745
0.192913
0.094223
0.090801
0.111918
0.087275
0.109609
0.102058
0.073401
0.123542
0.061369
0.135135
0.057951
-0.028128
-0.024315
-0.059687
-0.048820
-0.020205
-0.046392
-0.038009
-0.007170
-0.070392
0.004617
0.007831
0.144246
0.156276
0.149025
-0.084427
-0.097181
0.043348
0.022338
0.141226
-0.076070
-0.064316
0.167895
-0.052916
-0.049162
-0.102288
0.117391
0.162780
-0.101192
0.035348
0.035914
0.028610
0.037936
0.026145
-0.114684
-0.045413
0.176093
-0.128648
-0.026600
0.099359
0.179213
-0.119397
0.018687
0.187394
-0.138713
0.045721
0.053583
-0.015365
0.088109
-0.011746
0.005965
-0.148779
0.069739
0.066201
0.206270
0.196708
0.209668
-0.083661
0.147664
-0.058016
-0.047728
-0.037618
-0.016730
0.004753
0.110708
0.100941
0.082808
0.122035
0.057830
-0.065398
-0.098628
0.035077
0.022953
0.118314
-0.042738
0.036138
0.022820
0.100361
-0.112851
0.174048
-0.027694
0.049163
0.089190
-0.127254
-0.012986
0.073275
0.152672
0.054416
0.005020
0.197795
0.106156
0.086877
0.093267
-0.043226
-0.020992
-0.028110
0.011003
0.099863
0.107411
0.083153
0.117011
0.121375
0.069614
0.128554
0.054902
-0.035249
-0.057707
-0.044072
-0.064296
-0.016091
-0.053673
-0.003104
0.010768
0.132856
-0.068269
0.137426
-0.072593
0.142028
0.049365
-0.077150
0.016204
0.146741
-0.082013
-0.089807
0.153897
-0.094680
0.161034
-0.099774
0.137828
-0.072109
0.131073
-0.060492
0.144632
-0.080080
0.040879
0.024937
0.165664
0.124273
0.151634
-0.088355
-0.050203
0.158994
-0.096837
-0.107362
0.030190
0.033487
0.170039
0.038733
0.113873
0.027753
-0.041669
0.166676
-0.105613
0.040518
0.023675
-0.112248
0.174114
-0.119863
-0.034151
0.106711
-0.125594
0.180197
-0.022836
0.095632
-0.114692
0.174846
-0.124182
0.183555
0.016162
0.048337
-0.133972
0.184828
-0.135177
0.011089
0.190033
0.056212
0.084338
-0.142331
-0.008208
0.195934
0.003366
0.076921
0.061411
-0.143817
0.067372
0.192325
-0.001705
-0.145018
-0.149896
0.202792
0.202093
0.205414
-0.069472
0.134045
-0.013519
0.142234
0.078826
0.039602
-0.085399
0.156420
-0.102451
0.172088
0.186026
-0.120728
0.012752
0.161912
0.128742
-0.130328
-0.137590
0.096015
0.051473
-0.031416
0.129433
0.124449
-0.064919
-0.060253
0.117584
0.113100
-0.053985
-0.049899
0.138607
-0.074122
0.045492
0.028282
-0.077231
0.033549
0.166021
0.030222
-0.103332
0.111264
0.104032
0.092931
0.180491
-0.121095
-0.115423
0.081713
0.059666
-0.130571
0.180841
0.176128
-0.006087
0.002388
0.191985
0.194489
0.098351
0.103302
-0.034451
0.077977
-0.040181
0.055011
-0.012095
0.001054
0.150166
0.119809
-0.055991
0.014187
0.020095
-0.086252
-0.091211
0.064594
0.068849
0.142897
0.145234
-0.078628
-0.081078
-0.069435
0.090395
0.108485
-0.096170
-0.024711
-0.045533
0.061235
0.157343
0.155019
0.007820
0.025614
0.037566
0.149185
0.121883
-0.053927
0.135525
-0.057880
0.032665
-0.101027
-0.093772
-0.039009
0.114804
0.170016
0.172005
-0.107971
-0.110375
0.020325
0.164059
0.041319
0.046542
-0.046472
0.025300
0.096668
-0.061636
-0.031434
-0.111473
-0.020231
-0.023966
-0.016542
-0.124057
0.085440
0.189136
0.051784
0.057047
0.074425
0.193467
-0.009502
0.070864
0.198672
0.007626
-0.000121
-0.141274
0.064860
-0.140111
0.023558
0.151476
-0.076234
0.050695
-0.046397
-0.056674
-0.031640
-0.058670
0.120832
0.109635
0.094974
-0.092669
0.034284
-0.040069
0.119239
0.165979
0.021949
-0.103739
0.101344
-0.021386
0.050048
0.090271
-0.116651
0.060562
0.004619
-0.009349
0.061288
-0.007353
0.100706
-0.037911
0.017203
0.146856
0.086641
-0.021453
0.036997
0.029030
-0.097031
0.112192
0.082832
0.015294
-0.122781
0.004111
0.073356
0.092542
0.057486
-0.028276
0.115427
0.126839
-0.052027
-0.062489
0.131722
-0.067158
-0.088793
0.104934
0.082336
-0.017412
0.136386
-0.071842
0.017042
-0.042053
0.047967
-0.093530
-0.007031
-0.001689
-0.055038
-0.066547
-0.081165
0.116592
-0.052730
0.159679
-0.076229
0.011114
0.140596
0.152694
0.125246
0.132054
0.145613
0.042731
0.040142
0.164024
0.030910
0.141896
-0.035194
0.168047
-0.089552
-0.105642
0.019428
0.029379
-0.047544
0.107658
0.043906
-0.078216
-0.083029
0.160191
-0.098072
0.168024
0.172251
0.042176
-0.106123
-0.111153
-0.028786
-0.017738
0.026876
0.168040
-0.106927
-0.118190
0.093998
-0.073290
0.178400
0.055302
0.017823
-0.116058
0.176214
-0.014205
0.184798
0.183285
0.190259
0.078045
0.010198
-0.133995
0.188910
0.068341
-0.125454
0.191211
0.195235
0.062273
-0.001061
-0.003044
-0.136456
-0.135212
0.138847
0.065035
-0.073025
-0.025403
-0.009812
0.089845
-0.052757
-0.099594
0.025980
0.139832
0.162044
0.040514
-0.082558
0.154027
0.173495
-0.018940
-0.099389
0.091327
0.179458
0.132048
-0.112867
0.187151
-0.122132
0.078404
-0.067857
0.158011
0.018501
-0.005080
0.111156
-0.048366
-0.063040
-0.058092
0.127348
0.122324
0.126289
-0.101476
-0.032551
0.047384
0.104981
0.174528
0.014410
0.063177
-0.131630
0.001776
0.114795
-0.051152
0.020857
0.058192
-0.035697
0.098042
0.053988
-0.070901
0.134912
0.140051
-0.014823
0.149132
-0.074121
-0.087932
-0.085221
-0.090425
0.107037
-0.044217
0.102243
0.036719
0.042296
-0.039453
0.122648
-0.074439
-0.070310
0.089433
-0.024584
0.118556
-0.054534
0.068969
0.026341
0.163975
0.153742
0.008034
0.146769
0.047972
-0.099227
-0.094852
0.133003
-0.036354
-0.080564
0.044754
0.108616
0.031827
0.115691
-0.086673
0.034417
0.031670
0.144133
0.014066
0.170096
0.157774
-0.043798
0.160030
-0.051273
-0.108577
-0.113831
0.024434
0.016930
0.045692
-0.103802
0.165534
0.052664
0.097678
0.181791
-0.025082
0.086541
-0.015420
0.057927
-0.090824
0.011852
0.006722
0.186022
0.185066
0.188071
0.075496
0.079157
0.065785
0.071891
-0.119663
-0.010754
-0.126050
-0.132886
-0.062739
-0.004215
0.001483
0.147837
0.129215
-0.047667
-0.039472
0.014204
-0.009515
0.111380
0.102597
0.123556
-0.079888
0.151748
-0.096501
-0.033741
-0.016632
-0.109626
0.056229
-0.084942
0.010957
0.027110
0.109555
0.136434
0.117759
-0.053638
0.061509
0.083943
0.076585
-0.118407
-0.128190
-0.063903
0.086750
0.068585
0.097187
0.091603
-0.034527
-0.028098
-0.022165
0.143453
0.061072
0.008145
0.160067
0.021020
0.106397
0.102312
0.166297
0.095002
0.066751
0.003184
-0.005318
-0.056427
-0.088953
-0.093059
-0.097355
0.082084
0.074719
-0.082504
0.054602
0.047896
-0.018279
0.124470
-0.060168
-0.070241
-0.065521
-0.065265
0.129537
0.138154
0.045211
0.039510
0.113204
-0.049281
-0.005430
-0.049062
-0.044888
0.029870
-0.067991
0.028379
0.033436
0.035301
-0.078498
-0.075208
0.020081
0.155935
0.150367
-0.029902
0.143281
0.023526
0.136330
0.048259
0.138417
0.164154
0.116601
-0.079813
-0.104414
-0.101967
0.037891
0.176891
-0.095054
0.161612
0.043106
0.016013
0.087632
0.170762
-0.026203
-0.022534
-0.041172
0.161978
-0.083905
-0.108314
0.177617
-0.112430
0.169501
0.050974
0.009303
0.183068
0.181294
0.182193
-0.011974
-0.117476
-0.002006
0.184171
0.072941
0.069337
-0.126824
-0.129398
0.129621
-0.043036
-0.001326
0.112495
-0.049046
0.030670
-0.067912
0.133027
-0.024413
-0.044898
0.086175
0.108401
-0.050193
0.025054
0.044066
-0.093330
-0.077268
0.156122
0.015063
0.092353
0.163127
-0.105537
-0.061701
0.051876
-0.109743
0.079016
0.041376
-0.057785
-0.062933
0.121871
0.126719
0.131005
-0.042308
-0.031053
0.036046
0.130565
0.152024
0.137433
-0.097907
0.160410
-0.092249
0.085032
0.005796
0.170956
0.178993
-0.124837
-0.013012
-0.045771
0.109181
0.045288
0.094569
0.100164
-0.031026
0.024443
-0.036996
-0.054979
0.119081
0.051575
0.145557
0.133507
0.064779
-0.001799
0.054667
0.011324
-0.005660
-0.021670
0.032458
0.115310
0.031037
-0.051303
-0.070149
-0.067631
0.126934
0.156070
-0.095201
0.158042
0.148092
0.070708
0.017370
0.020078
0.149960
0.104312
0.140967
0.038993
-0.077476
-0.090929
-0.088003
0.105924
0.013512
0.173238
0.178514
-0.023709
0.098649
0.046681
-0.106975
-0.075903
-0.071871
0.120054
0.058857
0.140604
-0.020134
0.008376
0.168529
-0.037447
-0.115367
-0.013186
0.053601
0.080255
-0.114288
-0.123513
0.074013
0.155466
-0.121560
-0.100852
0.177533
0.180253
0.064134
-0.002975
0.000562
0.070364
-0.008584
0.113087
-0.060172
-0.086878
-0.041065
-0.045417
0.005558
-0.015707
0.107962
0.084428
-0.060373
0.124373
0.070757
0.099244
0.144017
-0.065775
0.121452
0.014758
-0.020610
-0.000845
0.127804
0.047617
0.110458
0.145867
-0.081726
-0.021337
0.167292
-0.093670
0.059854
-0.057848
-0.050642
0.114634
0.007456
0.174884
-0.106785
-0.111135
-0.039654
0.103434
0.047163
0.139862
0.099367
0.094001
0.089499
0.125992
0.130844
0.036446
-0.057965
-0.036267
-0.085186
-0.034723
-0.102894
0.103258
0.095989
-0.014380
0.077677
-0.006402
0.120964
-0.043153
0.106827
-0.030719
-0.008310
0.083514
0.064682
0.057144
0.027478
0.022599
-0.063169
0.050971
-0.065509
0.002156
-0.002402
0.038687
0.033364
-0.018560
0.001861
0.111691
-0.046037
0.027580
-0.047889
0.042318
-0.053881
0.032791
-0.069468
-0.065450
-0.089099
0.152096
0.074587
-0.038611
0.022612
0.144460
0.049229
0.146037
-0.072224
0.133916
-0.095548
0.134946
-0.100351
0.158229
-0.085358
-0.081243
-0.076554
0.041346
-0.027335
0.017609
0.154025
0.159268
-0.046105
0.110009
0.062500
0.071418
-0.091163
0.088688
0.004837
-0.000397
-0.105231
-0.108283
0.081364
0.174927
0.175819
0.012568
0.020894
0.162651
-0.009785
0.167031
0.173783
-0.120286
0.065136
0.054556
0.176336
0.067763
-0.118872
0.114005
-0.117125
0.149510
0.154061
-0.073370
0.008124
0.081706
0.067896
-0.055424
0.119184
0.042538
0.096863
-0.026784
0.031226
0.140062
-0.052640
0.116013
-0.039897
0.085827
0.103900
0.070593
-0.055094
0.024231
-0.085267
-0.040040
-0.070862
0.111364
0.150195
-0.093964
0.143650
0.093342
0.014130
0.055460
-0.101520
0.110604
-0.046804
0.063520
0.003847
0.156802
0.082441
0.160822
0.171262
0.150144
-0.078757
-0.102370
0.172289
0.075085
0.068808
-0.112736
0.077618
-0.023106
0.115749
-0.051839
0.091668
0.025780
0.093771
-0.033188
-0.078691
-0.060577
0.128385
0.141889
-0.060942
0.002633
0.060882
-0.063530
0.011005
0.101227
0.123827
0.030192
0.038271
0.035173
0.134931
-0.044265
-0.087188
-0.059170
0.131157
-0.014575
-0.017575
0.148014
0.019130
-0.063180
-0.037763
-0.083233
-0.035896
0.138588
-0.067414
0.083004
0.142208
0.105380
-0.041543
0.129754
-0.041777
0.044681
0.038761
-0.089370
0.063515
0.010063
-0.096415
-0.028509
0.152350
-0.074341
0.106879
0.164931
0.137073
0.099601
-0.097995
0.169753
-0.024891
0.172394
0.089723
0.057193
-0.104183
-0.017830
-0.003971
-0.111235
0.009096
0.164680
0.050200
0.002244
0.104880
0.017945
-0.089489
-0.007501
-0.010948
-0.115753
-0.114096
0.153223
0.117464
0.034004
0.124386
0.108624
-0.044788
0.004581
0.051710
-0.047693
0.097017
-0.010956
-0.004612
0.117164
-0.053288
0.090434
0.025437
0.040216
-0.028460
0.050181
-0.033000
0.034553
-0.062593
-0.043974
-0.032864
0.107542
-0.019638
0.003140
0.082454
-0.053088
0.048338
-0.037158
0.146418
-0.090161
0.090707
-0.022542
0.038202
-0.097534
-0.091009
-0.099595
0.125265
-0.011426
0.158612
0.011503
-0.054943
0.114391
-0.050856
0.136424
0.018099
0.144180
0.100062
0.104191
-0.012077
0.060827
0.096937
0.006307
0.161492
0.072479
-0.004984
-0.109815
-0.108334
0.024155
0.148107
-0.029431
0.034578
-0.059842
0.046740
0.138121
0.112122
-0.048441
-0.060000
0.120407
0.123319
0.041397
0.056864
0.096767
-0.041656
-0.036319
0.128009
0.026711
-0.081498
-0.078426
-0.075222
-0.038199
0.129592
0.142052
-0.057096
0.021723
0.101831
0.052762
0.139980
0.066927
0.006527
0.106973
-0.043126
-0.016757
0.132786
-0.087287
-0.069181
0.131529
0.058151
-0.074738
-0.004341
0.016670
0.118155
0.107786
0.159119
-0.073212
0.168789
0.001264
-0.032168
0.156996
-0.091644
-0.019036
0.078755
-0.106941
0.066151
0.154537
-0.001373
0.011614
0.170016
-0.098911
0.051097
0.118384
0.114850
0.086083
0.060171
0.163897
-0.082783
0.168526
0.147315
0.080036
-0.083296
0.053931
-0.051381
-0.067029
0.094721
0.090629
0.036923
0.074071
0.031976
-0.025387
0.087545
0.028721
0.048414
0.093121
-0.080925
0.022746
-0.057432
0.134018
-0.057728
0.115154
-0.036819
-0.016005
0.093755
0.100821
0.063514
-0.051137
0.023441
-0.077966
0.126225
0.112206
0.051765
0.141447
-0.072358
0.153336
0.013178
-0.020242
0.059015
0.005550
-0.052317
-0.071683
-0.038497
0.053478
0.074204
0.041897
0.138570
0.144265
-0.049416
-0.081477
0.043733
0.048368
0.094285
0.090846
0.064450
0.083487
0.158120
0.105068
0.154820
-0.095011
0.076143
0.166235
0.084503
0.028653
0.108313
-0.044920
-0.012900
0.125748
0.014858
0.045352
0.029647
0.102433
0.105663
-0.038708
-0.042032
-0.034041
0.005315
-0.079923
-0.034928
-0.045483
0.018231
0.097251
0.111487
-0.048302
-0.064380
-0.085649
0.002912
-0.002381
0.056941
-0.000206
0.136283
-0.087844
0.080004
-0.007454
0.041072
0.151047
-0.092576
0.100524
-0.071137
-0.064589
-0.057927
0.166333
-0.105520
0.007954
-0.095214
-0.008547
0.162384
-0.026083
0.133510
-0.033387
0.165276
-0.103917
0.087102
-0.086861
0.148683
0.167635
0.069851
-0.015553
0.010680
0.053680
-0.100117
-0.076284
0.037244
0.021193
0.098251
0.121822
0.146132
-0.060826
0.071045
-0.021715
-0.026478
0.036275
0.089026
0.032029
0.031906
0.043024
-0.077632
-0.030454
-0.057374
0.121320
0.031220
-0.032577
0.006282
0.081692
0.070575
0.098245
0.052953
0.140541
-0.018208
-0.069952
-0.081958
-0.088748
0.009737
0.091659
0.015176
0.001930
0.152690
0.122513
-0.008002
-0.092620
-0.013211
-0.029658
-0.041676
0.008991
0.026129
0.088113
-0.093552
-0.023759
-0.005990
-0.101231
0.073511
0.162911
0.084495
0.142209
-0.058393
0.037653
0.021555
-0.048169
0.132702
0.118670
0.028484
0.129234
0.048992
0.095443
-0.074845
-0.034567
0.060284
-0.054727
-0.055816
0.136615
-0.059734
0.020942
0.077601
0.104076
-0.040377
0.056304
-0.000989
-0.079608
0.091832
0.050674
0.086376
0.134027
0.079473
0.066954
0.098927
-0.066072
-0.013576
-0.068367
0.015741
0.061746
0.160228
0.155747
0.108637
-0.041357
-0.083498
-0.049866
0.113062
0.104635
0.101443
0.160510
0.079826
-0.029684
0.067165
-0.033208
-0.102783
0.000275
0.128071
0.097823
0.008154
0.044710
-0.069794
-0.016726
0.161711
0.142776
0.140274
-0.084376
-0.080281
0.115755
0.054509
0.024878
0.027543
0.163962
0.150986
0.145146
-0.084133
0.137785
0.039931
-0.023408
-0.054752
0.122761
-0.034680
0.045045
-0.074056
-0.076347
0.035027
0.033323
0.039536
0.117928
-0.025920
0.109723
-0.046380
0.032722
-0.053163
0.112193
-0.012774
-0.030333
0.090846
0.078689
-0.049564
0.113141
0.136936
0.052272
0.128084
0.139256
-0.078375
0.149973
-0.021449
0.132021
-0.049677
-0.074262
-0.068121
0.062695
0.044647
0.073813
-0.014366
0.087701
0.062639
0.055447
0.004630
0.126724
-0.066097
0.077142
0.158098
0.154792
0.159470
0.105944
-0.003379
-0.098626
-0.077895
0.028883
0.020141
0.040102
0.107201
-0.044200
-0.011307
0.094500
0.096458
0.010881
-0.031465
0.120564
0.134440
0.138373
0.018051
0.076869
0.045189
0.083700
0.023664
0.123843
-0.055295
0.067202
0.017416
0.012266
0.007233
0.002410
0.124590
-0.077911
0.099787
0.102902
-0.039536
-0.079902
-0.036207
-0.045812
0.108682
-0.062141
-0.061381
-0.009635
-0.003552
0.080881
-0.096789
0.068132
-0.086408
-0.067943
-0.000651
-0.096019
0.070875
0.148890
0.102344
0.095193
0.008792
0.050175
-0.030960
-0.027287
-0.073880
0.156446
-0.071256
0.040351
0.088066
0.119223
-0.091112
0.057108
0.145131
0.055102
0.131831
-0.088461
0.129851
-0.054653
0.035080
-0.027233
-0.052513
-0.036422
-0.030659
-0.023088
-0.020307
0.037520
0.029571
0.024614
0.115182
0.106575
-0.043397
-0.044848
0.112270
-0.051964
-0.041790
0.006714
0.092595
0.063902
0.019873
-0.046688
0.055558
0.121911
0.103209
0.092555
-0.067689
0.008853
-0.028285
0.049721
-0.084922
0.040745
0.119407
0.124438
-0.006718
0.012301
0.080460
-0.052182
0.071216
0.095870
-0.019225
0.000990
-0.004308
-0.085989
-0.089598
0.081841
0.071813
0.155937
0.146873
0.134715
0.128990
-0.094504
0.034053
0.116629
-0.014969
-0.026811
-0.038894
0.036963
0.101895
0.104450
0.014910
0.021502
-0.010389
0.092781
-0.028726
0.129122
0.058692
0.002562
-0.051504
0.049189
0.089052
-0.003423
0.047472
-0.010835
0.101414
-0.037921
0.016588
-0.032104
0.059771
-0.072912
-0.024542
0.121584
-0.074273
-0.060030
-0.056129
0.115764
0.014861
-0.062930
-0.066325
0.084925
-0.080444
0.065318
-0.076027
0.157170
0.076595
0.143011
0.147584
0.109524
-0.047534
0.136366
0.043025
-0.028552
-0.032357
0.110208
-0.071586
0.098766
-0.017892
-0.056902
0.089011
0.120172
0.078152
0.128761
-0.081918
0.139301
-0.025001
0.057865
-0.006995
0.006317
0.074492
0.154433
0.135535
0.025608
0.152380
-0.076302
0.011837
0.125843
0.030276
-0.039522
0.041850
-0.069749
0.027315
0.035062
-0.046743
0.034127
-0.011899
-0.001112
0.075969
0.016300
-0.070779
0.120013
0.131169
-0.065439
0.137093
-0.029902
0.005433
-0.064576
-0.053173
0.089888
-0.019095
0.146586
0.024730
0.052185
0.116410
0.088024
0.081799
0.007176
0.025344
0.112607
-0.047229
0.110725
0.044145
0.063394
-0.068141
-0.079567
-0.054049
0.069025
0.152322
0.132650
-0.074717
0.096077
0.011417
0.090267
-0.024191
-0.020717
0.126631
0.085466
-0.026158
-0.043347
0.018534
0.015254
-0.006294
0.053299
0.060109
-0.049520
0.067429
0.094230
0.021821
0.046939
-0.028107
-0.070694
-0.033903
-0.036924
0.097303
0.099989
0.060480