# vtk DataFile Version 2.0
Test
ASCII
DATASET POLYDATA
POINTS 5510 float
0.000000 0.000000 0.000000
0.080000 0.000000 0.000000
0.080000 0.160000 0.000000
0.000000 0.160000 0.000000
0.035000 0.076250 0.000000
0.046500 0.083750 0.000000
0.002000 0.000000 0.000000
0.004000 0.000000 0.000000
0.006000 0.000000 0.000000
0.008000 0.000000 0.000000
0.010000 0.000000 0.000000
0.012000 0.000000 0.000000
0.014000 0.000000 0.000000
0.016000 0.000000 0.000000
0.018000 0.000000 0.000000
0.020000 0.000000 0.000000
0.022000 0.000000 0.000000
0.024000 0.000000 0.000000
0.026000 0.000000 0.000000
0.028000 0.000000 0.000000
0.030000 0.000000 0.000000
0.032000 0.000000 0.000000
0.034000 0.000000 0.000000
0.036000 0.000000 0.000000
0.038000 0.000000 0.000000
0.040000 0.000000 0.000000
0.042000 0.000000 0.000000
0.044000 0.000000 0.000000
0.046000 0.000000 0.000000
0.048000 0.000000 0.000000
0.050000 0.000000 0.000000
0.052000 0.000000 0.000000
0.054000 0.000000 0.000000
0.056000 0.000000 0.000000
0.058000 0.000000 0.000000
0.060000 0.000000 0.000000
0.062000 0.000000 0.000000
0.064000 0.000000 0.000000
0.066000 0.000000 0.000000
0.068000 0.000000 0.000000
0.070000 0.000000 0.000000
0.072000 0.000000 0.000000
0.074000 0.000000 0.000000
0.076000 0.000000 0.000000
0.078000 0.000000 0.000000
0.080000 0.002000 0.000000
0.080000 0.004000 0.000000
0.080000 0.006000 0.000000
0.080000 0.008000 0.000000
0.080000 0.010000 0.000000
0.080000 0.012000 0.000000
0.080000 0.014000 0.000000
0.080000 0.016000 0.000000
0.080000 0.018000 0.000000
0.080000 0.020000 0.000000
0.080000 0.022000 0.000000
0.080000 0.024000 0.000000
0.080000 0.026000 0.000000
0.080000 0.028000 0.000000
0.080000 0.030000 0.000000
0.080000 0.032000 0.000000
0.080000 0.034000 0.000000
0.080000 0.036000 0.000000
0.080000 0.038000 0.000000
0.080000 0.040000 0.000000
0.080000 0.042000 0.000000
0.080000 0.044000 0.000000
0.080000 0.046000 0.000000
0.080000 0.048000 0.000000
0.080000 0.050000 0.000000
0.080000 0.052000 0.000000
0.080000 0.054000 0.000000
0.080000 0.056000 0.000000
0.080000 0.058000 0.000000
0.080000 0.060000 0.000000
0.080000 0.062000 0.000000
0.080000 0.064000 0.000000
0.080000 0.066000 0.000000
0.080000 0.068000 0.000000
0.080000 0.070000 0.000000
0.080000 0.072000 0.000000
0.080000 0.074000 0.000000
0.080000 0.076000 0.000000
0.080000 0.078000 0.000000
0.080000 0.080000 0.000000
0.080000 0.082000 0.000000
0.080000 0.084000 0.000000
0.080000 0.086000 0.000000
0.080000 0.088000 0.000000
0.080000 0.090000 0.000000
0.080000 0.092000 0.000000
0.080000 0.094000 0.000000
0.080000 0.096000 0.000000
0.080000 0.098000 0.000000
0.080000 0.100000 0.000000
0.080000 0.102000 0.000000
0.080000 0.104000 0.000000
0.080000 0.106000 0.000000
0.080000 0.108000 0.000000
0.080000 0.110000 0.000000
0.080000 0.112000 0.000000
0.080000 0.114000 0.000000
0.080000 0.116000 0.000000
0.080000 0.118000 0.000000
0.080000 0.120000 0.000000
0.080000 0.122000 0.000000
0.080000 0.124000 0.000000
0.080000 0.126000 0.000000
0.080000 0.128000 0.000000
0.080000 0.130000 0.000000
0.080000 0.132000 0.000000
0.080000 0.134000 0.000000
0.080000 0.136000 0.000000
0.080000 0.138000 0.000000
0.080000 0.140000 0.000000
0.080000 0.142000 0.000000
0.080000 0.144000 0.000000
0.080000 0.146000 0.000000
0.080000 0.148000 0.000000
0.080000 0.150000 0.000000
0.080000 0.152000 0.000000
0.080000 0.154000 0.000000
0.080000 0.156000 0.000000
0.080000 0.158000 0.000000
0.078000 0.160000 0.000000
0.076000 0.160000 0.000000
0.074000 0.160000 0.000000
0.072000 0.160000 0.000000
0.070000 0.160000 0.000000
0.068000 0.160000 0.000000
0.066000 0.160000 0.000000
0.064000 0.160000 0.000000
0.062000 0.160000 0.000000
0.060000 0.160000 0.000000
0.058000 0.160000 0.000000
0.056000 0.160000 0.000000
0.054000 0.160000 0.000000
0.052000 0.160000 0.000000
0.050000 0.160000 0.000000
0.048000 0.160000 0.000000
0.046000 0.160000 0.000000
0.044000 0.160000 0.000000
0.042000 0.160000 0.000000
0.040000 0.160000 0.000000
0.038000 0.160000 0.000000
0.036000 0.160000 0.000000
0.034000 0.160000 0.000000
0.032000 0.160000 0.000000
0.030000 0.160000 0.000000
0.028000 0.160000 0.000000
0.026000 0.160000 0.000000
0.024000 0.160000 0.000000
0.022000 0.160000 0.000000
0.020000 0.160000 0.000000
0.018000 0.160000 0.000000
0.016000 0.160000 0.000000
0.014000 0.160000 0.000000
0.012000 0.160000 0.000000
0.010000 0.160000 0.000000
0.008000 0.160000 0.000000
0.006000 0.160000 0.000000
0.004000 0.160000 0.000000
0.002000 0.160000 0.000000
0.000000 0.158000 0.000000
0.000000 0.156000 0.000000
0.000000 0.154000 0.000000
0.000000 0.152000 0.000000
0.000000 0.150000 0.000000
0.000000 0.148000 0.000000
0.000000 0.146000 0.000000
0.000000 0.144000 0.000000
0.000000 0.142000 0.000000
0.000000 0.140000 0.000000
0.000000 0.138000 0.000000
0.000000 0.136000 0.000000
0.000000 0.134000 0.000000
0.000000 0.132000 0.000000
0.000000 0.130000 0.000000
0.000000 0.128000 0.000000
0.000000 0.126000 0.000000
0.000000 0.124000 0.000000
0.000000 0.122000 0.000000
0.000000 0.120000 0.000000
0.000000 0.118000 0.000000
0.000000 0.116000 0.000000
0.000000 0.114000 0.000000
0.000000 0.112000 0.000000
0.000000 0.110000 0.000000
0.000000 0.108000 0.000000
0.000000 0.106000 0.000000
0.000000 0.104000 0.000000
0.000000 0.102000 0.000000
0.000000 0.100000 0.000000
0.000000 0.098000 0.000000
0.000000 0.096000 0.000000
0.000000 0.094000 0.000000
0.000000 0.092000 0.000000
0.000000 0.090000 0.000000
0.000000 0.088000 0.000000
0.000000 0.086000 0.000000
0.000000 0.084000 0.000000
0.000000 0.082000 0.000000
0.000000 0.080000 0.000000
0.000000 0.078000 0.000000
0.000000 0.076000 0.000000
0.000000 0.074000 0.000000
0.000000 0.072000 0.000000
0.000000 0.070000 0.000000
0.000000 0.068000 0.000000
0.000000 0.066000 0.000000
0.000000 0.064000 0.000000
0.000000 0.062000 0.000000
0.000000 0.060000 0.000000
0.000000 0.058000 0.000000
0.000000 0.056000 0.000000
0.000000 0.054000 0.000000
0.000000 0.052000 0.000000
0.000000 0.050000 0.000000
0.000000 0.048000 0.000000
0.000000 0.046000 0.000000
0.000000 0.044000 0.000000
0.000000 0.042000 0.000000
0.000000 0.040000 0.000000
0.000000 0.038000 0.000000
0.000000 0.036000 0.000000
0.000000 0.034000 0.000000
0.000000 0.032000 0.000000
0.000000 0.030000 0.000000
0.000000 0.028000 0.000000
0.000000 0.026000 0.000000
0.000000 0.024000 0.000000
0.000000 0.022000 0.000000
0.000000 0.020000 0.000000
0.000000 0.018000 0.000000
0.000000 0.016000 0.000000
0.000000 0.014000 0.000000
0.000000 0.012000 0.000000
0.000000 0.010000 0.000000
0.000000 0.008000 0.000000
0.000000 0.006000 0.000000
0.000000 0.004000 0.000000
0.000000 0.002000 0.000000
0.035411 0.076518 0.000000
0.035821 0.076786 0.000000
0.036232 0.077054 0.000000
0.036643 0.077321 0.000000
0.037054 0.077589 0.000000
0.037464 0.077857 0.000000
0.037875 0.078125 0.000000
0.038286 0.078393 0.000000
0.038696 0.078661 0.000000
0.039107 0.078929 0.000000
0.039518 0.079196 0.000000
0.039929 0.079464 0.000000
0.040339 0.079732 0.000000
0.040750 0.080000 0.000000
0.041161 0.080268 0.000000
0.041571 0.080536 0.000000
0.041982 0.080804 0.000000
0.042393 0.081071 0.000000
0.042804 0.081339 0.000000
0.043214 0.081607 0.000000
0.043625 0.081875 0.000000
0.044036 0.082143 0.000000
0.044446 0.082411 0.000000
0.044857 0.082679 0.000000
0.045268 0.082946 0.000000
0.045679 0.083214 0.000000
0.046089 0.083482 0.000000
0.040000 0.002000 0.000000
0.040001 0.158005 0.000000
0.002000 0.116000 0.000000
0.078000 0.048000 0.000000
0.002000 0.106000 0.000000
0.078000 0.058000 0.000000
0.001986 0.042173 0.000000
0.078015 0.117826 0.000000
0.001985 0.094174 0.000000
0.001985 0.084174 0.000000
0.001914 0.056074 0.000000
0.002000 0.072000 0.000000
0.078015 0.065826 0.000000
0.078016 0.075826 0.000000
0.078000 0.088000 0.000000
0.078000 0.104000 0.000000
0.078003 0.029997 0.000000
0.001998 0.130002 0.000000
0.002000 0.032000 0.000000
0.078013 0.128003 0.000000
0.056000 0.158000 0.000000
0.026000 0.002000 0.000000
0.060000 0.002000 0.000000
0.020000 0.158000 0.000000
0.002000 0.020000 0.000000
0.078000 0.142000 0.000000
0.002000 0.146000 0.000000
0.078000 0.020000 0.000000
0.016000 0.002000 0.000000
0.068000 0.002000 0.000000
0.066000 0.158000 0.000000
0.002000 0.014000 0.000000
0.008000 0.158000 0.000000
0.010000 0.002000 0.000000
0.078000 0.148000 0.000000
0.078000 0.008000 0.000000
0.078005 0.037995 0.000000
0.051991 0.001990 0.000000
0.028000 0.158000 0.000000
0.002000 0.008000 0.000000
0.078000 0.094000 0.000000
0.078000 0.110000 0.000000
0.001983 0.066159 0.000000
0.002000 0.050000 0.000000
0.046000 0.158000 0.000000
0.078000 0.134000 0.000000
0.002000 0.140000 0.000000
0.006000 0.002000 0.000000
0.002000 0.154000 0.000000
0.074000 0.002000 0.000000
0.078000 0.152000 0.000000
0.074000 0.158000 0.000000
0.078000 0.080000 0.000000
0.078000 0.070000 0.000000
0.078000 0.122000 0.000000
0.002000 0.090000 0.000000
0.002000 0.080000 0.000000
0.002000 0.038000 0.000000
0.002000 0.102000 0.000000
0.002000 0.112000 0.000000
0.036000 0.002000 0.000000
0.078000 0.042000 0.000000
0.032000 0.002000 0.000000
0.047987 0.001989 0.000000
0.032008 0.158010 0.000000
0.002000 0.028000 0.000000
0.002000 0.126000 0.000000
0.060000 0.158000 0.000000
0.022000 0.002000 0.000000
0.002000 0.136000 0.000000
0.078000 0.024000 0.000000
0.012000 0.158000 0.000000
0.078000 0.158000 0.000000
0.001947 0.003947 0.000000
0.002000 0.158000 0.000000
0.078000 0.012000 0.000000
0.078000 0.096000 0.000000
0.078000 0.098000 0.000000
0.078000 0.082000 0.000000
0.078111 0.099889 0.000000
0.078035 0.083965 0.000000
0.078000 0.090000 0.000000
0.078000 0.106000 0.000000
0.078000 0.072000 0.000000
0.078000 0.112000 0.000000
0.078043 0.061976 0.000000
0.078000 0.114000 0.000000
0.002000 0.064000 0.000000
0.002000 0.062000 0.000000
0.002000 0.088000 0.000000
0.002000 0.078000 0.000000
0.002000 0.060000 0.000000
0.001966 0.076034 0.000000
0.002000 0.070000 0.000000
0.002000 0.054000 0.000000
0.001957 0.098024 0.000000
0.002000 0.048000 0.000000
0.002000 0.046000 0.000000
[...]
POINT_DATA 5510
SCALARS UX float 1
LOOKUP_TABLE default
0.017547
0.090907
0.000003
-0.071983
0.005881
0.014221
0.019384
0.021221
0.023058
0.024897
0.026737
0.028578
0.030421
0.032264
0.034109
0.035953
0.037798
0.039642
0.041485
0.043326
0.045164
0.046999
0.048831
0.050661
0.052488
0.054312
0.056134
0.057953
0.059770
0.061586
0.063401
0.065216
0.067031
0.068846
0.070663
0.072482
0.074303
0.076128
0.077957
0.079789
0.081625
0.083468
0.085318
0.087178
0.089038
0.089818
0.088742
0.087681
0.086620
0.085580
0.084540
0.083517
0.082495
0.081477
0.080464
0.079453
0.078453
0.077453
0.076456
0.075461
0.074465
0.073467
0.072464
0.071455
0.070436
0.069406
0.068378
0.067338
0.066288
0.065242
0.064173
0.063098
0.062015
0.060930
0.059840
0.058747
0.057654
0.056560
0.055463
0.054365
0.053266
0.052165
0.051063
0.049961
0.048857
0.047754
0.046650
0.045542
0.044428
0.043313
0.042160
0.040971
0.039752
0.038424
0.036892
0.035336
0.033720
0.032089
0.030552
0.029108
0.027767
0.026449
0.025275
0.024116
0.022992
0.021893
0.020798
0.019717
0.018636
0.017557
0.016480
0.015403
0.014326
0.013249
0.012175
0.011101
0.010028
0.008962
0.007897
0.006832
0.005774
0.004684
0.003497
0.002015
-0.000022
-0.001870
-0.003781
-0.005686
-0.007561
-0.009431
-0.011304
-0.013171
-0.015031
-0.016889
-0.018743
-0.020595
-0.022443
-0.024289
-0.026133
-0.027971
-0.029806
-0.031638
-0.033467
-0.035293
-0.037117
-0.038938
-0.040756
-0.042574
-0.044391
-0.046207
-0.048024
-0.049841
-0.051659
-0.053480
-0.055304
-0.057132
-0.058965
-0.060804
-0.062647
-0.064496
-0.066355
-0.068227
-0.070100
-0.070886
-0.069809
-0.068731
-0.067685
-0.066643
-0.065606
-0.064583
-0.063566
-0.062551
-0.061541
-0.060536
-0.059536
-0.058535
-0.057540
-0.056543
-0.055542
-0.054534
-0.053528
-0.052513
-0.051495
-0.050471
-0.049441
-0.048402
-0.047353
-0.046307
-0.045241
-0.044170
-0.043092
-0.042012
-0.040928
-0.039840
-0.038751
-0.037660
-0.036566
-0.035470
-0.034374
-0.033274
-0.032173
-0.031071
-0.029968
-0.028864
-0.027757
-0.026647
-0.025531
-0.024416
-0.023267
-0.022093
-0.020870
-0.019605
-0.018137
-0.016616
-0.015071
-0.013491
-0.011935
-0.010443
-0.008983
-0.007725
-0.006509
-0.005315
-0.004158
-0.003034
-0.001921
-0.000834
0.000250
0.001332
0.002414
0.003495
0.004575
0.005655
0.006735
0.007816
0.008897
0.009977
0.011058
0.012139
0.013220
0.014301
0.015382
0.016464
0.006192
0.006515
0.006962
0.007395
0.007740
0.007992
0.008263
0.008562
0.008763
0.009058
0.009312
0.009521
0.009798
0.010074
0.010397
0.010704
0.011023
0.011334
0.011623
0.011865
0.012106
0.012328
0.012593
0.012845
0.013153
0.013495
0.013813
0.053234
-0.034216
-0.047566
0.064430
-0.042347
0.059109
-0.003498
0.022315
-0.035958
-0.030471
-0.013103
-0.023724
0.054856
0.049362
0.042624
0.031554
0.073520
-0.054607
0.002109
0.016788
-0.019501
0.040396
0.071411
-0.052408
0.008577
0.009250
-0.062670
0.078546
0.031177
0.078711
-0.010214
0.011816
-0.063406
0.025652
0.006029
0.084742
0.069539
0.064143
-0.045136
0.015056
0.039127
0.027048
-0.020352
-0.008324
-0.028721
0.013552
-0.059615
0.021975
-0.066843
0.084226
0.003868
-0.002796
0.047048
0.052553
0.020012
-0.033659
-0.028158
-0.001139
-0.040198
-0.045509
0.049579
0.067514
0.045914
0.060508
-0.041499
0.004265
-0.052613
-0.015792
0.036709
-0.057599
0.076514
-0.059721
0.000374
0.017198
-0.068991
0.082651
0.037843
0.036390
0.045945
0.035021
0.044892
0.041488
0.029961
0.051453
0.025723
0.056986
0.024498
-0.018996
-0.017599
-0.032561
-0.027054
-0.016097
-0.025995
-0.022590
-0.011363
-0.038081
-0.006984
-0.005745
0.061266
0.066515
0.063382
-0.044460
-0.049598
0.018931
-0.000051
0.056878
-0.037862
-0.032386
0.071538
-0.026883
-0.025042
-0.051610
0.044079
0.067777
-0.048770
0.005343
0.015712
0.012475
0.006421
0.011400
-0.056598
-0.023198
0.075515
-0.061651
-0.013936
0.034865
0.075054
-0.056056
0.008176
0.080590
-0.064746
0.009656
0.012896
-0.008346
0.029334
-0.006491
0.002771
-0.067117
0.020070
0.018142
0.086861
0.082382
0.087939
-0.043675
0.062585
-0.031879
-0.026419
-0.021934
-0.014202
-0.006325
0.045315
0.040837
0.032965
0.050773
0.023897
-0.033117
-0.049722
0.014924
0.000707
0.044823
-0.022128
0.006115
0.009558
0.035623
-0.055670
0.074592
-0.014707
0.011497
0.030093
-0.060775
-0.007314
0.029434
0.064716
0.013655
0.001970
0.083145
0.043200
0.034519
0.037271
-0.024301
-0.015745
-0.018403
-0.003933
0.040488
0.043893
0.033435
0.048346
0.050419
0.028647
0.053844
0.023407
-0.021598
-0.031526
-0.024993
-0.034947
-0.014616
-0.029453
-0.009893
-0.004622
0.055901
-0.037000
0.058078
-0.039170
0.060243
0.021346
-0.041325
-0.002498
0.062378
-0.043456
-0.046672
0.065501
-0.048618
0.068548
-0.050626
0.055050
-0.036031
0.051402
-0.030550
0.058689
-0.039675
0.017886
0.001000
0.070543
0.047744
0.062324
-0.043314
-0.025788
0.065958
-0.046950
-0.053611
0.003178
0.014636
0.072526
0.007191
0.042238
0.011702
-0.021351
0.069592
-0.050587
0.007496
0.010328
-0.055600
0.074513
-0.058605
-0.017648
0.038553
-0.060632
0.077526
-0.012076
0.033020
-0.054230
0.073231
-0.057885
0.076880
0.007102
0.010736
-0.061562
0.079563
-0.063704
0.004956
0.081617
0.013976
0.027493
-0.065788
-0.004639
0.083688
0.001612
0.023813
0.016137
-0.065257
0.019055
0.080544
-0.001070
-0.066031
-0.067906
0.085795
0.084996
0.086077
-0.037642
0.056546
-0.012474
0.057616
0.031162
0.007961
-0.042276
0.064907
-0.049520
0.072159
0.079728
-0.056810
0.005248
0.068665
0.050388
-0.060478
-0.063906
0.038586
0.021585
-0.019696
0.054346
0.051944
-0.035446
-0.033035
0.048617
0.046456
-0.029723
-0.027546
0.058643
-0.039732
0.019346
0.002858
-0.038601
0.005035
0.070583
0.012789
-0.051693
0.041153
0.037466
0.031936
0.075806
-0.058719
-0.056680
0.026409
0.015814
-0.061812
0.077664
0.075607
-0.003681
0.000833
0.081817
0.082072
0.039666
0.041911
-0.020762
0.031199
-0.023005
0.022890
-0.012520
-0.007761
0.063667
0.049697
-0.030800
-0.002737
-0.000430
-0.044747
-0.046737
0.026357
0.027892
0.060532
0.061541
-0.041621
-0.042627
-0.035020
0.036009
0.044276
-0.048726
-0.017154
-0.025377
0.025147
0.066665
0.065686
-0.005170
0.001772
0.016015
0.061253
0.046708
-0.027608
0.054038
-0.029525
0.013867
-0.050721
-0.045893
-0.020290
0.042987
0.072575
0.073579
-0.053664
-0.054666
0.008478
0.068527
0.008258
0.010421
-0.023959
0.010635
0.033783
-0.031325
-0.016559
-0.053158
-0.010999
-0.012856
-0.009147
-0.059740
0.028251
0.079465
0.012575
0.014734
0.022731
0.081302
-0.005493
0.020893
0.083926
0.003078
-0.000306
-0.064963
0.017974
-0.064171
0.001395
0.063885
-0.040219
0.020818
-0.025821
-0.031364
-0.019242
-0.030105
0.050275
0.044786
0.037991
-0.046926
0.014192
-0.021047
0.045574
0.070665
0.008798
-0.051748
0.036381
-0.011791
0.012265
0.030856
-0.056813
0.016573
-0.005901
-0.010942
0.024750
-0.004514
0.040619
-0.021774
-0.001069
0.061994
0.034229
-0.015428
0.006879
0.003592
-0.048819
0.041905
0.027170
0.006325
-0.058886
0.001204
0.029169
0.036868
0.023352
-0.018020
0.047575
0.053102
-0.028680
-0.034202
0.055446
-0.036543
-0.045755
0.042560
0.032498
-0.013904
0.057637
-0.038728
-0.001671
-0.023654
0.020275
-0.047663
-0.010685
-0.008667
-0.028353
-0.033850
-0.040386
0.048196
-0.029296
0.067673
-0.040614
-0.003405
0.059523
0.063044
0.048510
0.052174
0.059399
0.018216
0.017126
0.069634
0.003940
0.059878
-0.018411
0.071588
-0.044084
-0.052676
0.007708
0.012035
-0.024707
0.039305
0.009330
-0.040985
-0.042983
0.066717
-0.047706
0.071676
0.073702
0.009020
-0.052752
-0.054767
-0.015478
-0.009946
0.010938
0.070343
-0.051339
-0.057698
0.032705
-0.036800
0.076633
0.014417
0.007403
-0.054981
0.073980
-0.008122
0.077633
0.078690
0.080228
0.024570
0.004166
-0.062854
0.080769
0.019811
-0.058640
0.081008
0.082866
0.016894
-0.001027
-0.001967
-0.063098
-0.062321
0.055818
0.026127
-0.038445
-0.016535
-0.010676
0.035531
-0.027436
-0.049858
0.010193
0.056553
0.068781
0.008707
-0.041210
0.063840
0.072908
-0.010740
-0.048450
0.031618
0.076807
0.055611
-0.053910
0.079160
-0.057568
0.030764
-0.036711
0.066772
0.006945
-0.009434
0.045524
-0.026863
-0.034538
-0.032102
0.053434
0.051009
0.049316
-0.050775
-0.017344
0.011170
0.038217
0.074734
0.005561
0.017651
-0.061246
-0.006941
0.047310
-0.028420
0.000343
0.023285
-0.020838
0.039398
0.022041
-0.038013
0.056890
0.059112
-0.012530
0.062914
-0.039344
-0.044977
-0.043873
-0.045981
0.043543
-0.024690
0.041306
0.015246
0.017613
-0.022432
0.047376
-0.037534
-0.035620
0.035443
-0.016568
0.049168
-0.030269
0.027569
0.002505
0.069662
0.064855
-0.004585
0.060179
0.019808
-0.049789
-0.047862
0.052914
-0.019218
-0.041927
0.010084
0.040068
0.013114
0.043721
-0.043027
0.005809
0.004674
0.060812
-0.002273
0.072685
0.065653
-0.022876
0.067727
-0.026526
-0.053754
-0.055788
0.009877
0.006638
0.010846
-0.050269
0.069274
0.013336
0.034542
0.076559
-0.013634
0.029011
-0.008922
0.015492
-0.044830
0.004475
0.002305
0.078391
0.078901
0.079951
0.023490
0.025331
0.018731
0.021650
-0.057849
-0.006315
-0.059934
-0.062036
-0.032053
-0.002772
0.000087
0.062076
0.054236
-0.026800
-0.022434
-0.001806
-0.010269
0.045705
0.041427
0.048119
-0.040172
0.062788
-0.047389
-0.018154
-0.009713
-0.053901
0.015173
-0.043362
0.003725
0.003200
0.040827
0.057333
0.048863
-0.029946
0.017334
0.027934
0.024250
-0.057015
-0.060179
-0.032780
0.034129
0.027189
0.038924
0.036351
-0.020141
-0.017575
-0.015272
0.060273
0.024353
-0.004185
0.067820
0.008036
0.043240
0.037139
0.070798
0.033457
0.019491
0.000446
-0.003544
-0.029208
-0.045102
-0.046967
-0.048890
0.032222
0.029371
-0.042336
0.021870
0.019325
-0.013816
0.052055
-0.033155
-0.037309
-0.035365
-0.035562
0.054459
0.058295
0.018748
0.016449
0.046630
-0.027718
-0.009119
-0.025651
-0.023624
0.004312
-0.034704
0.011248
0.013469
0.006545
-0.039385
-0.039286
0.000454
0.065823
0.062018
-0.016253
0.058369
0.009123
0.054695
0.011904
0.058131
0.069793
0.044473
-0.041182
-0.051862
-0.050860
0.007618
0.075768
-0.046634
0.067461
0.009778
0.005880
0.029775
0.072848
-0.014409
-0.012568
-0.021804
0.068679
-0.041965
-0.052085
0.074730
-0.054933
0.071088
0.013021
0.003396
0.077323
0.077044
0.077852
-0.007116
-0.055738
-0.001758
0.078100
0.022409
0.020570
-0.059402
-0.060981
0.051105
-0.024242
-0.008063
0.046181
-0.027283
0.004983
-0.035906
0.055612
-0.015973
-0.025543
0.033747
0.044326
-0.026379
0.009464
0.010524
-0.047031
-0.039114
0.065933
0.005127
0.032380
0.068204
-0.052031
-0.031882
0.013741
-0.052839
0.030778
0.016904
-0.031982
-0.034281
0.050880
0.053126
0.054994
-0.022554
-0.017027
0.014617
0.051845
0.063949
0.055487
-0.048981
0.067922
-0.045593
0.028699
0.001544
0.071836
0.075489
-0.059119
-0.011558
-0.025768
0.044619
0.018369
0.037710
0.040283
-0.018694
0.002091
-0.021258
-0.030635
0.049536
0.020748
0.061114
0.056086
0.025765
-0.007817
0.021639
-0.002909
-0.008864
-0.014887
0.005369
0.047676
0.012420
-0.028767
-0.036797
-0.036200
0.049913
0.065872
-0.047936
0.066832
0.060977
0.027579
-0.000589
0.007291
0.063010
0.042229
0.057332
0.008414
-0.040199
-0.045995
-0.043764
0.038972
0.004812
0.073895
0.075994
-0.013350
0.035290
0.011605
-0.052880
-0.038364
-0.036511
0.046277
0.016248
0.059029
-0.011526
0.002633
0.071820
-0.019976
-0.055970
-0.007908
0.014096
0.026090
-0.054667
-0.058335
0.023172
0.064587
-0.058065
-0.049197
0.075198
0.076259
0.018411
-0.002500
-0.000659
0.021331
-0.005319
0.042648
-0.031000
-0.044180
-0.023231
-0.025473
-0.005151
-0.012564
0.044007
0.033144
-0.033159
0.052056
0.027919
0.039879
0.060232
-0.034643
0.050660
-0.001256
-0.014384
-0.006884
0.050617
0.012329
0.041576
0.059932
-0.041719
-0.012308
0.071003
-0.046318
0.017011
-0.031765
-0.028522
0.047426
0.001891
0.074144
-0.051775
-0.054108
-0.022712
0.041833
0.018715
0.058474
0.039880
0.037389
0.035318
0.052652
0.054709
0.007347
-0.030110
-0.020984
-0.043309
-0.018841
-0.051002
0.037896
0.034213
-0.008691
0.025012
-0.004308
0.047026
-0.024599
0.043529
-0.018466
-0.009626
0.032552
0.025421
0.022539
0.003637
0.001745
-0.033984
0.020138
-0.034933
-0.006028
-0.007711
0.015734
0.006087
-0.013683
-0.006504
0.045995
-0.024362
0.010587
-0.027148
0.016867
-0.028157
0.012895
-0.035531
-0.033655
-0.045132
0.064018
0.029032
-0.020749
0.008394
0.059139
0.012653
0.061150
-0.037617
0.053627
-0.047987
0.056380
-0.049986
0.066917
-0.042725
-0.040903
-0.039441
0.009373
-0.015175
0.006224
0.064888
0.066393
-0.026226
0.045146
0.018092
0.022093
-0.046070
0.030536
0.000786
-0.001408
-0.051009
-0.053066
0.026859
0.073657
0.074942
0.004063
0.001163
0.068939
-0.006110
0.070020
0.073370
-0.057271
0.019173
0.014841
0.074428
0.020252
-0.056496
0.043404
-0.056207
0.061720
0.064958
-0.037334
-0.003859
0.031800
0.026602
-0.030727
0.049625
0.017303
0.038732
-0.016898
0.005546
0.058373
-0.029201
0.048102
-0.023090
0.033502
0.042159
0.027202
-0.028880
0.008818
-0.043346
-0.021622
-0.036285
0.042331
0.063110
-0.047127
0.058867
0.033136
0.004404
0.015550
-0.050181
0.045535
-0.026623
0.018851
0.000029
0.066068
0.027626
0.067135
0.072309
0.063083
-0.039874
-0.049950
0.073094
0.023932
0.021017
-0.054375
0.029903
-0.015382
0.047979
-0.029081
0.036301
0.003315
0.037244
-0.019569
-0.040380
-0.032490
0.053672
0.059305
-0.033078
-0.005613
0.023994
-0.033703
-0.002766
0.040767
0.051710
0.011741
0.015301
0.013929
0.054359
-0.023661
-0.044246
-0.030822
0.052380
-0.012017
-0.013189
0.062072
0.006568
-0.032711
-0.021755
-0.042400
-0.019601
0.056262
-0.035258
0.032180
0.058100
0.042924
-0.023979
0.053959
-0.023824
0.011092
0.008617
-0.045175
0.024690
0.002995
-0.048138
-0.015943
0.064088
-0.038496
0.039741
0.069964
0.057253
0.036040
-0.048127
0.072046
-0.014122
0.072586
0.031303
0.015921
-0.051217
-0.010493
-0.003247
-0.053598
0.002251
0.068956
0.013394
-0.000302
0.042554
-0.000004
-0.044524
-0.005079
-0.006889
-0.055435
-0.055157
0.063514
0.045205
0.006683
0.048818
0.044569
-0.025653
-0.005205
0.020252
-0.025327
0.038778
-0.010588
-0.008260
0.048670
-0.029771
0.035734
0.002911
0.016049
-0.017571
0.019943
-0.019449
0.007261
-0.032911
-0.025188
-0.019501
0.044100
-0.013974
-0.005171
0.031843
-0.028045
0.012957
-0.020373
0.061260
-0.045316
0.032060
-0.013080
0.014914
-0.048348
-0.045249
-0.048894
0.049526
-0.010704
0.066080
-0.002276
-0.030158
0.047358
-0.028463
0.056781
0.000372
0.060297
0.040243
0.038656
-0.007656
0.017748
0.034961
-0.004219
0.068118
0.022855
-0.003995
-0.053315
-0.052545
0.002787
0.062145
-0.017934
0.013446
-0.032308
0.018311
0.057497
0.046281
-0.027393
-0.031840
0.050080
0.051287
0.009727
0.022174
0.038653
-0.022552
-0.021223
0.053257
0.009932
-0.041581
-0.040112
-0.038622
-0.022193
0.051773
0.059299
-0.029948
0.007706
0.041130
0.014444
0.057059
0.025873
0.001163
0.043738
-0.024792
-0.012827
0.053427
-0.044259
-0.035968
0.054663
0.016652
-0.038059
-0.007986
0.005500
0.049054
0.040495
0.067087
-0.037710
0.071260
-0.001053
-0.017764
0.065319
-0.046152
-0.011274
0.025773
-0.052260
0.019927
0.065065
-0.002154
0.003325
0.071546
-0.049145
0.014106
0.045955
0.044130
0.029462
0.023459
0.069163
-0.041664
0.070766
0.060650
0.030875
-0.042432
0.021041
-0.027101
-0.034510
0.037676
0.035763
0.007914
0.028548
0.012268
-0.016288
0.034318
0.004585
0.018906
0.037057
-0.041403
0.001475
-0.031224
0.055575
-0.030520
0.047580
-0.021667
-0.012519
0.037239
0.040728
0.024327
-0.027220
0.008224
-0.039927
0.050238
0.043052
0.014724
0.057797
-0.037045
0.064236
0.003691
-0.012045
0.017345
0.000427
-0.028708
-0.036890
-0.021135
0.020613
0.028269
0.010221
0.057693
0.060309
-0.026292
-0.041558
0.017114
0.018691
0.033883
0.035850
0.019567
0.028393
0.066287
0.039395
0.064262
-0.047320
0.024692
0.069728
0.032829
0.004789
0.044471
-0.025574
-0.011279
0.052295
-0.000933
0.011705
0.011249
0.041561
0.043185
-0.022619
-0.024260
-0.020110
-0.004382
-0.040827
-0.020698
-0.024403
0.005899
0.038946
0.045954
-0.027066
-0.033625
-0.043400
-0.000686
-0.002906
0.021968
-0.006443
0.055202
-0.044339
0.030714
-0.009150
0.016082
0.062449
-0.046320
0.036786
-0.036814
-0.033465
-0.030996
0.070211
-0.051488
-0.003688
-0.047057
-0.005825
0.067886
-0.014882
0.055487
-0.018525
0.069441
-0.050704
0.030226
-0.043451
0.062244
0.070491
0.021776
-0.009466
0.002616
0.015166
-0.049385
-0.038819
0.008366
0.001607
0.039368
0.047745
0.061219
-0.031706
0.027119
-0.014815
-0.016725
0.014132
0.035016
0.012135
0.006208
0.016644
-0.039750
-0.018413
-0.030929
0.050441
0.006141
-0.019639
-0.003738
0.031468
0.026669
0.039559
0.020210
0.058481
-0.013409
-0.035995
-0.041621
-0.044510
0.001924
0.032817
-0.000516
-0.001412
0.063208
0.050672
-0.009270
-0.045988
-0.008425
-0.018125
-0.022689
-0.002936
0.009465
0.034558
-0.046529
-0.013842
-0.004735
-0.049671
0.023609
0.068389
0.029160
0.059381
-0.030647
0.008889
0.002084
-0.025808
0.054996
0.049093
0.010492
0.051776
0.013569
0.038056
-0.038411
-0.020598
0.023180
-0.029733
-0.029754
0.056784
-0.031367
0.007104
0.029645
0.042393
-0.023452
0.016236
-0.006559
-0.040701
0.036319
0.019542
0.033726
0.054171
0.030405
0.025558
0.039787
-0.034342
-0.011535
-0.035216
0.004808
0.018461
0.066856
0.065267
0.041222
-0.023804
-0.042461
-0.027653
0.046648
0.042720
0.037540
0.067331
0.026544
-0.016690
0.020677
-0.019843
-0.050436
-0.001795
0.052955
0.035690
0.001535
0.017780
-0.036016
-0.010235
0.067629
0.059423
0.058490
-0.042403
-0.040600
0.044874
0.015861
0.003445
0.004483
0.068676
0.063232
0.059578
-0.042553
0.056019
0.009479
-0.015494
-0.028932
0.048472
-0.019291
0.017395
-0.038019
-0.039146
0.013366
0.012655
0.015211
0.048858
-0.016505
0.045139
-0.026237
0.012224
-0.028265
0.046107
-0.011207
-0.018576
0.035894
0.030077
-0.026544
0.043808
0.056658
0.015283
0.051333
0.056729
-0.039881
0.062425
-0.012799
0.054668
-0.027260
-0.038177
-0.035190
0.019201
0.017033
0.027898
-0.009198
0.034379
0.023758
0.021161
-0.000265
0.052423
-0.034231
0.025436
0.065828
0.064489
0.066593
0.040134
-0.003643
-0.048627
-0.039564
0.010561
0.006528
0.015308
0.043911
-0.025015
-0.010602
0.037691
0.038665
-0.002285
-0.019001
0.049863
0.055785
0.057546
0.000656
0.029212
0.011943
0.032457
0.008164
0.049227
-0.029204
0.025416
0.005308
0.003026
0.000847
-0.005248
0.051545
-0.039847
0.040340
0.041882
-0.022950
-0.040728
-0.021392
-0.025660
0.044566
-0.032399
-0.032069
-0.006590
-0.007510
0.027325
-0.047784
0.021414
-0.043520
-0.035171
-0.002498
-0.047556
0.022532
0.061379
0.038292
0.034627
-0.002790
0.019131
-0.017460
-0.015626
-0.037770
0.065023
-0.036722
0.010000
0.030980
0.046659
-0.045505
0.016919
0.060408
0.016458
0.053162
-0.044183
0.053716
-0.029388
0.007848
-0.017059
-0.027947
-0.020231
-0.018724
-0.015365
-0.014255
0.014425
0.005637
0.003648
0.047476
0.043635
-0.024730
-0.024220
0.046001
-0.027547
-0.023659
-0.003350
0.036863
0.024030
0.006277
-0.025240
0.016997
0.048426
0.039024
0.033559
-0.034988
0.001290
-0.017640
0.018785
-0.042717
0.010514
0.049101
0.051205
-0.008667
-0.001330
0.030945
-0.027994
0.026733
0.038477
-0.013815
-0.002102
-0.004336
-0.043129
-0.044743
0.028079
0.023263
0.064793
0.060372
0.055743
0.053266
-0.046838
0.007633
0.045588
-0.012105
-0.016938
-0.022475
0.013989
0.041400
0.042550
-0.000361
0.002384
-0.010215
0.036845
-0.017814
0.053326
0.022353
-0.005010
-0.027973
0.013931
0.035040
-0.007345
0.018109
-0.007407
0.041152
-0.022202
0.004755
-0.019392
0.018002
-0.037531
-0.015959
0.050020
-0.038081
-0.031470
-0.029649
0.047601
0.004171
-0.032751
-0.034344
0.033068
-0.040776
0.020263
-0.038997
0.065546
0.029091
0.058521
0.061427
0.041962
-0.026340
0.056659
0.011114
-0.016375
-0.018260
0.045222
-0.036748
0.036458
-0.010992
-0.029904
0.031741
0.047373
0.026204
0.053148
-0.041342
0.057621
-0.014595
0.017598
-0.005468
0.000184
0.024353
0.064030
0.054949
0.009025
0.063445
-0.038978
-0.001330
0.050330
0.011144
-0.021763
0.015948
-0.035971
0.004746
0.013220
-0.025206
0.012695
-0.010860
-0.006326
0.028882
0.004525
-0.036372
0.047607
0.053944
-0.033967
0.055678
-0.017133
-0.000426
-0.033514
-0.028084
0.032480
-0.011746
0.060608
0.004020
0.015523
0.047604
0.034621
0.031622
-0.002991
0.008806
0.046020
-0.025851
0.042823
0.016653
0.019835
-0.035256
-0.040303
-0.028720
0.022124
0.062993
0.054878
-0.038112
0.035367
0.002425
0.035732
-0.015827
-0.014405
0.052196
0.033375
-0.016687
-0.023642
0.001157
0.000136
-0.008481
0.020174
0.022667
-0.026777
0.025320
0.037666
0.007159
0.017716