# vtk DataFile Version 2.0
Test
ASCII
DATASET POLYDATA
POINTS 5510 float
0.000000 0.000000 0.000000
0.080000 0.000000 0.000000
0.080000 0.160000 0.000000
0.000000 0.160000 0.000000
0.035000 0.076250 0.000000
0.046500 0.083750 0.000000
0.002000 0.000000 0.000000
0.004000 0.000000 0.000000
0.006000 0.000000 0.000000
0.008000 0.000000 0.000000
0.010000 0.000000 0.000000
0.012000 0.000000 0.000000
0.014000 0.000000 0.000000
0.016000 0.000000 0.000000
0.018000 0.000000 0.000000
0.020000 0.000000 0.000000
0.022000 0.000000 0.000000
0.024000 0.000000 0.000000
0.026000 0.000000 0.000000
0.028000 0.000000 0.000000
0.030000 0.000000 0.000000
0.032000 0.000000 0.000000
0.034000 0.000000 0.000000
0.036000 0.000000 0.000000
0.038000 0.000000 0.000000
0.040000 0.000000 0.000000
0.042000 0.000000 0.000000
0.044000 0.000000 0.000000
0.046000 0.000000 0.000000
0.048000 0.000000 0.000000
0.050000 0.000000 0.000000
0.052000 0.000000 0.000000
0.054000 0.000000 0.000000
0.056000 0.000000 0.000000
0.058000 0.000000 0.000000
0.060000 0.000000 0.000000
0.062000 0.000000 0.000000
0.064000 0.000000 0.000000
0.066000 0.000000 0.000000
0.068000 0.000000 0.000000
0.070000 0.000000 0.000000
0.072000 0.000000 0.000000
0.074000 0.000000 0.000000
0.076000 0.000000 0.000000
0.078000 0.000000 0.000000
0.080000 0.002000 0.000000
0.080000 0.004000 0.000000
0.080000 0.006000 0.000000
0.080000 0.008000 0.000000
0.080000 0.010000 0.000000
0.080000 0.012000 0.000000
0.080000 0.014000 0.000000
0.080000 0.016000 0.000000
0.080000 0.018000 0.000000
0.080000 0.020000 0.000000
0.080000 0.022000 0.000000
0.080000 0.024000 0.000000
0.080000 0.026000 0.000000
0.080000 0.028000 0.000000
0.080000 0.030000 0.000000
0.080000 0.032000 0.000000
0.080000 0.034000 0.000000
0.080000 0.036000 0.000000
0.080000 0.038000 0.000000
0.080000 0.040000 0.000000
0.080000 0.042000 0.000000
0.080000 0.044000 0.000000
0.080000 0.046000 0.000000
0.080000 0.048000 0.000000
0.080000 0.050000 0.000000
0.080000 0.052000 0.000000
0.080000 0.054000 0.000000
0.080000 0.056000 0.000000
0.080000 0.058000 0.000000
0.080000 0.060000 0.000000
0.080000 0.062000 0.000000
0.080000 0.064000 0.000000
0.080000 0.066000 0.000000
0.080000 0.068000 0.000000
0.080000 0.070000 0.000000
0.080000 0.072000 0.000000
0.080000 0.074000 0.000000
0.080000 0.076000 0.000000
0.080000 0.078000 0.000000
0.080000 0.080000 0.000000
0.080000 0.082000 0.000000
0.080000 0.084000 0.000000
0.080000 0.086000 0.000000
0.080000 0.088000 0.000000
0.080000 0.090000 0.000000
0.080000 0.092000 0.000000
0.080000 0.094000 0.000000
0.080000 0.096000 0.000000
0.080000 0.098000 0.000000
0.080000 0.100000 0.000000
0.080000 0.102000 0.000000
0.080000 0.104000 0.000000
0.080000 0.106000 0.000000
0.080000 0.108000 0.000000
0.080000 0.110000 0.000000
0.080000 0.112000 0.000000
0.080000 0.114000 0.000000
0.080000 0.116000 0.000000
0.080000 0.118000 0.000000
0.080000 0.120000 0.000000
0.080000 0.122000 0.000000
0.080000 0.124000 0.000000
0.080000 0.126000 0.000000
0.080000 0.128000 0.000000
0.080000 0.130000 0.000000
0.080000 0.132000 0.000000
0.080000 0.134000 0.000000
0.080000 0.136000 0.000000
0.080000 0.138000 0.000000
0.080000 0.140000 0.000000
0.080000 0.142000 0.000000
0.080000 0.144000 0.000000
0.080000 0.146000 0.000000
0.080000 0.148000 0.000000
0.080000 0.150000 0.000000
0.080000 0.152000 0.000000
0.080000 0.154000 0.000000
0.080000 0.156000 0.000000
0.080000 0.158000 0.000000
0.078000 0.160000 0.000000
0.076000 0.160000 0.000000
0.074000 0.160000 0.000000
0.072000 0.160000 0.000000
0.070000 0.160000 0.000000
0.068000 0.160000 0.000000
0.066000 0.160000 0.000000
0.064000 0.160000 0.000000
0.062000 0.160000 0.000000
0.060000 0.160000 0.000000
0.058000 0.160000 0.000000
0.056000 0.160000 0.000000
0.054000 0.160000 0.000000
0.052000 0.160000 0.000000
0.050000 0.160000 0.000000
0.048000 0.160000 0.000000
0.046000 0.160000 0.000000
0.044000 0.160000 0.000000
0.042000 0.160000 0.000000
0.040000 0.160000 0.000000
0.038000 0.160000 0.000000
0.036000 0.160000 0.000000
0.034000 0.160000 0.000000
0.032000 0.160000 0.000000
0.030000 0.160000 0.000000
0.028000 0.160000 0.000000
0.026000 0.160000 0.000000
0.024000 0.160000 0.000000
0.022000 0.160000 0.000000
0.020000 0.160000 0.000000
0.018000 0.160000 0.000000
0.016000 0.160000 0.000000
0.014000 0.160000 0.000000
0.012000 0.160000 0.000000
0.010000 0.160000 0.000000
0.008000 0.160000 0.000000
0.006000 0.160000 0.000000
0.004000 0.160000 0.000000
0.002000 0.160000 0.000000
0.000000 0.158000 0.000000
0.000000 0.156000 0.000000
0.000000 0.154000 0.000000
0.000000 0.152000 0.000000
0.000000 0.150000 0.000000
0.000000 0.148000 0.000000
0.000000 0.146000 0.000000
0.000000 0.144000 0.000000
0.000000 0.142000 0.000000
0.000000 0.140000 0.000000
0.000000 0.138000 0.000000
0.000000 0.136000 0.000000
0.000000 0.134000 0.000000
0.000000 0.132000 0.000000
0.000000 0.130000 0.000000
0.000000 0.128000 0.000000
0.000000 0.126000 0.000000
0.000000 0.124000 0.000000
0.000000 0.122000 0.000000
0.000000 0.120000 0.000000
0.000000 0.118000 0.000000
0.000000 0.116000 0.000000
0.000000 0.114000 0.000000
0.000000 0.112000 0.000000
0.000000 0.110000 0.000000
0.000000 0.108000 0.000000
0.000000 0.106000 0.000000
0.000000 0.104000 0.000000
0.000000 0.102000 0.000000
0.000000 0.100000 0.000000
0.000000 0.098000 0.000000
0.000000 0.096000 0.000000
0.000000 0.094000 0.000000
0.000000 0.092000 0.000000
0.000000 0.090000 0.000000
0.000000 0.088000 0.000000
0.000000 0.086000 0.000000
0.000000 0.084000 0.000000
0.000000 0.082000 0.000000
0.000000 0.080000 0.000000
0.000000 0.078000 0.000000
0.000000 0.076000 0.000000
0.000000 0.074000 0.000000
0.000000 0.072000 0.000000
0.000000 0.070000 0.000000
0.000000 0.068000 0.000000
0.000000 0.066000 0.000000
0.000000 0.064000 0.000000
0.000000 0.062000 0.000000
0.000000 0.060000 0.000000
0.000000 0.058000 0.000000
0.000000 0.056000 0.000000
0.000000 0.054000 0.000000
0.000000 0.052000 0.000000
0.000000 0.050000 0.000000
0.000000 0.048000 0.000000
0.000000 0.046000 0.000000
0.000000 0.044000 0.000000
0.000000 0.042000 0.000000
0.000000 0.040000 0.000000
0.000000 0.038000 0.000000
0.000000 0.036000 0.000000
0.000000 0.034000 0.000000
0.000000 0.032000 0.000000
0.000000 0.030000 0.000000
0.000000 0.028000 0.000000
0.000000 0.026000 0.000000
0.000000 0.024000 0.000000
0.000000 0.022000 0.000000
0.000000 0.020000 0.000000
0.000000 0.018000 0.000000
0.000000 0.016000 0.000000
0.000000 0.014000 0.000000
0.000000 0.012000 0.000000
0.000000 0.010000 0.000000
0.000000 0.008000 0.000000
0.000000 0.006000 0.000000
0.000000 0.004000 0.000000
0.000000 0.002000 0.000000
0.035411 0.076518 0.000000
0.035821 0.076786 0.000000
0.036232 0.077054 0.000000
0.036643 0.077321 0.000000
0.037054 0.077589 0.000000
0.037464 0.077857 0.000000
0.037875 0.078125 0.000000
0.038286 0.078393 0.000000
0.038696 0.078661 0.000000
0.039107 0.078929 0.000000
0.039518 0.079196 0.000000
0.039929 0.079464 0.000000
0.040339 0.079732 0.000000
0.040750 0.080000 0.000000
0.041161 0.080268 0.000000
0.041571 0.080536 0.000000
0.041982 0.080804 0.000000
0.042393 0.081071 0.000000
0.042804 0.081339 0.000000
0.043214 0.081607 0.000000
0.043625 0.081875 0.000000
0.044036 0.082143 0.000000
0.044446 0.082411 0.000000
0.044857 0.082679 0.000000
0.045268 0.082946 0.000000
0.045679 0.083214 0.000000
0.046089 0.083482 0.000000
0.040000 0.002000 0.000000
0.040001 0.158005 0.000000
0.002000 0.116000 0.000000
0.078000 0.048000 0.000000
0.002000 0.106000 0.000000
0.078000 0.058000 0.000000
0.001986 0.042173 0.000000
0.078015 0.117826 0.000000
0.001985 0.094174 0.000000
0.001985 0.084174 0.000000
0.001914 0.056074 0.000000
0.002000 0.072000 0.000000
0.078015 0.065826 0.000000
0.078016 0.075826 0.000000
0.078000 0.088000 0.000000
0.078000 0.104000 0.000000
0.078003 0.029997 0.000000
0.001998 0.130002 0.000000
0.002000 0.032000 0.000000
0.078013 0.128003 0.000000
0.056000 0.158000 0.000000
0.026000 0.002000 0.000000
0.060000 0.002000 0.000000
0.020000 0.158000 0.000000
0.002000 0.020000 0.000000
0.078000 0.142000 0.000000
0.002000 0.146000 0.000000
0.078000 0.020000 0.000000
0.016000 0.002000 0.000000
0.068000 0.002000 0.000000
0.066000 0.158000 0.000000
0.002000 0.014000 0.000000
0.008000 0.158000 0.000000
0.010000 0.002000 0.000000
0.078000 0.148000 0.000000
0.078000 0.008000 0.000000
0.078005 0.037995 0.000000
0.051991 0.001990 0.000000
0.028000 0.158000 0.000000
0.002000 0.008000 0.000000
0.078000 0.094000 0.000000
0.078000 0.110000 0.000000
0.001983 0.066159 0.000000
0.002000 0.050000 0.000000
0.046000 0.158000 0.000000
0.078000 0.134000 0.000000
0.002000 0.140000 0.000000
0.006000 0.002000 0.000000
0.002000 0.154000 0.000000
0.074000 0.002000 0.000000
0.078000 0.152000 0.000000
0.074000 0.158000 0.000000
0.078000 0.080000 0.000000
0.078000 0.070000 0.000000
0.078000 0.122000 0.000000
0.002000 0.090000 0.000000
0.002000 0.080000 0.000000
0.002000 0.038000 0.000000
0.002000 0.102000 0.000000
0.002000 0.112000 0.000000
0.036000 0.002000 0.000000
0.078000 0.042000 0.000000
0.032000 0.002000 0.000000
0.047987 0.001989 0.000000
0.032008 0.158010 0.000000
0.002000 0.028000 0.000000
0.002000 0.126000 0.000000
0.060000 0.158000 0.000000
0.022000 0.002000 0.000000
0.002000 0.136000 0.000000
0.078000 0.024000 0.000000
0.012000 0.158000 0.000000
0.078000 0.158000 0.000000
0.001947 0.003947 0.000000
0.002000 0.158000 0.000000
0.078000 0.012000 0.000000
0.078000 0.096000 0.000000
0.078000 0.098000 0.000000
0.078000 0.082000 0.000000
0.078111 0.099889 0.000000
0.078035 0.083965 0.000000
0.078000 0.090000 0.000000
0.078000 0.106000 0.000000
0.078000 0.072000 0.000000
0.078000 0.112000 0.000000
0.078043 0.061976 0.000000
0.078000 0.114000 0.000000
0.002000 0.064000 0.000000
0.002000 0.062000 0.000000
0.002000 0.088000 0.000000
0.002000 0.078000 0.000000
0.002000 0.060000 0.000000
0.001966 0.076034 0.000000
0.002000 0.070000 0.000000
0.002000 0.054000 0.000000
0.001957 0.098024 0.000000
0.002000 0.048000 0.000000
0.002000 0.046000 0.000000
[...]
POINT_DATA 5510
SCALARS UX float 1
LOOKUP_TABLE default
0.119236
0.256341
0.000007
-0.144998
0.053821
0.070278
0.122690
0.126129
0.129544
0.133000
0.136475
0.139954
0.143435
0.146911
0.150371
0.153800
0.157183
0.160485
0.163696
0.166811
0.169822
0.172738
0.175610
0.178445
0.181256
0.184057
0.186883
0.189766
0.192755
0.195851
0.199076
0.202441
0.205894
0.209471
0.213186
0.217045
0.221089
0.225112
0.229155
0.233151
0.237144
0.241099
0.244985
0.248788
0.252591
0.253362
0.250295
0.247194
0.244095
0.241070
0.238086
0.235521
0.233067
0.230722
0.228542
0.226449
0.224494
0.222576
0.220678
0.218702
0.216653
0.214506
0.212272
0.209969
0.207622
0.205260
0.202878
0.200491
0.198132
0.195733
0.193437
0.191200
0.189015
0.186847
0.184703
0.182563
0.180404
0.178221
0.176008
0.173745
0.171512
0.169171
0.166836
0.164512
0.162226
0.159972
0.157665
0.155230
0.152635
0.149794
0.146011
0.141932
0.137667
0.132539
0.125541
0.118309
0.110350
0.102178
0.093017
0.083759
0.075141
0.066436
0.060066
0.054177
0.049722
0.046579
0.043608
0.041493
0.039399
0.037298
0.035152
0.032978
0.030802
0.028579
0.026313
0.024036
0.021765
0.019446
0.017109
0.014745
0.012371
0.009866
0.007127
0.003769
-0.000062
-0.003352
-0.006905
-0.010432
-0.013871
-0.017306
-0.020768
-0.024198
-0.027597
-0.030968
-0.034308
-0.037634
-0.040951
-0.044264
-0.047587
-0.050931
-0.054308
-0.057715
-0.061173
-0.064686
-0.068240
-0.071855
-0.075534
-0.079275
-0.083048
-0.086874
-0.090755
-0.094690
-0.098681
-0.102733
-0.106872
-0.111073
-0.115330
-0.119598
-0.123850
-0.128109
-0.132356
-0.136579
-0.140797
-0.141731
-0.138437
-0.135137
-0.131899
-0.128735
-0.125630
-0.122644
-0.119799
-0.117028
-0.114363
-0.111791
-0.109318
-0.106883
-0.104540
-0.102163
-0.099727
-0.097196
-0.094705
-0.092130
-0.089539
-0.086908
-0.084271
-0.081623
-0.078999
-0.076339
-0.073817
-0.071413
-0.069145
-0.066978
-0.064938
-0.063033
-0.061126
-0.059234
-0.057410
-0.055597
-0.053769
-0.051946
-0.050093
-0.048173
-0.046116
-0.044184
-0.041991
-0.039448
-0.036609
-0.033799
-0.028853
-0.023126
-0.016430
-0.009048
0.000122
0.009252
0.018110
0.026584
0.033489
0.040098
0.046790
0.052058
0.057151
0.062165
0.066798
0.070968
0.074861
0.077592
0.080174
0.082636
0.085069
0.087438
0.089764
0.092130
0.094501
0.096911
0.099318
0.101749
0.104174
0.106628
0.109102
0.111578
0.114092
0.116632
0.054372
0.055043
0.055896
0.056740
0.057525
0.058220
0.058931
0.059662
0.060305
0.061043
0.061740
0.062389
0.063083
0.063780
0.064508
0.065212
0.065927
0.066515
0.067053
0.067522
0.067922
0.068227
0.068527
0.068786
0.069107
0.069465
0.069815
0.182127
-0.062232
-0.081259
0.194594
-0.068003
0.182870
0.067429
0.049407
-0.055186
-0.046065
0.024974
-0.033328
0.174474
0.163449
0.148501
0.102533
0.215293
-0.098539
0.084228
0.035998
-0.035294
0.161412
0.214341
-0.099792
0.098148
0.020609
-0.118657
0.224999
0.144439
0.230186
-0.018318
0.105269
-0.124906
0.133961
0.013623
0.240404
0.206712
0.200145
-0.084140
0.112588
0.136539
0.075757
-0.018463
0.046778
-0.051957
0.029564
-0.110461
0.127019
-0.131053
0.242043
0.008803
-0.004579
0.158692
0.169941
0.042495
-0.051261
-0.042264
0.076225
-0.063194
-0.075951
0.176462
0.201919
0.170689
0.193755
-0.076614
0.088923
-0.093879
-0.028581
0.154787
-0.105436
0.220950
-0.116416
0.000866
0.117501
-0.137596
0.234538
0.131717
0.125365
0.156398
0.118976
0.154000
0.144880
0.093753
0.167718
0.067217
0.178653
0.059978
-0.010911
-0.001918
-0.049457
-0.040343
0.007443
-0.038205
-0.029253
0.033040
-0.058986
0.052734
0.058097
0.187380
0.199549
0.192178
-0.073286
-0.086429
0.040163
0.079191
0.187814
-0.069311
-0.058759
0.211212
-0.048603
-0.045273
-0.091420
0.167697
0.207024
-0.091855
0.091203
0.033876
0.027365
0.093508
0.025125
-0.103102
-0.041952
0.219086
-0.115853
-0.025180
0.151362
0.222197
-0.107981
0.018304
0.229483
-0.124702
0.100495
0.107711
-0.014852
0.140953
-0.011422
0.006286
-0.133385
0.123459
0.119903
0.246651
0.238119
0.249725
-0.072966
0.191167
-0.047104
-0.038345
-0.028930
0.013854
0.052688
0.155224
0.143944
0.111502
0.166122
0.060823
-0.059801
-0.088129
0.032575
0.080616
0.168462
-0.039631
0.092774
0.021684
0.152333
-0.101669
0.217515
-0.026178
0.104167
0.142005
-0.114781
-0.012555
0.094375
0.196313
0.108873
0.005217
0.239046
0.150460
0.119134
0.131029
-0.034547
0.004378
-0.012273
0.063223
0.141345
0.151634
0.111578
0.161358
0.165622
0.085777
0.172501
0.054293
-0.024782
-0.047803
-0.036151
-0.053480
0.016282
-0.044415
0.039685
0.062835
0.176526
-0.057059
0.180810
-0.061096
0.185217
0.046119
-0.065653
0.071327
0.189874
-0.070725
-0.078922
0.197117
-0.083916
0.204369
-0.088976
0.184946
-0.065745
0.179296
-0.055340
0.190731
-0.072923
0.038123
0.081712
0.209013
0.173581
0.196883
-0.080360
-0.046250
0.203552
-0.087965
-0.096233
0.086568
0.031738
0.213302
0.095015
0.164599
0.026120
-0.038627
0.210620
-0.095794
0.095820
0.022876
-0.100810
0.217214
-0.107901
-0.031952
0.158138
-0.113110
0.222906
-0.021757
0.147915
-0.103842
0.218173
-0.112169
0.226179
0.015981
0.102893
-0.120667
0.227137
-0.121632
0.011236
0.231909
0.110132
0.137456
-0.127838
-0.008000
0.237304
0.003645
0.130477
0.115060
-0.129149
0.121022
0.234159
-0.001502
-0.130168
-0.134324
0.243509
0.242900
0.245925
-0.058012
0.177474
0.019392
0.188759
0.105795
0.096547
-0.077791
0.201330
-0.093036
0.215697
0.228425
-0.109174
0.012493
0.205760
0.177309
-0.117536
-0.123788
0.135726
0.048707
-0.018597
0.173077
0.168407
-0.053508
-0.049191
0.161877
0.157559
-0.043618
-0.040168
0.181960
-0.062815
0.041725
0.085794
-0.070436
0.090495
0.209843
0.028321
-0.092634
0.162244
0.155697
0.145475
0.223392
-0.109261
-0.104075
0.135010
0.113673
-0.117696
0.223724
0.219447
-0.005851
0.002649
0.233786
0.236042
0.139841
0.147143
-0.024108
0.102873
-0.031808
0.055039
0.023946
0.046366
0.193717
0.164003
-0.045362
0.068536
0.077242
-0.075677
-0.080791
0.075926
0.085334
0.186297
0.188682
-0.067610
-0.070219
-0.063425
0.125650
0.152947
-0.085742
-0.004334
-0.036471
0.068454
0.201144
0.198760
0.057802
0.083307
0.034721
0.194838
0.171543
-0.049562
0.183023
-0.053083
0.030478
-0.090434
-0.085297
-0.036315
0.165389
0.213703
0.215603
-0.097058
-0.099337
0.019431
0.208325
0.097244
0.101838
-0.042935
0.023915
0.148930
-0.056434
-0.029561
-0.101024
-0.019362
-0.022785
-0.015932
-0.111945
0.138511
0.231252
0.106479
0.111245
0.128026
0.235158
-0.009201
0.124516
0.239806
0.007725
0.000038
-0.126956
0.118537
-0.125967
0.081455
0.195675
-0.065540
0.048164
-0.036217
-0.045459
-0.019891
-0.053821
0.164768
0.154124
0.135425
-0.082589
0.031436
-0.037263
0.169121
0.210237
0.020495
-0.093349
0.153221
-0.020426
0.105548
0.143068
-0.105453
0.114839
0.051477
0.028011
0.070339
-0.007087
0.144320
-0.028774
0.072616
0.190789
0.119978
0.001911
0.094267
0.087144
-0.086856
0.162962
0.136126
0.014842
-0.110933
0.004173
0.095795
0.130925
0.061652
-0.013614
0.159804
0.170640
-0.041925
-0.051241
0.175245
-0.055702
-0.078332
0.149303
0.112282
0.011068
0.179754
-0.060435
0.072778
-0.032466
0.044328
-0.083131
0.032977
0.041754
-0.050577
-0.060882
-0.073980
0.160743
-0.041775
0.203515
-0.065062
0.062451
0.183967
0.197969
0.174377
0.180093
0.191692
0.039042
0.036881
0.207865
0.088151
0.185683
-0.032926
0.211806
-0.081518
-0.094836
0.018229
0.027134
-0.043900
0.158999
0.099511
-0.067702
-0.072752
0.204777
-0.089138
0.212182
0.216117
0.098733
-0.095629
-0.100379
-0.027164
-0.017039
0.024904
0.211980
-0.097007
-0.106621
0.146510
-0.066890
0.221510
0.110144
0.017148
-0.105070
0.219486
-0.013698
0.227316
0.225953
0.232240
0.131523
0.010132
-0.120687
0.231025
0.122053
-0.113311
0.233087
0.236715
0.116104
-0.000870
-0.002830
-0.122823
-0.121756
0.185848
0.078921
-0.062667
-0.009119
0.025254
0.127388
-0.048538
-0.089728
0.023787
0.186730
0.206833
0.097831
-0.075296
0.199344
0.217060
-0.018132
-0.090360
0.144073
0.222620
0.175596
-0.102286
0.229431
-0.110417
0.106255
-0.056624
0.202373
0.017064
0.035332
0.155598
-0.038017
-0.051650
-0.046788
0.170963
0.166168
0.175151
-0.091170
-0.030559
0.103232
0.156518
0.218190
0.013691
0.117220
-0.118668
0.046504
0.159048
-0.040397
0.078135
0.065251
-0.026207
0.140482
0.054148
-0.059841
0.178482
0.183747
0.014946
0.193215
-0.063288
-0.077840
-0.075050
-0.080369
0.151551
-0.034310
0.146260
0.033516
0.038259
-0.030081
0.172052
-0.067985
-0.064267
0.125296
-0.005572
0.162588
-0.043428
0.087299
0.084522
0.208302
0.198016
0.057147
0.192830
0.044464
-0.088991
-0.084730
0.180853
-0.033958
-0.070206
0.100945
0.159784
0.029293
0.166034
-0.078994
0.091992
0.089550
0.188018
0.067453
0.214123
0.202743
-0.040576
0.204403
-0.047220
-0.097959
-0.102867
0.022725
0.015975
0.102335
-0.094280
0.209807
0.107812
0.149877
0.224606
-0.023800
0.139603
-0.014830
0.112479
-0.082716
0.011355
0.006638
0.228426
0.227595
0.230275
0.129104
0.132632
0.119617
0.125579
-0.108160
-0.010393
-0.113797
-0.119741
-0.057464
-0.003991
0.001660
0.192516
0.172991
-0.036684
-0.029386
0.065847
0.023318
0.155579
0.146835
0.172642
-0.072934
0.197472
-0.087821
-0.031594
-0.015925
-0.099227
0.111463
-0.075188
0.010246
0.085094
0.160457
0.180463
0.161663
-0.042362
0.116090
0.137239
0.130259
-0.107126
-0.115685
-0.058535
0.121589
0.087860
0.140003
0.130557
-0.024610
-0.014443
-0.001805
0.187802
0.072012
0.055611
0.204922
0.019336
0.150811
0.154025
0.210841
0.147427
0.120793
0.003108
-0.005093
-0.051821
-0.079237
-0.083321
-0.087550
0.112748
0.099603
-0.072680
0.057416
0.044752
0.007309
0.168195
-0.048784
-0.059684
-0.054622
-0.053927
0.173105
0.181801
0.041161
0.035851
0.157271
-0.038158
0.032723
-0.045243
-0.041526
0.088019
-0.062214
0.025938
0.030376
0.093148
-0.071642
-0.065051
0.075653
0.200262
0.196043
-0.028142
0.189743
0.021586
0.183708
0.104573
0.182595
0.208838
0.166613
-0.069900
-0.094346
-0.092014
0.095486
0.220330
-0.086498
0.206234
0.100101
0.014820
0.140671
0.214941
-0.024797
-0.021453
-0.038213
0.206340
-0.076547
-0.098267
0.220814
-0.101787
0.213422
0.106919
0.009024
0.225763
0.224213
0.225047
-0.011552
-0.106339
-0.001829
0.226763
0.126722
0.123172
-0.114513
-0.116722
0.177969
-0.032513
0.041466
0.156866
-0.038456
0.088248
-0.057773
0.177468
-0.008687
-0.033803
0.121690
0.152490
-0.046228
0.022773
0.101180
-0.084028
-0.070595
0.201473
0.013727
0.144986
0.207759
-0.095654
-0.056560
0.108105
-0.099561
0.108047
0.037247
-0.046487
-0.051855
0.165617
0.170454
0.174878
-0.039174
-0.029112
0.032617
0.178684
0.196855
0.184678
-0.088481
0.205581
-0.084028
0.138300
0.005534
0.214842
0.222100
-0.112768
0.016517
-0.034938
0.153464
0.041497
0.135989
0.144095
-0.019526
0.082032
-0.027003
-0.043665
0.162901
0.050930
0.190098
0.177431
0.080225
0.038892
0.059194
0.060718
0.029752
-0.002793
0.090528
0.159283
0.028286
-0.040100
-0.060188
-0.056933
0.175549
0.200962
-0.085437
0.202928
0.194174
0.093022
0.071314
0.018271
0.194724
0.148751
0.187802
0.096515
-0.067464
-0.081209
-0.080227
0.157245
0.012566
0.217140
0.221769
-0.022468
0.150731
0.103525
-0.096759
-0.069344
-0.065710
0.169612
0.113759
0.184909
-0.019183
0.007897
0.212896
-0.034893
-0.104426
-0.012679
0.109186
0.133763
-0.103562
-0.111628
0.127910
0.200830
-0.109905
-0.091688
0.220844
0.223247
0.118435
-0.002833
0.000653
0.124363
-0.008286
0.163554
-0.055179
-0.077163
-0.030758
-0.034773
0.051083
0.010703
0.152334
0.117116
-0.049166
0.168096
0.092366
0.142815
0.189189
-0.056008
0.165366
0.064420
-0.002605
0.035165
0.176170
0.104325
0.161011
0.192340
-0.072304
-0.020202
0.211895
-0.085325
0.115057
-0.046953
-0.039387
0.158520
0.006821
0.218528
-0.096965
-0.100721
-0.028906
0.147730
0.044540
0.184671
0.143309
0.135848
0.127554
0.170053
0.175145
0.094088
-0.053200
-0.025836
-0.075849
-0.032404
-0.093207
0.154707
0.148258
-0.013750
0.131415
-0.006170
0.170169
-0.032149
0.150994
-0.019557
0.023189
0.116631
0.081455
0.065006
0.084752
0.077941
-0.052661
0.051659
-0.055188
0.042390
0.035274
0.034833
0.091053
0.004252
0.044907
0.155631
-0.042510
0.025045
-0.036678
0.038363
-0.049532
0.029638
-0.063561
-0.059938
-0.079815
0.197485
0.100112
-0.035877
0.020564
0.190909
0.105757
0.191296
-0.062429
0.181597
-0.086202
0.179554
-0.090814
0.203511
-0.077878
-0.074176
-0.066962
0.098680
-0.025761
0.016036
0.198900
0.204267
-0.034931
0.154019
0.117368
0.125572
-0.081880
0.141658
0.004432
-0.000401
-0.095577
-0.098157
0.134890
0.218431
0.219408
0.011468
0.074785
0.207673
-0.009434
0.211294
0.217500
-0.108809
0.119688
0.110439
0.219741
0.122021
-0.107582
0.164103
-0.106039
0.195633
0.199448
-0.067080
0.052789
0.113105
0.087718
-0.044359
0.163052
0.038348
0.140002
-0.013127
0.087823
0.185722
-0.041918
0.160082
-0.028820
0.122091
0.147963
0.093438
-0.050600
0.021957
-0.076440
-0.037090
-0.064820
0.161509
0.196043
-0.085047
0.190490
0.145776
0.012749
0.111459
-0.092122
0.154546
-0.035672
0.118581
0.003359
0.202424
0.135932
0.205824
0.215305
0.195512
-0.071944
-0.093057
0.216271
0.129071
0.123246
-0.102193
0.106213
-0.007597
0.159631
-0.040633
0.132086
0.081026
0.136092
-0.022628
-0.069165
-0.050491
0.172560
0.186909
-0.050253
0.040920
0.073326
-0.053645
0.058073
0.145426
0.167810
0.027360
0.034350
0.031679
0.182488
-0.040871
-0.077882
-0.054274
0.179134
0.011064
0.004161
0.193335
0.017313
-0.057889
-0.027188
-0.073867
-0.033373
0.185762
-0.057827
0.116583
0.189033
0.149383
-0.030399
0.174618
-0.030885
0.101609
0.095857
-0.080572
0.079970
0.009193
-0.087377
-0.026729
0.198161
-0.064664
0.157884
0.209768
0.181832
0.151477
-0.089171
0.214061
-0.023451
0.216216
0.142546
0.112733
-0.094550
-0.016965
-0.003861
-0.100889
0.008160
0.209294
0.106684
0.002048
0.149124
0.069978
-0.081584
-0.007241
-0.010518
-0.104851
-0.103353
0.198980
0.167107
0.090886
0.173169
0.152572
-0.033617
0.047083
0.054143
-0.043941
0.140436
0.018138
0.029301
0.161024
-0.042114
0.129703
0.081871
0.036121
-0.015991
0.049470
-0.022564
0.090481
-0.053215
-0.033001
-0.022144
0.151555
-0.002414
0.040026
0.116593
-0.048759
0.104664
-0.034413
0.192703
-0.081722
0.143282
-0.021188
0.034268
-0.088601
-0.082953
-0.090603
0.173801
0.015839
0.203977
0.056192
-0.044428
0.158395
-0.039950
0.181691
0.067959
0.189969
0.144129
0.155277
-0.011527
0.116206
0.148950
0.046690
0.206742
0.126733
-0.004872
-0.099600
-0.098329
0.077975
0.193963
-0.018210
0.031079
-0.049529
0.044574
0.183624
0.156075
-0.037377
-0.050475
0.164570
0.167724
0.098436
0.065860
0.140342
-0.038467
-0.025427
0.172708
0.024190
-0.072559
-0.069334
-0.066007
-0.027190
0.177695
0.187782
-0.052375
0.019678
0.145909
0.109051
0.187147
0.086617
0.005810
0.150935
-0.031977
0.003875
0.180587
-0.078488
-0.059735
0.176603
0.113843
-0.068319
0.028223
0.015067
0.162310
0.158398
0.204581
-0.063935
0.213161
0.000991
-0.030024
0.202379
-0.082803
-0.017972
0.132518
-0.097034
0.120898
0.200276
-0.001439
0.010454
0.214151
-0.089714
0.107286
0.167665
0.164552
0.139260
0.073021
0.208889
-0.075568
0.212746
0.193813
0.110792
-0.074421
0.059350
-0.047255
-0.061360
0.137764
0.131283
0.093850
0.099782
0.028828
-0.011713
0.125530
0.084564
0.047890
0.133313
-0.071409
0.079781
-0.047067
0.180069
-0.048635
0.159552
-0.025700
0.003654
0.136809
0.144774
0.081109
-0.046951
0.021236
-0.069429
0.174596
0.161959
0.107462
0.188625
-0.066163
0.199373
0.011847
-0.018948
0.114665
0.004841
-0.042165
-0.062771
-0.035537
0.060086
0.100566
0.098390
0.184726
0.190558
-0.045446
-0.073123
0.040490
0.048827
0.146409
0.132202
0.119567
0.136857
0.203756
0.155729
0.200574
-0.086276
0.130153
0.210787
0.120718
0.083571
0.152394
-0.034090
0.012168
0.170332
0.062214
0.101762
0.026801
0.146386
0.149653
-0.027598
-0.030986
-0.023234
0.043626
-0.070901
-0.023862
-0.041903
0.016487
0.141048
0.155676
-0.037718
-0.055158
-0.077337
0.002416
-0.002458
0.067574
0.034694
0.183777
-0.079493
0.111637
0.022839
0.037233
0.197180
-0.084005
0.152088
-0.061782
-0.059142
-0.048254
0.211026
-0.095825
0.050258
-0.086715
-0.008227
0.207349
-0.024414
0.178748
-0.031017
0.210051
-0.094434
0.140094
-0.079232
0.194927
0.212091
0.124388
-0.014757
0.009552
0.109718
-0.090959
-0.069708
0.093397
0.073258
0.142117
0.170713
0.191966
-0.055743
0.094854
-0.006523
-0.013833
0.032543
0.128313
0.028816
0.087323
0.039970
-0.068418
-0.019482
-0.047420
0.165600
0.085803
-0.021471
0.044250
0.116325
0.094895
0.142129
0.060868
0.187253
-0.001211
-0.063974
-0.074119
-0.080626
0.008715
0.143867
0.060655
0.001504
0.198794
0.167498
0.021020
-0.084388
-0.012497
-0.018619
-0.038401
0.049363
0.023646
0.127780
-0.085073
-0.022161
-0.005829
-0.092044
0.127774
0.207995
0.137634
0.188483
-0.053508
0.092951
0.072028
-0.044271
0.178450
0.163287
0.025733
0.177360
0.104736
0.138946
-0.066091
-0.023487
0.074839
-0.044731
-0.046571
0.182730
-0.050746
0.018966
0.106944
0.148045
-0.029285
0.112184
0.032814
-0.071180
0.134072
0.053993
0.124407
0.181800
0.111662
0.087558
0.142819
-0.056959
0.009172
-0.062556
0.014202
0.117136
0.205526
0.201605
0.158830
-0.030617
-0.075184
-0.039554
0.157374
0.148767
0.152598
0.205886
0.133538
-0.027676
0.121994
-0.022186
-0.093371
-0.000010
0.173633
0.149475
0.007232
0.041230
-0.060815
-0.015726
0.206902
0.189479
0.186504
-0.076996
-0.073311
0.165107
0.110123
0.077349
0.081439
0.208840
0.197149
0.191991
-0.076246
0.185270
0.096194
-0.009697
-0.050215
0.171422
-0.032078
0.042814
-0.065154
-0.067691
0.031353
0.029891
0.035795
0.162306
-0.013513
0.153839
-0.035636
0.029244
-0.044378
0.156872
0.009179
-0.019260
0.133274
0.111511
-0.045471
0.162554
0.184059
0.107360
0.176355
0.186735
-0.070986
0.196397
-0.019910
0.178520
-0.039901
-0.066171
-0.059518
0.117901
0.043398
0.100621
-0.013451
0.127876
0.080771
0.066550
0.003998
0.172055
-0.060484
0.131079
0.203706
0.200807
0.204954
0.156169
-0.003405
-0.089698
-0.071151
0.026010
0.018264
0.036662
0.151506
-0.033793
0.014252
0.138041
0.140217
0.053218
-0.020453
0.165378
0.181014
0.185066
0.065935
0.106487
0.100985
0.120534
0.021443
0.172372
-0.046573
0.088793
0.015778
0.011046
0.006403
0.038118
0.169712
-0.070029
0.143738
0.146982
-0.028685
-0.072065
-0.025166
-0.035644
0.153116
-0.056901
-0.052493
-0.009202
0.028498
0.134434
-0.088110
0.122900
-0.078424
-0.058905
-0.000882
-0.087330
0.125391
0.195376
0.153040
0.146902
0.048326
0.054852
-0.028709
-0.025374
-0.067526
0.202157
-0.062867
0.095825
0.140758
0.168208
-0.082825
0.112633
0.191784
0.110164
0.179862
-0.080660
0.175577
-0.045152
0.090054
-0.015647
-0.048135
-0.033572
-0.019528
-0.009892
-0.005145
0.033685
0.083136
0.075786
0.159869
0.150772
-0.032787
-0.041268
0.157325
-0.043541
-0.031790
0.044703
0.136080
0.084397
0.018025
-0.042797
0.109995
0.170611
0.153465
0.144301
-0.061902
0.007969
-0.017124
0.056068
-0.077235
0.095463
0.164842
0.170494
0.022366
0.054133
0.115325
-0.043111
0.097042
0.139742
-0.004365
0.000690
-0.004228
-0.078433
-0.081563
0.135116
0.126174
0.201831
0.193668
0.181820
0.175891
-0.086043
0.088341
0.165713
0.004012
-0.015397
-0.028419
0.033239
0.146165
0.148991
0.058873
0.070595
0.014710
0.135936
-0.017526
0.175636
0.073348
0.038134
-0.041951
0.104396
0.130398
0.028240
0.048946
-0.010234
0.145427
-0.026960
0.015058
-0.021094
0.115172
-0.064662
-0.012381
0.167209
-0.066873
-0.054952
-0.051411
0.160803
0.013434
-0.054132
-0.057651
0.123167
-0.073001
0.120326
-0.068059
0.202930
0.107270
0.190166
0.194145
0.159323
-0.037615
0.183016
0.098600
-0.026390
-0.029858
0.154794
-0.065433
0.149963
-0.016666
-0.048255
0.141283
0.168975
0.131891
0.175035
-0.074775
0.186406
-0.023152
0.112878
-0.006728
0.005626
0.128646
0.200451
0.183304
0.023145
0.198619
-0.068927
0.052960
0.174331
0.027152
-0.036359
0.039022
-0.061221
0.079892
0.031351
-0.042918
0.030504
0.009228
0.031696
0.107619
0.014801
-0.063835
0.168885
0.178689
-0.059832
0.184837
-0.027494
0.004893
-0.056291
-0.044822
0.141658
-0.017632
0.193388
0.075021
0.106740
0.162324
0.129571
0.118367
0.045179
0.022843
0.158062
-0.037942
0.160202
0.044157
0.118262
-0.060159
-0.072641
-0.049467
0.123583
0.198625
0.179708
-0.067765
0.147303
0.010330
0.133169
-0.012477
-0.007134
0.173515
0.124977
-0.014820
-0.039770
0.065372
0.058688
0.021998
0.064317
0.077666
-0.040452
0.090542
0.137939
0.019756
0.049926
-0.017084
-0.063073
-0.022998
-0.026348
0.141292
0.144200
0.115443
-0.010991
-0.007566
0.003295
-0.046038
0.132467
0.156620