# vtk DataFile Version 2.0
Test
ASCII
DATASET POLYDATA
POINTS 5510 float
0.000000 0.000000 0.000000
0.080000 0.000000 0.000000
0.080000 0.160000 0.000000
0.000000 0.160000 0.000000
0.035000 0.076250 0.000000
0.046500 0.083750 0.000000
0.002000 0.000000 0.000000
0.004000 0.000000 0.000000
0.006000 0.000000 0.000000
0.008000 0.000000 0.000000
0.010000 0.000000 0.000000
0.012000 0.000000 0.000000
0.014000 0.000000 0.000000
0.016000 0.000000 0.000000
0.018000 0.000000 0.000000
0.020000 0.000000 0.000000
0.022000 0.000000 0.000000
0.024000 0.000000 0.000000
0.026000 0.000000 0.000000
0.028000 0.000000 0.000000
0.030000 0.000000 0.000000
0.032000 0.000000 0.000000
0.034000 0.000000 0.000000
0.036000 0.000000 0.000000
0.038000 0.000000 0.000000
0.040000 0.000000 0.000000
0.042000 0.000000 0.000000
0.044000 0.000000 0.000000
0.046000 0.000000 0.000000
0.048000 0.000000 0.000000
0.050000 0.000000 0.000000
0.052000 0.000000 0.000000
0.054000 0.000000 0.000000
0.056000 0.000000 0.000000
0.058000 0.000000 0.000000
0.060000 0.000000 0.000000
0.062000 0.000000 0.000000
0.064000 0.000000 0.000000
0.066000 0.000000 0.000000
0.068000 0.000000 0.000000
0.070000 0.000000 0.000000
0.072000 0.000000 0.000000
0.074000 0.000000 0.000000
0.076000 0.000000 0.000000
0.078000 0.000000 0.000000
0.080000 0.002000 0.000000
0.080000 0.004000 0.000000
0.080000 0.006000 0.000000
0.080000 0.008000 0.000000
0.080000 0.010000 0.000000
0.080000 0.012000 0.000000
0.080000 0.014000 0.000000
0.080000 0.016000 0.000000
0.080000 0.018000 0.000000
0.080000 0.020000 0.000000
0.080000 0.022000 0.000000
0.080000 0.024000 0.000000
0.080000 0.026000 0.000000
0.080000 0.028000 0.000000
0.080000 0.030000 0.000000
0.080000 0.032000 0.000000
0.080000 0.034000 0.000000
0.080000 0.036000 0.000000
0.080000 0.038000 0.000000
0.080000 0.040000 0.000000
0.080000 0.042000 0.000000
0.080000 0.044000 0.000000
0.080000 0.046000 0.000000
0.080000 0.048000 0.000000
0.080000 0.050000 0.000000
0.080000 0.052000 0.000000
0.080000 0.054000 0.000000
0.080000 0.056000 0.000000
0.080000 0.058000 0.000000
0.080000 0.060000 0.000000
0.080000 0.062000 0.000000
0.080000 0.064000 0.000000
0.080000 0.066000 0.000000
0.080000 0.068000 0.000000
0.080000 0.070000 0.000000
0.080000 0.072000 0.000000
0.080000 0.074000 0.000000
0.080000 0.076000 0.000000
0.080000 0.078000 0.000000
0.080000 0.080000 0.000000
0.080000 0.082000 0.000000
0.080000 0.084000 0.000000
0.080000 0.086000 0.000000
0.080000 0.088000 0.000000
0.080000 0.090000 0.000000
0.080000 0.092000 0.000000
0.080000 0.094000 0.000000
0.080000 0.096000 0.000000
0.080000 0.098000 0.000000
0.080000 0.100000 0.000000
0.080000 0.102000 0.000000
0.080000 0.104000 0.000000
0.080000 0.106000 0.000000
0.080000 0.108000 0.000000
0.080000 0.110000 0.000000
0.080000 0.112000 0.000000
0.080000 0.114000 0.000000
0.080000 0.116000 0.000000
0.080000 0.118000 0.000000
0.080000 0.120000 0.000000
0.080000 0.122000 0.000000
0.080000 0.124000 0.000000
0.080000 0.126000 0.000000
0.080000 0.128000 0.000000
0.080000 0.130000 0.000000
0.080000 0.132000 0.000000
0.080000 0.134000 0.000000
0.080000 0.136000 0.000000
0.080000 0.138000 0.000000
0.080000 0.140000 0.000000
0.080000 0.142000 0.000000
0.080000 0.144000 0.000000
0.080000 0.146000 0.000000
0.080000 0.148000 0.000000
0.080000 0.150000 0.000000
0.080000 0.152000 0.000000
0.080000 0.154000 0.000000
0.080000 0.156000 0.000000
0.080000 0.158000 0.000000
0.078000 0.160000 0.000000
0.076000 0.160000 0.000000
0.074000 0.160000 0.000000
0.072000 0.160000 0.000000
0.070000 0.160000 0.000000
0.068000 0.160000 0.000000
0.066000 0.160000 0.000000
0.064000 0.160000 0.000000
0.062000 0.160000 0.000000
0.060000 0.160000 0.000000
0.058000 0.160000 0.000000
0.056000 0.160000 0.000000
0.054000 0.160000 0.000000
0.052000 0.160000 0.000000
0.050000 0.160000 0.000000
0.048000 0.160000 0.000000
0.046000 0.160000 0.000000
0.044000 0.160000 0.000000
0.042000 0.160000 0.000000
0.040000 0.160000 0.000000
0.038000 0.160000 0.000000
0.036000 0.160000 0.000000
0.034000 0.160000 0.000000
0.032000 0.160000 0.000000
0.030000 0.160000 0.000000
0.028000 0.160000 0.000000
0.026000 0.160000 0.000000
0.024000 0.160000 0.000000
0.022000 0.160000 0.000000
0.020000 0.160000 0.000000
0.018000 0.160000 0.000000
0.016000 0.160000 0.000000
0.014000 0.160000 0.000000
0.012000 0.160000 0.000000
0.010000 0.160000 0.000000
0.008000 0.160000 0.000000
0.006000 0.160000 0.000000
0.004000 0.160000 0.000000
0.002000 0.160000 0.000000
0.000000 0.158000 0.000000
0.000000 0.156000 0.000000
0.000000 0.154000 0.000000
0.000000 0.152000 0.000000
0.000000 0.150000 0.000000
0.000000 0.148000 0.000000
0.000000 0.146000 0.000000
0.000000 0.144000 0.000000
0.000000 0.142000 0.000000
0.000000 0.140000 0.000000
0.000000 0.138000 0.000000
0.000000 0.136000 0.000000
0.000000 0.134000 0.000000
0.000000 0.132000 0.000000
0.000000 0.130000 0.000000
0.000000 0.128000 0.000000
0.000000 0.126000 0.000000
0.000000 0.124000 0.000000
0.000000 0.122000 0.000000
0.000000 0.120000 0.000000
0.000000 0.118000 0.000000
0.000000 0.116000 0.000000
0.000000 0.114000 0.000000
0.000000 0.112000 0.000000
0.000000 0.110000 0.000000
0.000000 0.108000 0.000000
0.000000 0.106000 0.000000
0.000000 0.104000 0.000000
0.000000 0.102000 0.000000
0.000000 0.100000 0.000000
0.000000 0.098000 0.000000
0.000000 0.096000 0.000000
0.000000 0.094000 0.000000
0.000000 0.092000 0.000000
0.000000 0.090000 0.000000
0.000000 0.088000 0.000000
0.000000 0.086000 0.000000
0.000000 0.084000 0.000000
0.000000 0.082000 0.000000
0.000000 0.080000 0.000000
0.000000 0.078000 0.000000
0.000000 0.076000 0.000000
0.000000 0.074000 0.000000
0.000000 0.072000 0.000000
0.000000 0.070000 0.000000
0.000000 0.068000 0.000000
0.000000 0.066000 0.000000
0.000000 0.064000 0.000000
0.000000 0.062000 0.000000
0.000000 0.060000 0.000000
0.000000 0.058000 0.000000
0.000000 0.056000 0.000000
0.000000 0.054000 0.000000
0.000000 0.052000 0.000000
0.000000 0.050000 0.000000
0.000000 0.048000 0.000000
0.000000 0.046000 0.000000
0.000000 0.044000 0.000000
0.000000 0.042000 0.000000
0.000000 0.040000 0.000000
0.000000 0.038000 0.000000
0.000000 0.036000 0.000000
0.000000 0.034000 0.000000
0.000000 0.032000 0.000000
0.000000 0.030000 0.000000
0.000000 0.028000 0.000000
0.000000 0.026000 0.000000
0.000000 0.024000 0.000000
0.000000 0.022000 0.000000
0.000000 0.020000 0.000000
0.000000 0.018000 0.000000
0.000000 0.016000 0.000000
0.000000 0.014000 0.000000
0.000000 0.012000 0.000000
0.000000 0.010000 0.000000
0.000000 0.008000 0.000000
0.000000 0.006000 0.000000
0.000000 0.004000 0.000000
0.000000 0.002000 0.000000
0.035411 0.076518 0.000000
0.035821 0.076786 0.000000
0.036232 0.077054 0.000000
0.036643 0.077321 0.000000
0.037054 0.077589 0.000000
0.037464 0.077857 0.000000
0.037875 0.078125 0.000000
0.038286 0.078393 0.000000
0.038696 0.078661 0.000000
0.039107 0.078929 0.000000
0.039518 0.079196 0.000000
0.039929 0.079464 0.000000
0.040339 0.079732 0.000000
0.040750 0.080000 0.000000
0.041161 0.080268 0.000000
0.041571 0.080536 0.000000
0.041982 0.080804 0.000000
0.042393 0.081071 0.000000
0.042804 0.081339 0.000000
0.043214 0.081607 0.000000
0.043625 0.081875 0.000000
0.044036 0.082143 0.000000
0.044446 0.082411 0.000000
0.044857 0.082679 0.000000
0.045268 0.082946 0.000000
0.045679 0.083214 0.000000
0.046089 0.083482 0.000000
0.040000 0.002000 0.000000
0.040001 0.158005 0.000000
0.002000 0.116000 0.000000
0.078000 0.048000 0.000000
0.002000 0.106000 0.000000
0.078000 0.058000 0.000000
0.001986 0.042173 0.000000
0.078015 0.117826 0.000000
0.001985 0.094174 0.000000
0.001985 0.084174 0.000000
0.001914 0.056074 0.000000
0.002000 0.072000 0.000000
0.078015 0.065826 0.000000
0.078016 0.075826 0.000000
0.078000 0.088000 0.000000
0.078000 0.104000 0.000000
0.078003 0.029997 0.000000
0.001998 0.130002 0.000000
0.002000 0.032000 0.000000
0.078013 0.128003 0.000000
0.056000 0.158000 0.000000
0.026000 0.002000 0.000000
0.060000 0.002000 0.000000
0.020000 0.158000 0.000000
0.002000 0.020000 0.000000
0.078000 0.142000 0.000000
0.002000 0.146000 0.000000
0.078000 0.020000 0.000000
0.016000 0.002000 0.000000
0.068000 0.002000 0.000000
0.066000 0.158000 0.000000
0.002000 0.014000 0.000000
0.008000 0.158000 0.000000
0.010000 0.002000 0.000000
0.078000 0.148000 0.000000
0.078000 0.008000 0.000000
0.078005 0.037995 0.000000
0.051991 0.001990 0.000000
0.028000 0.158000 0.000000
0.002000 0.008000 0.000000
0.078000 0.094000 0.000000
0.078000 0.110000 0.000000
0.001983 0.066159 0.000000
0.002000 0.050000 0.000000
0.046000 0.158000 0.000000
0.078000 0.134000 0.000000
0.002000 0.140000 0.000000
0.006000 0.002000 0.000000
0.002000 0.154000 0.000000
0.074000 0.002000 0.000000
0.078000 0.152000 0.000000
0.074000 0.158000 0.000000
0.078000 0.080000 0.000000
0.078000 0.070000 0.000000
0.078000 0.122000 0.000000
0.002000 0.090000 0.000000
0.002000 0.080000 0.000000
0.002000 0.038000 0.000000
0.002000 0.102000 0.000000
0.002000 0.112000 0.000000
0.036000 0.002000 0.000000
0.078000 0.042000 0.000000
0.032000 0.002000 0.000000
0.047987 0.001989 0.000000
0.032008 0.158010 0.000000
0.002000 0.028000 0.000000
0.002000 0.126000 0.000000
0.060000 0.158000 0.000000
0.022000 0.002000 0.000000
0.002000 0.136000 0.000000
0.078000 0.024000 0.000000
0.012000 0.158000 0.000000
0.078000 0.158000 0.000000
0.001947 0.003947 0.000000
0.002000 0.158000 0.000000
0.078000 0.012000 0.000000
0.078000 0.096000 0.000000
0.078000 0.098000 0.000000
0.078000 0.082000 0.000000
0.078111 0.099889 0.000000
0.078035 0.083965 0.000000
0.078000 0.090000 0.000000
0.078000 0.106000 0.000000
0.078000 0.072000 0.000000
0.078000 0.112000 0.000000
0.078043 0.061976 0.000000
0.078000 0.114000 0.000000
0.002000 0.064000 0.000000
0.002000 0.062000 0.000000
0.002000 0.088000 0.000000
0.002000 0.078000 0.000000
0.002000 0.060000 0.000000
0.001966 0.076034 0.000000
0.002000 0.070000 0.000000
0.002000 0.054000 0.000000
0.001957 0.098024 0.000000
0.002000 0.048000 0.000000
0.002000 0.046000 0.000000
[...]
POINT_DATA 5510
SCALARS UX float 1
LOOKUP_TABLE default
0.066238
0.218726
0.000008
-0.161064
0.022731
0.042133
0.069668
0.073222
0.076826
0.080524
0.084239
0.087958
0.091672
0.095389
0.099101
0.102811
0.106522
0.110230
0.113935
0.117637
0.121335
0.125032
0.128728
0.132425
0.136126
0.139832
0.143545
0.147265
0.150995
0.154736
0.158490
0.162260
0.166037
0.169834
0.173664
0.177543
0.181499
0.185478
0.189506
0.193553
0.197645
0.201783
0.205969
0.210207
0.214451
0.215679
0.212721
0.209893
0.207051
0.204447
0.201841
0.199546
0.197269
0.195049
0.192885
0.190762
0.188735
0.186727
0.184724
0.182684
0.180590
0.178440
0.176232
0.173970
0.171655
0.169297
0.166964
0.164618
0.162260
0.159913
0.157535
0.155156
0.152785
0.150422
0.148063
0.145702
0.143346
0.140990
0.138627
0.136258
0.133896
0.131522
0.129149
0.126774
0.124386
0.122016
0.119625
0.117231
0.114836
0.112461
0.110063
0.107632
0.105149
0.102085
0.096869
0.091349
0.084914
0.078257
0.072103
0.066859
0.062529
0.058428
0.055569
0.052832
0.050310
0.047930
0.045560
0.043227
0.040883
0.038535
0.036171
0.033796
0.031420
0.029023
0.026612
0.024198
0.021788
0.019353
0.016910
0.014454
0.012000
0.009470
0.006783
0.003724
-0.000066
-0.003343
-0.006940
-0.010631
-0.014276
-0.017957
-0.021742
-0.025527
-0.029311
-0.033130
-0.036945
-0.040751
-0.044560
-0.048382
-0.052199
-0.056065
-0.059958
-0.063867
-0.067815
-0.071801
-0.075809
-0.079858
-0.083951
-0.088087
-0.092239
-0.096424
-0.100642
-0.104896
-0.109189
-0.113536
-0.117967
-0.122481
-0.127083
-0.131735
-0.136416
-0.141177
-0.146035
-0.151013
-0.156004
-0.157395
-0.153898
-0.150357
-0.147185
-0.144087
-0.141060
-0.138218
-0.135503
-0.132834
-0.130250
-0.127729
-0.125261
-0.122847
-0.120420
-0.117964
-0.115472
-0.112937
-0.110452
-0.107988
-0.105536
-0.103090
-0.100676
-0.098263
-0.095881
-0.093525
-0.091195
-0.088871
-0.086556
-0.084248
-0.081939
-0.079625
-0.077304
-0.074977
-0.072638
-0.070285
-0.067941
-0.065582
-0.063225
-0.060867
-0.058497
-0.056144
-0.053765
-0.051382
-0.048993
-0.046631
-0.044214
-0.041765
-0.039159
-0.036312
-0.031656
-0.026437
-0.020841
-0.014803
-0.008352
-0.002389
0.003213
0.006869
0.010145
0.013229
0.016060
0.018662
0.021214
0.023619
0.026034
0.028461
0.030905
0.033356
0.035846
0.038360
0.040876
0.043409
0.045954
0.048511
0.051068
0.053642
0.056218
0.058788
0.061334
0.063844
0.023364
0.024047
0.024965
0.025850
0.026601
0.027204
0.027836
0.028516
0.029038
0.029732
0.030362
0.030917
0.031583
0.032258
0.033006
0.033737
0.034509
0.035235
0.035941
0.036622
0.037272
0.037866
0.038527
0.039164
0.039879
0.040629
0.041313
0.137133
-0.068876
-0.096916
0.158337
-0.085303
0.146540
0.016650
0.049493
-0.071628
-0.059959
-0.015935
-0.045631
0.137394
0.125664
0.111291
0.078725
0.178064
-0.113490
0.029455
0.037506
-0.037973
0.111244
0.174738
-0.110322
0.044344
0.020804
-0.133062
0.188194
0.092708
0.190617
-0.019105
0.051978
-0.137620
0.081604
0.013475
0.202629
0.169760
0.159507
-0.093317
0.059674
0.104081
0.062024
-0.038563
0.003084
-0.057112
0.030407
-0.125246
0.074315
-0.145270
0.202903
0.008505
-0.004734
0.120738
0.132474
0.044479
-0.066734
-0.055062
0.022187
-0.080668
-0.092258
0.129736
0.165267
0.122344
0.151996
-0.085016
0.034333
-0.108772
-0.030352
0.103830
-0.120371
0.183957
-0.128263
0.000800
0.064752
-0.152206
0.197354
0.101287
0.096927
0.118384
0.092023
0.116124
0.108921
0.072357
0.130124
0.057901
0.141958
0.054624
-0.035609
-0.031636
-0.064396
-0.052718
-0.026762
-0.050450
-0.043248
-0.009044
-0.076145
0.007432
0.010853
0.151264
0.163005
0.155987
-0.089936
-0.101614
0.042148
0.024622
0.144551
-0.076869
-0.064918
0.174024
-0.053247
-0.049409
-0.106361
0.118651
0.167079
-0.101741
0.036806
0.035146
0.028021
0.039314
0.025619
-0.118059
-0.045583
0.181997
-0.130407
-0.026587
0.100126
0.182596
-0.119131
0.018376
0.192632
-0.138964
0.046879
0.054544
-0.015387
0.089006
-0.011767
0.005981
-0.147235
0.070657
0.067064
0.208314
0.198764
0.211317
-0.088661
0.154440
-0.063219
-0.051719
-0.042279
-0.022139
0.007814
0.117213
0.107796
0.086307
0.128745
0.054071
-0.065985
-0.102273
0.034064
0.025588
0.119656
-0.042876
0.037800
0.022211
0.101164
-0.115535
0.179318
-0.027699
0.050383
0.090066
-0.128115
-0.013007
0.072546
0.159167
0.055489
0.004975
0.199900
0.112752
0.092248
0.100387
-0.047248
-0.027429
-0.034872
0.014461
0.106852
0.113993
0.086239
0.123496
0.127918
0.067356
0.135231
0.052000
-0.041165
-0.062193
-0.048314
-0.069471
-0.021514
-0.057796
-0.003019
0.013824
0.139629
-0.073843
0.144308
-0.078467
0.149012
0.047352
-0.083085
0.019062
0.153736
-0.087719
-0.094868
0.160729
-0.099321
0.167579
-0.104023
0.140828
-0.072852
0.133425
-0.061003
0.148261
-0.080911
0.039882
0.026974
0.171926
0.126036
0.155740
-0.089155
-0.050474
0.163288
-0.097506
-0.111147
0.031870
0.032788
0.176059
0.040295
0.114947
0.026987
-0.041777
0.170890
-0.106008
0.041820
0.023217
-0.115791
0.180026
-0.122775
-0.034161
0.107538
-0.127789
0.186026
-0.022835
0.096418
-0.114681
0.178625
-0.123650
0.186576
0.015934
0.049428
-0.132930
0.190352
-0.135944
0.011004
0.194923
0.057108
0.085299
-0.142031
-0.008213
0.199837
0.003400
0.077932
0.062233
-0.142386
0.068247
0.194670
-0.001660
-0.143649
-0.148618
0.205392
0.204054
0.207084
-0.075485
0.141057
-0.017900
0.145585
0.081561
0.041311
-0.086196
0.160596
-0.102917
0.175870
0.190469
-0.120371
0.012484
0.167595
0.130884
-0.129470
-0.137037
0.103127
0.048531
-0.037551
0.136332
0.131223
-0.070770
-0.065657
0.124179
0.119614
-0.058661
-0.054075
0.145631
-0.079987
0.043595
0.030409
-0.077987
0.035334
0.171419
0.029380
-0.106704
0.112277
0.104864
0.093760
0.183723
-0.122814
-0.117852
0.082688
0.060613
-0.130969
0.185818
0.181371
-0.006077
0.002396
0.195568
0.196951
0.105373
0.110022
-0.039822
0.079226
-0.044498
0.051551
-0.016133
0.002923
0.156816
0.126459
-0.060931
0.017580
0.023035
-0.090996
-0.095457
0.061341
0.066534
0.149828
0.152088
-0.084128
-0.086340
-0.070100
0.096894
0.115017
-0.099996
-0.031528
-0.049520
0.057676
0.163417
0.161304
0.011143
0.027972
0.036433
0.153047
0.123452
-0.054274
0.138283
-0.058311
0.031746
-0.104527
-0.094471
-0.039092
0.115965
0.175317
0.177283
-0.111036
-0.113262
0.019795
0.168176
0.042786
0.047840
-0.046676
0.024608
0.097469
-0.062144
-0.031443
-0.111564
-0.020242
-0.023973
-0.016558
-0.125365
0.086371
0.191733
0.052926
0.058048
0.075403
0.195796
-0.009516
0.071801
0.201103
0.007521
-0.000102
-0.140266
0.065724
-0.138849
0.026451
0.157300
-0.081436
0.047444
-0.050722
-0.062335
-0.036997
-0.059077
0.127705
0.116193
0.102120
-0.096081
0.033049
-0.040185
0.120688
0.170689
0.021181
-0.106321
0.102211
-0.021416
0.051383
0.091135
-0.117888
0.061598
0.007663
-0.012289
0.057678
-0.007385
0.107506
-0.042240
0.020743
0.153250
0.092718
-0.027705
0.038821
0.031369
-0.100127
0.113310
0.083778
0.014942
-0.123237
0.003981
0.073397
0.099736
0.053563
-0.034381
0.121978
0.133683
-0.056468
-0.068136
0.138687
-0.073129
-0.093256
0.111546
0.086742
-0.022879
0.143426
-0.077824
0.020207
-0.046196
0.045644
-0.097564
-0.008821
-0.000982
-0.055385
-0.067098
-0.081952
0.123330
-0.057984
0.165547
-0.081928
0.014800
0.147585
0.156739
0.127084
0.134493
0.149234
0.041184
0.038833
0.169549
0.032851
0.148592
-0.035227
0.173390
-0.090314
-0.108876
0.018754
0.028344
-0.047767
0.108561
0.045287
-0.083149
-0.087463
0.164375
-0.098673
0.172707
0.176873
0.043784
-0.108505
-0.113033
-0.028821
-0.017774
0.025929
0.172013
-0.107221
-0.120288
0.094835
-0.074003
0.183556
0.056478
0.017379
-0.115937
0.179761
-0.014246
0.187707
0.188056
0.192882
0.079034
0.010015
-0.133906
0.192955
0.069262
-0.124855
0.194098
0.198249
0.063173
-0.001078
-0.003023
-0.135445
-0.134129
0.141907
0.062042
-0.077944
-0.031462
-0.013174
0.097023
-0.053037
-0.101661
0.024874
0.142939
0.166187
0.042325
-0.083286
0.157934
0.177025
-0.019013
-0.099885
0.092209
0.183707
0.139124
-0.112834
0.190052
-0.121671
0.081872
-0.073796
0.163129
0.017683
-0.006064
0.117736
-0.052865
-0.069113
-0.063903
0.134414
0.129255
0.128233
-0.104243
-0.032595
0.048807
0.105897
0.179081
0.013925
0.064159
-0.130756
0.003698
0.121469
-0.056138
0.024065
0.054335
-0.040302
0.105018
0.050236
-0.076628
0.141933
0.146861
-0.019765
0.155247
-0.079532
-0.091817
-0.089395
-0.094025
0.113600
-0.048377
0.108952
0.035342
0.040423
-0.043666
0.124313
-0.075110
-0.070922
0.096246
-0.030949
0.125372
-0.060035
0.067298
0.028932
0.168733
0.159306
0.011579
0.150373
0.045189
-0.102170
-0.098095
0.135525
-0.036429
-0.085213
0.046269
0.109616
0.030700
0.116960
-0.087392
0.036380
0.033808
0.150677
0.017754
0.174755
0.161713
-0.043961
0.164989
-0.051556
-0.110727
-0.115416
0.023576
0.016349
0.047301
-0.104154
0.169328
0.053916
0.098522
0.184869
-0.025114
0.087447
-0.015499
0.059030
-0.091504
0.011462
0.006517
0.188859
0.188748
0.191374
0.076477
0.080128
0.066719
0.072853
-0.120525
-0.010797
-0.126153
-0.132200
-0.063221
-0.004241
0.001419
0.153168
0.136262
-0.052937
-0.043863
0.018088
-0.013280
0.118130
0.109271
0.125344
-0.080514
0.155335
-0.096966
-0.033827
-0.016763
-0.110682
0.057486
-0.088400
0.010445
0.029868
0.110673
0.143104
0.124729
-0.059518
0.062618
0.084869
0.077561
-0.118593
-0.127529
-0.064341
0.093440
0.067342
0.104130
0.098795
-0.039103
-0.033736
-0.028292
0.149509
0.057587
0.011714
0.164282
0.020102
0.113024
0.103266
0.170338
0.095885
0.067750
0.002958
-0.005402
-0.056758
-0.091987
-0.095737
-0.099639
0.087059
0.076468
-0.086251
0.050574
0.044682
-0.024046
0.131471
-0.066143
-0.075473
-0.071229
-0.071315
0.136621
0.145049
0.042893
0.037928
0.120051
-0.054866
-0.006989
-0.049294
-0.045070
0.032349
-0.068490
0.027184
0.032021
0.037386
-0.079208
-0.079795
0.023627
0.161259
0.154162
-0.029978
0.146655
0.022513
0.139139
0.049776
0.144875
0.168244
0.118003
-0.083858
-0.106005
-0.103804
0.039829
0.181326
-0.095661
0.165508
0.044809
0.015297
0.088531
0.174705
-0.026275
-0.022603
-0.041320
0.166822
-0.084538
-0.108478
0.180930
-0.113197
0.173167
0.052396
0.009009
0.186071
0.184665
0.186186
-0.012058
-0.117231
-0.002085
0.187320
0.073923
0.070305
-0.126148
-0.129098
0.131850
-0.047631
-0.000609
0.119109
-0.053778
0.033282
-0.072767
0.139439
-0.030484
-0.050459
0.093099
0.115255
-0.050411
0.023813
0.045840
-0.095093
-0.077765
0.159808
0.014217
0.093286
0.166673
-0.106114
-0.062031
0.053362
-0.109770
0.083392
0.039328
-0.063892
-0.068861
0.128997
0.133834
0.137948
-0.042476
-0.031178
0.034479
0.132886
0.156829
0.140301
-0.099176
0.163901
-0.092806
0.085960
0.005483
0.174342
0.182126
-0.124424
-0.017989
-0.050799
0.115878
0.042563
0.101670
0.106923
-0.036135
0.027472
-0.041452
-0.061026
0.126146
0.047818
0.151238
0.140347
0.062174
-0.001660
0.050596
0.015159
-0.007976
-0.027923
0.034728
0.122234
0.029738
-0.057060
-0.074696
-0.073082
0.128971
0.160509
-0.097686
0.162357
0.151583
0.071306
0.021129
0.019025
0.155012
0.110935
0.144082
0.041006
-0.081774
-0.093785
-0.088616
0.106946
0.012899
0.177092
0.182083
-0.023831
0.099557
0.048353
-0.108305
-0.076500
-0.072424
0.121628
0.060039
0.146839
-0.020259
0.007965
0.172519
-0.037562
-0.115832
-0.013323
0.054939
0.081209
-0.114130
-0.122987
0.075004
0.159086
-0.121451
-0.101192
0.180693
0.183355
0.065183
-0.003125
0.000419
0.071367
-0.008668
0.114329
-0.060554
-0.090099
-0.045535
-0.050144
0.008630
-0.021366
0.114610
0.090423
-0.066436
0.131516
0.070617
0.106068
0.148864
-0.070281
0.128606
0.018775
-0.027099
-0.001781
0.129951
0.049360
0.111714
0.149020
-0.084807
-0.021527
0.170625
-0.094076
0.061091
-0.063742
-0.056693
0.121702
0.006931
0.178092
-0.106815
-0.111312
-0.044608
0.110135
0.043742
0.145509
0.106135
0.101062
0.096707
0.132951
0.137476
0.038607
-0.058253
-0.041012
-0.087851
-0.034852
-0.103687
0.104326
0.096947
-0.014584
0.078647
-0.006550
0.122687
-0.048504
0.113617
-0.035809
-0.012397
0.089791
0.062550
0.053267
0.030395
0.026096
-0.068569
0.046981
-0.070650
0.003395
-0.003195
0.036896
0.035739
-0.024650
0.003552
0.118701
-0.046227
0.026250
-0.053825
0.039739
-0.054128
0.031232
-0.069892
-0.065826
-0.091330
0.156051
0.076999
-0.038755
0.021462
0.147792
0.050810
0.150611
-0.076465
0.136508
-0.097061
0.141092
-0.101381
0.161804
-0.085865
-0.081757
-0.080268
0.043235
-0.027458
0.016656
0.158624
0.162867
-0.051896
0.116945
0.063662
0.072442
-0.093166
0.089611
0.004416
-0.000629
-0.105435
-0.108652
0.082310
0.178207
0.179549
0.011828
0.024604
0.166071
-0.009926
0.170502
0.176814
-0.119901
0.066234
0.055953
0.179446
0.068806
-0.118524
0.115388
-0.116890
0.152731
0.157872
-0.073836
0.011562
0.087346
0.067119
-0.061470
0.126371
0.040267
0.103773
-0.032494
0.034038
0.144466
-0.058484
0.123195
-0.045500
0.092880
0.110775
0.071726
-0.055290
0.022873
-0.087024
-0.040201
-0.071184
0.112779
0.153516
-0.094676
0.146444
0.094359
0.013158
0.056909
-0.101703
0.117728
-0.052880
0.064723
0.003319
0.159698
0.083404
0.164051
0.174201
0.154268
-0.079124
-0.102540
0.175544
0.076083
0.069880
-0.112528
0.082062
-0.029366
0.122866
-0.057913
0.098845
0.029179
0.100787
-0.038143
-0.082164
-0.065653
0.135201
0.147108
-0.066580
0.003432
0.057606
-0.068278
0.014865
0.107950
0.130887
0.028757
0.036321
0.033455
0.137563
-0.044433
-0.089636
-0.059391
0.133531
-0.020591
-0.024037
0.152354
0.017955
-0.063433
-0.042626
-0.086102
-0.036061
0.141452
-0.071619
0.089527
0.145238
0.112330
-0.047340
0.135863
-0.046896
0.046538
0.040936
-0.090582
0.061346
0.009430
-0.096918
-0.028687
0.155507
-0.078304
0.108030
0.168297
0.142931
0.100604
-0.098289
0.173050
-0.025075
0.175536
0.090707
0.058508
-0.104254
-0.018026
-0.004201
-0.111115
0.008342
0.167880
0.051844
0.001921
0.111616
0.021868
-0.089960
-0.007721
-0.011159
-0.115486
-0.114090
0.156471
0.119010
0.036546
0.126300
0.115710
-0.050843
0.006900
0.047601
-0.047868
0.103890
-0.016206
-0.007252
0.124329
-0.059399
0.097659
0.028661
0.037980
-0.033922
0.046367
-0.037838
0.037345
-0.066791
-0.050026
-0.038072
0.114716
-0.026426
0.003339
0.089158
-0.053211
0.050191
-0.037338
0.149244
-0.090371
0.091788
-0.022804
0.035936
-0.097424
-0.091294
-0.099703
0.127296
-0.017471
0.161485
0.015357
-0.060573
0.121586
-0.056848
0.141651
0.022212
0.148082
0.106873
0.105400
-0.012370
0.062107
0.098002
0.008621
0.164261
0.073521
-0.005297
-0.109678
-0.108217
0.027812
0.151605
-0.034835
0.032738
-0.065161
0.043120
0.142892
0.119294
-0.054531
-0.064508
0.127448
0.130115
0.043421
0.053034
0.103638
-0.041809
-0.041645
0.134371
0.025271
-0.083769
-0.081166
-0.078392
-0.043646
0.131869
0.146200
-0.057220
0.020452
0.108673
0.054306
0.142703
0.066361
0.005886
0.113996
-0.049044
-0.023623
0.135238
-0.088772
-0.073091
0.137300
0.059513
-0.075089
-0.007699
0.015592
0.125248
0.109090
0.161933
-0.076617
0.171649
0.000841
-0.032339
0.160245
-0.092595
-0.019310
0.079730
-0.106912
0.067284
0.157547
-0.001695
0.010751
0.172966
-0.099235
0.052834
0.120074
0.116392
0.087048
0.056985
0.166667
-0.083147
0.171697
0.150146
0.085571
-0.085318
0.049893
-0.051563
-0.067316
0.101665
0.097787
0.039253
0.076841
0.030291
-0.031330
0.094728
0.031870
0.044524
0.100327
-0.084231
0.026013
-0.062875
0.138287
-0.061852
0.122170
-0.042658
-0.023244
0.100755
0.107798
0.062024
-0.051190
0.021984
-0.079834
0.128340
0.113785
0.053651
0.143874
-0.072555
0.155661
0.012085
-0.020596
0.060440
0.004790
-0.057701
-0.074572
-0.038667
0.049469
0.077674
0.044055
0.142319
0.147308
-0.049542
-0.082728
0.040593
0.044364
0.095421
0.097951
0.065699
0.084502
0.160356
0.106440
0.157682
-0.094959
0.077162
0.169140
0.091544
0.032022
0.115500
-0.050893
-0.019407
0.132319
0.019002
0.047343
0.028095
0.109478
0.112809
-0.044636
-0.048077
-0.039351
0.006658
-0.082445
-0.040657
-0.045619
0.016944
0.104195
0.118657
-0.054096
-0.068260
-0.086315
0.002271
-0.002797
0.053234
-0.001661
0.138878
-0.088258
0.085956
-0.012337
0.038385
0.153898
-0.092631
0.101653
-0.074790
-0.064744
-0.062683
0.169134
-0.105390
0.011042
-0.095435
-0.008850
0.165274
-0.026330
0.138956
-0.033591
0.167834
-0.103912
0.088143
-0.087197
0.151310
0.170384
0.070951
-0.015837
0.009694
0.055311
-0.099980
-0.076491
0.039791
0.025121
0.105092
0.123684
0.149821
-0.060962
0.072920
-0.028303
-0.032310
0.034253
0.096210
0.030234
0.035007
0.039793
-0.080635
-0.035849
-0.062436
0.128261
0.034613
-0.038557
0.007357
0.088563
0.072992
0.105338
0.049045
0.143124
-0.025365
-0.069997
-0.082122
-0.088458
0.008633
0.092876
0.019435
0.001173
0.155152
0.128820
-0.013905
-0.092699
-0.013596
-0.035327
-0.041809
0.011849
0.024598
0.095300
-0.093248
-0.024087
-0.006397
-0.101162
0.074588
0.165310
0.085605
0.145477
-0.058423
0.040482
0.025745
-0.048241
0.137502
0.125445
0.026844
0.131468
0.051013
0.102406
-0.077269
-0.040546
0.057475
-0.059918
-0.060219
0.140584
-0.063587
0.019564
0.082669
0.111177
-0.046381
0.057827
-0.003699
-0.081163
0.098902
0.046645
0.093556
0.136386
0.085723
0.067018
0.105887
-0.069678
-0.020675
-0.068544
0.014547
0.063079
0.162772
0.157997
0.110106
-0.047285
-0.084449
-0.055430
0.120163
0.111829
0.102725
0.162797
0.080835
-0.029912
0.068335
-0.038891
-0.102638
-0.000252
0.133436
0.099026
0.007278
0.041712
-0.072920
-0.017097
0.164055
0.145107
0.143776
-0.084552
-0.080483
0.117457
0.056272
0.028805
0.031166
0.166583
0.153439
0.147581
-0.084083
0.140189
0.042275
-0.029805
-0.054788
0.124735
-0.034892
0.041454
-0.076771
-0.078518
0.032919
0.031399
0.036811
0.124895
-0.031930
0.116912
-0.052302
0.030714
-0.057187
0.119086
-0.020315
-0.036462
0.097994
0.085242
-0.049563
0.114878
0.139058
0.054366
0.130173
0.141331
-0.078118
0.151782
-0.021871
0.135748
-0.054812
-0.075678
-0.070744
0.064115
0.040986
0.077778
-0.014847
0.094918
0.061433
0.051775
0.003750
0.132453
-0.066137
0.078211
0.160301
0.156587
0.161570
0.107488
-0.003898
-0.098466
-0.077927
0.027160
0.018675
0.037160
0.114355
-0.049907
-0.018069
0.101585
0.103537
0.014405
-0.037151
0.127115
0.137846
0.141217
0.022392
0.082186
0.047388
0.090854
0.022117
0.125885
-0.059085
0.067948
0.016034
0.011061
0.006237
0.001443
0.130671
-0.078648
0.106916
0.110083
-0.045489
-0.080332
-0.042205
-0.051328
0.115763
-0.062174
-0.064966
-0.010031
-0.007709
0.081961
-0.096803
0.069363
-0.086204
-0.071302
-0.001290
-0.095771
0.072022
0.151334
0.103800
0.096482
0.011079
0.046170
-0.031217
-0.027585
-0.073924
0.158941
-0.073345
0.042948
0.089222
0.121054
-0.090791
0.058752
0.147242
0.057053
0.133936
-0.088591
0.134883
-0.059375
0.038181
-0.033117
-0.052477
-0.036610
-0.036673
-0.029626
-0.027229
0.035128
0.033317
0.028873
0.122002
0.113757
-0.049241
-0.044947
0.118882
-0.055574
-0.047233
0.007278
0.099808
0.064002
0.018359
-0.046657
0.057738
0.123857
0.104845
0.093942
-0.067587
0.007643
-0.034530
0.045790
-0.084394
0.043629
0.125399
0.129401
-0.013161
0.015836
0.087489
-0.056580
0.074757
0.103054
-0.026416
0.000113
-0.004939
-0.085954
-0.089200
0.083037
0.073044
0.157830
0.148922
0.137126
0.132309
-0.094376
0.037481
0.118468
-0.022566
-0.032971
-0.044652
0.034437
0.109074
0.111512
0.019115
0.025992
-0.017670
0.099896
-0.034790
0.133059
0.055908
0.000806
-0.056399
0.051401
0.096260
-0.008355
0.043550
-0.011334
0.108575
-0.043908
0.015143
-0.038160
0.061300
-0.074677
-0.030919
0.127257
-0.074515
-0.059951
-0.056066
0.122284
0.013562
-0.066255
-0.069186
0.092158
-0.080025
0.066641
-0.077098
0.159081
0.082442
0.145064
0.149508
0.111160
-0.052831
0.139478
0.045432
-0.028878
-0.032617
0.117185
-0.071467
0.100136
-0.018349
-0.060453
0.090322
0.122111
0.079312
0.133096
-0.081924
0.141156
-0.025380
0.059682
-0.007506
0.005206
0.075636
0.156549
0.137635
0.023991
0.154142
-0.076274
0.014921
0.127763
0.028452
-0.039650
0.038592
-0.072143
0.031319
0.032806
-0.046773
0.031871
-0.019836
-0.005862
0.082323
0.014833
-0.070608
0.121854
0.133149
-0.065199
0.138840
-0.030224
0.004232
-0.066938
-0.056565
0.091387
-0.019621
0.147960
0.029281
0.054494
0.122037
0.095338
0.089062
0.007014
0.023706
0.118858
-0.052029
0.112511
0.040497
0.064947
-0.069826
-0.079393
-0.053905
0.070353
0.154086
0.135358
-0.074141
0.097544
0.010118
0.097546
-0.030765
-0.027724
0.130183
0.092795
-0.032559
-0.043380
0.023088
0.019320
-0.013470
0.049649
0.058598
-0.054034
0.069175
0.101420
0.020263
0.043085
-0.034316
-0.071640
-0.039887
-0.042723
0.104497
0.107179
0.062167