# vtk DataFile Version 2.0
Test
ASCII
DATASET POLYDATA
POINTS 5510 float
0.000000 0.000000 0.000000
0.080000 0.000000 0.000000
0.080000 0.160000 0.000000
0.000000 0.160000 0.000000
0.035000 0.076250 0.000000
0.046500 0.083750 0.000000
0.002000 0.000000 0.000000
0.004000 0.000000 0.000000
0.006000 0.000000 0.000000
0.008000 0.000000 0.000000
0.010000 0.000000 0.000000
0.012000 0.000000 0.000000
0.014000 0.000000 0.000000
0.016000 0.000000 0.000000
0.018000 0.000000 0.000000
0.020000 0.000000 0.000000
0.022000 0.000000 0.000000
0.024000 0.000000 0.000000
0.026000 0.000000 0.000000
0.028000 0.000000 0.000000
0.030000 0.000000 0.000000
0.032000 0.000000 0.000000
0.034000 0.000000 0.000000
0.036000 0.000000 0.000000
0.038000 0.000000 0.000000
0.040000 0.000000 0.000000
0.042000 0.000000 0.000000
0.044000 0.000000 0.000000
0.046000 0.000000 0.000000
0.048000 0.000000 0.000000
0.050000 0.000000 0.000000
0.052000 0.000000 0.000000
0.054000 0.000000 0.000000
0.056000 0.000000 0.000000
0.058000 0.000000 0.000000
0.060000 0.000000 0.000000
0.062000 0.000000 0.000000
0.064000 0.000000 0.000000
0.066000 0.000000 0.000000
0.068000 0.000000 0.000000
0.070000 0.000000 0.000000
0.072000 0.000000 0.000000
0.074000 0.000000 0.000000
0.076000 0.000000 0.000000
0.078000 0.000000 0.000000
0.080000 0.002000 0.000000
0.080000 0.004000 0.000000
0.080000 0.006000 0.000000
0.080000 0.008000 0.000000
0.080000 0.010000 0.000000
0.080000 0.012000 0.000000
0.080000 0.014000 0.000000
0.080000 0.016000 0.000000
0.080000 0.018000 0.000000
0.080000 0.020000 0.000000
0.080000 0.022000 0.000000
0.080000 0.024000 0.000000
0.080000 0.026000 0.000000
0.080000 0.028000 0.000000
0.080000 0.030000 0.000000
0.080000 0.032000 0.000000
0.080000 0.034000 0.000000
0.080000 0.036000 0.000000
0.080000 0.038000 0.000000
0.080000 0.040000 0.000000
0.080000 0.042000 0.000000
0.080000 0.044000 0.000000
0.080000 0.046000 0.000000
0.080000 0.048000 0.000000
0.080000 0.050000 0.000000
0.080000 0.052000 0.000000
0.080000 0.054000 0.000000
0.080000 0.056000 0.000000
0.080000 0.058000 0.000000
0.080000 0.060000 0.000000
0.080000 0.062000 0.000000
0.080000 0.064000 0.000000
0.080000 0.066000 0.000000
0.080000 0.068000 0.000000
0.080000 0.070000 0.000000
0.080000 0.072000 0.000000
0.080000 0.074000 0.000000
0.080000 0.076000 0.000000
0.080000 0.078000 0.000000
0.080000 0.080000 0.000000
0.080000 0.082000 0.000000
0.080000 0.084000 0.000000
0.080000 0.086000 0.000000
0.080000 0.088000 0.000000
0.080000 0.090000 0.000000
0.080000 0.092000 0.000000
0.080000 0.094000 0.000000
0.080000 0.096000 0.000000
0.080000 0.098000 0.000000
0.080000 0.100000 0.000000
0.080000 0.102000 0.000000
0.080000 0.104000 0.000000
0.080000 0.106000 0.000000
0.080000 0.108000 0.000000
0.080000 0.110000 0.000000
0.080000 0.112000 0.000000
0.080000 0.114000 0.000000
0.080000 0.116000 0.000000
0.080000 0.118000 0.000000
0.080000 0.120000 0.000000
0.080000 0.122000 0.000000
0.080000 0.124000 0.000000
0.080000 0.126000 0.000000
0.080000 0.128000 0.000000
0.080000 0.130000 0.000000
0.080000 0.132000 0.000000
0.080000 0.134000 0.000000
0.080000 0.136000 0.000000
0.080000 0.138000 0.000000
0.080000 0.140000 0.000000
0.080000 0.142000 0.000000
0.080000 0.144000 0.000000
0.080000 0.146000 0.000000
0.080000 0.148000 0.000000
0.080000 0.150000 0.000000
0.080000 0.152000 0.000000
0.080000 0.154000 0.000000
0.080000 0.156000 0.000000
0.080000 0.158000 0.000000
0.078000 0.160000 0.000000
0.076000 0.160000 0.000000
0.074000 0.160000 0.000000
0.072000 0.160000 0.000000
0.070000 0.160000 0.000000
0.068000 0.160000 0.000000
0.066000 0.160000 0.000000
0.064000 0.160000 0.000000
0.062000 0.160000 0.000000
0.060000 0.160000 0.000000
0.058000 0.160000 0.000000
0.056000 0.160000 0.000000
0.054000 0.160000 0.000000
0.052000 0.160000 0.000000
0.050000 0.160000 0.000000
0.048000 0.160000 0.000000
0.046000 0.160000 0.000000
0.044000 0.160000 0.000000
0.042000 0.160000 0.000000
0.040000 0.160000 0.000000
0.038000 0.160000 0.000000
0.036000 0.160000 0.000000
0.034000 0.160000 0.000000
0.032000 0.160000 0.000000
0.030000 0.160000 0.000000
0.028000 0.160000 0.000000
0.026000 0.160000 0.000000
0.024000 0.160000 0.000000
0.022000 0.160000 0.000000
0.020000 0.160000 0.000000
0.018000 0.160000 0.000000
0.016000 0.160000 0.000000
0.014000 0.160000 0.000000
0.012000 0.160000 0.000000
0.010000 0.160000 0.000000
0.008000 0.160000 0.000000
0.006000 0.160000 0.000000
0.004000 0.160000 0.000000
0.002000 0.160000 0.000000
0.000000 0.158000 0.000000
0.000000 0.156000 0.000000
0.000000 0.154000 0.000000
0.000000 0.152000 0.000000
0.000000 0.150000 0.000000
0.000000 0.148000 0.000000
0.000000 0.146000 0.000000
0.000000 0.144000 0.000000
0.000000 0.142000 0.000000
0.000000 0.140000 0.000000
0.000000 0.138000 0.000000
0.000000 0.136000 0.000000
0.000000 0.134000 0.000000
0.000000 0.132000 0.000000
0.000000 0.130000 0.000000
0.000000 0.128000 0.000000
0.000000 0.126000 0.000000
0.000000 0.124000 0.000000
0.000000 0.122000 0.000000
0.000000 0.120000 0.000000
0.000000 0.118000 0.000000
0.000000 0.116000 0.000000
0.000000 0.114000 0.000000
0.000000 0.112000 0.000000
0.000000 0.110000 0.000000
0.000000 0.108000 0.000000
0.000000 0.106000 0.000000
0.000000 0.104000 0.000000
0.000000 0.102000 0.000000
0.000000 0.100000 0.000000
0.000000 0.098000 0.000000
0.000000 0.096000 0.000000
0.000000 0.094000 0.000000
0.000000 0.092000 0.000000
0.000000 0.090000 0.000000
0.000000 0.088000 0.000000
0.000000 0.086000 0.000000
0.000000 0.084000 0.000000
0.000000 0.082000 0.000000
0.000000 0.080000 0.000000
0.000000 0.078000 0.000000
0.000000 0.076000 0.000000
0.000000 0.074000 0.000000
0.000000 0.072000 0.000000
0.000000 0.070000 0.000000
0.000000 0.068000 0.000000
0.000000 0.066000 0.000000
0.000000 0.064000 0.000000
0.000000 0.062000 0.000000
0.000000 0.060000 0.000000
0.000000 0.058000 0.000000
0.000000 0.056000 0.000000
0.000000 0.054000 0.000000
0.000000 0.052000 0.000000
0.000000 0.050000 0.000000
0.000000 0.048000 0.000000
0.000000 0.046000 0.000000
0.000000 0.044000 0.000000
0.000000 0.042000 0.000000
0.000000 0.040000 0.000000
0.000000 0.038000 0.000000
0.000000 0.036000 0.000000
0.000000 0.034000 0.000000
0.000000 0.032000 0.000000
0.000000 0.030000 0.000000
0.000000 0.028000 0.000000
0.000000 0.026000 0.000000
0.000000 0.024000 0.000000
0.000000 0.022000 0.000000
0.000000 0.020000 0.000000
0.000000 0.018000 0.000000
0.000000 0.016000 0.000000
0.000000 0.014000 0.000000
0.000000 0.012000 0.000000
0.000000 0.010000 0.000000
0.000000 0.008000 0.000000
0.000000 0.006000 0.000000
0.000000 0.004000 0.000000
0.000000 0.002000 0.000000
0.035411 0.076518 0.000000
0.035821 0.076786 0.000000
0.036232 0.077054 0.000000
0.036643 0.077321 0.000000
0.037054 0.077589 0.000000
0.037464 0.077857 0.000000
0.037875 0.078125 0.000000
0.038286 0.078393 0.000000
0.038696 0.078661 0.000000
0.039107 0.078929 0.000000
0.039518 0.079196 0.000000
0.039929 0.079464 0.000000
0.040339 0.079732 0.000000
0.040750 0.080000 0.000000
0.041161 0.080268 0.000000
0.041571 0.080536 0.000000
0.041982 0.080804 0.000000
0.042393 0.081071 0.000000
0.042804 0.081339 0.000000
0.043214 0.081607 0.000000
0.043625 0.081875 0.000000
0.044036 0.082143 0.000000
0.044446 0.082411 0.000000
0.044857 0.082679 0.000000
0.045268 0.082946 0.000000
0.045679 0.083214 0.000000
0.046089 0.083482 0.000000
0.040000 0.002000 0.000000
0.040001 0.158005 0.000000
0.002000 0.116000 0.000000
0.078000 0.048000 0.000000
0.002000 0.106000 0.000000
0.078000 0.058000 0.000000
0.001986 0.042173 0.000000
0.078015 0.117826 0.000000
0.001985 0.094174 0.000000
0.001985 0.084174 0.000000
0.001914 0.056074 0.000000
0.002000 0.072000 0.000000
0.078015 0.065826 0.000000
0.078016 0.075826 0.000000
0.078000 0.088000 0.000000
0.078000 0.104000 0.000000
0.078003 0.029997 0.000000
0.001998 0.130002 0.000000
0.002000 0.032000 0.000000
0.078013 0.128003 0.000000
0.056000 0.158000 0.000000
0.026000 0.002000 0.000000
0.060000 0.002000 0.000000
0.020000 0.158000 0.000000
0.002000 0.020000 0.000000
0.078000 0.142000 0.000000
0.002000 0.146000 0.000000
0.078000 0.020000 0.000000
0.016000 0.002000 0.000000
0.068000 0.002000 0.000000
0.066000 0.158000 0.000000
0.002000 0.014000 0.000000
0.008000 0.158000 0.000000
0.010000 0.002000 0.000000
0.078000 0.148000 0.000000
0.078000 0.008000 0.000000
0.078005 0.037995 0.000000
0.051991 0.001990 0.000000
0.028000 0.158000 0.000000
0.002000 0.008000 0.000000
0.078000 0.094000 0.000000
0.078000 0.110000 0.000000
0.001983 0.066159 0.000000
0.002000 0.050000 0.000000
0.046000 0.158000 0.000000
0.078000 0.134000 0.000000
0.002000 0.140000 0.000000
0.006000 0.002000 0.000000
0.002000 0.154000 0.000000
0.074000 0.002000 0.000000
0.078000 0.152000 0.000000
0.074000 0.158000 0.000000
0.078000 0.080000 0.000000
0.078000 0.070000 0.000000
0.078000 0.122000 0.000000
0.002000 0.090000 0.000000
0.002000 0.080000 0.000000
0.002000 0.038000 0.000000
0.002000 0.102000 0.000000
0.002000 0.112000 0.000000
0.036000 0.002000 0.000000
0.078000 0.042000 0.000000
0.032000 0.002000 0.000000
0.047987 0.001989 0.000000
0.032008 0.158010 0.000000
0.002000 0.028000 0.000000
0.002000 0.126000 0.000000
0.060000 0.158000 0.000000
0.022000 0.002000 0.000000
0.002000 0.136000 0.000000
0.078000 0.024000 0.000000
0.012000 0.158000 0.000000
0.078000 0.158000 0.000000
0.001947 0.003947 0.000000
0.002000 0.158000 0.000000
0.078000 0.012000 0.000000
0.078000 0.096000 0.000000
0.078000 0.098000 0.000000
0.078000 0.082000 0.000000
0.078111 0.099889 0.000000
0.078035 0.083965 0.000000
0.078000 0.090000 0.000000
0.078000 0.106000 0.000000
0.078000 0.072000 0.000000
0.078000 0.112000 0.000000
0.078043 0.061976 0.000000
0.078000 0.114000 0.000000
0.002000 0.064000 0.000000
0.002000 0.062000 0.000000
0.002000 0.088000 0.000000
0.002000 0.078000 0.000000
0.002000 0.060000 0.000000
0.001966 0.076034 0.000000
0.002000 0.070000 0.000000
0.002000 0.054000 0.000000
0.001957 0.098024 0.000000
0.002000 0.048000 0.000000
0.002000 0.046000 0.000000
[...]
POINT_DATA 5510
SCALARS UX float 1
LOOKUP_TABLE default
0.094190
0.216841
0.000006
-0.120473
0.042013
0.054984
0.097273
0.100355
0.103438
0.106521
0.109604
0.112688
0.115772
0.118857
0.121942
0.125026
0.128109
0.131189
0.134266
0.137339
0.140407
0.143469
0.146529
0.149584
0.152636
0.155681
0.158722
0.161757
0.164788
0.167814
0.170837
0.173858
0.176878
0.179898
0.182919
0.185944
0.188977
0.192016
0.195068
0.198126
0.201197
0.204284
0.207393
0.210532
0.213675
0.214707
0.212618
0.210585
0.208548
0.206594
0.204639
0.202752
0.200862
0.198985
0.197112
0.195243
0.193393
0.191540
0.189663
0.187768
0.185850
0.183902
0.181921
0.179904
0.177850
0.175758
0.173677
0.171568
0.169443
0.167323
0.165162
0.162997
0.160831
0.158669
0.156509
0.154350
0.152194
0.150037
0.147880
0.145716
0.143552
0.141375
0.139196
0.137010
0.134810
0.132609
0.130381
0.128132
0.125870
0.123599
0.121216
0.118749
0.116156
0.112624
0.105682
0.098287
0.089491
0.080298
0.071885
0.064878
0.059311
0.054072
0.050900
0.047935
0.045352
0.043040
0.040746
0.038581
0.036419
0.034261
0.032112
0.029965
0.027820
0.025682
0.023549
0.021420
0.019293
0.017178
0.015061
0.012934
0.010813
0.008611
0.006232
0.003395
-0.000054
-0.003010
-0.006172
-0.009341
-0.012451
-0.015565
-0.018701
-0.021826
-0.024935
-0.028041
-0.031134
-0.034220
-0.037302
-0.040379
-0.043456
-0.046526
-0.049593
-0.052660
-0.055724
-0.058785
-0.061844
-0.064900
-0.067952
-0.071002
-0.074049
-0.077096
-0.080141
-0.083187
-0.086234
-0.089285
-0.092342
-0.095408
-0.098486
-0.101572
-0.104667
-0.107777
-0.110913
-0.114086
-0.117265
-0.118314
-0.116219
-0.114112
-0.112121
-0.110139
-0.108177
-0.106266
-0.104366
-0.102464
-0.100572
-0.098689
-0.096807
-0.094925
-0.093014
-0.091081
-0.089122
-0.087127
-0.085146
-0.083134
-0.081118
-0.079086
-0.077048
-0.074994
-0.072928
-0.070869
-0.068775
-0.066673
-0.064561
-0.062447
-0.060324
-0.058192
-0.056054
-0.053910
-0.051759
-0.049597
-0.047435
-0.045261
-0.043083
-0.040899
-0.038705
-0.036511
-0.034297
-0.032079
-0.029859
-0.027658
-0.025372
-0.023024
-0.020493
-0.017579
-0.011709
-0.004964
0.002336
0.010456
0.019463
0.027807
0.035645
0.040062
0.043842
0.047311
0.050333
0.052947
0.055456
0.057633
0.059802
0.061963
0.064121
0.066276
0.068427
0.070577
0.072727
0.074878
0.077026
0.079174
0.081321
0.083467
0.085613
0.087758
0.089902
0.092047
0.042470
0.042977
0.043703
0.044390
0.044932
0.045321
0.045722
0.046172
0.046474
0.046944
0.047345
0.047668
0.048093
0.048523
0.049022
0.049504
0.050030
0.050499
0.050955
0.051392
0.051795
0.052138
0.052549
0.052940
0.053414
0.053926
0.054382
0.153565
-0.056662
-0.073928
0.166358
-0.063641
0.155605
0.050746
0.044737
-0.051079
-0.040246
0.008429
-0.026804
0.147185
0.136340
0.122766
0.081831
0.184380
-0.087726
0.062915
0.033321
-0.032072
0.132126
0.183851
-0.087169
0.075818
0.018321
-0.102885
0.193739
0.116713
0.196010
-0.016557
0.082260
-0.105617
0.107461
0.011919
0.205309
0.176667
0.171761
-0.074980
0.088697
0.115399
0.059387
-0.019967
0.034844
-0.047461
0.026863
-0.097172
0.101295
-0.110853
0.205234
0.007596
-0.004245
0.131747
0.142653
0.039822
-0.046551
-0.035664
0.056336
-0.059417
-0.069875
0.147460
0.172611
0.141341
0.165706
-0.068882
0.067223
-0.083868
-0.025881
0.125966
-0.093398
0.189981
-0.099429
0.000731
0.092961
-0.115045
0.201358
0.112282
0.106629
0.129536
0.099976
0.127386
0.120406
0.073109
0.140481
0.054130
0.151377
0.050259
-0.016960
-0.012131
-0.044382
-0.033464
-0.005869
-0.031334
-0.024537
0.017942
-0.055248
0.040381
0.044319
0.159932
0.170577
0.164227
-0.067808
-0.077934
0.037629
0.058581
0.159650
-0.062777
-0.053595
0.180586
-0.044390
-0.041317
-0.081896
0.138277
0.177806
-0.081074
0.069373
0.031174
0.024723
0.071522
0.022587
-0.091510
-0.038240
0.188120
-0.100983
-0.022778
0.122882
0.189913
-0.093282
0.016190
0.197525
-0.106832
0.077965
0.084406
-0.013436
0.113629
-0.010356
0.005392
-0.111866
0.098128
0.094931
0.209378
0.202144
0.211486
-0.066821
0.163275
-0.043538
-0.032717
-0.023747
-0.000342
0.040416
0.128782
0.119650
0.093065
0.139626
0.050119
-0.054510
-0.078680
0.030208
0.059458
0.139200
-0.036131
0.070320
0.019505
0.123822
-0.089989
0.186591
-0.023738
0.081053
0.114571
-0.099580
-0.011434
0.074245
0.167558
0.085346
0.004390
0.203104
0.124496
0.101298
0.111812
-0.028476
-0.007298
-0.016415
0.048105
0.118277
0.125342
0.092159
0.134315
0.138425
0.066328
0.145184
0.047386
-0.022523
-0.042325
-0.029317
-0.049077
0.001021
-0.038220
0.026351
0.047660
0.149238
-0.053122
0.153543
-0.057389
0.157863
0.042601
-0.061622
0.053239
0.162174
-0.065817
-0.072155
0.168519
-0.075993
0.174686
-0.079954
0.156600
-0.059709
0.150508
-0.050522
0.162673
-0.065822
0.035520
0.060700
0.178646
0.144398
0.168732
-0.071927
-0.042242
0.174781
-0.078023
-0.085807
0.065053
0.029024
0.182490
0.072468
0.135202
0.023769
-0.035158
0.180826
-0.084119
0.073664
0.020458
-0.089624
0.186251
-0.095280
-0.028982
0.129047
-0.099076
0.191850
-0.019669
0.119798
-0.090222
0.186877
-0.096350
0.192954
0.014057
0.080113
-0.102520
0.195620
-0.104846
0.009774
0.199426
0.086552
0.110544
-0.108819
-0.007291
0.203295
0.003100
0.104378
0.090842
-0.108731
0.096069
0.199071
-0.001484
-0.109711
-0.112908
0.207314
0.206212
0.208343
-0.054891
0.151028
0.004645
0.160571
0.087616
0.073407
-0.069872
0.172722
-0.082014
0.184785
0.196145
-0.094229
0.010944
0.175406
0.148504
-0.100378
-0.105575
0.114739
0.044010
-0.019091
0.146622
0.141918
-0.050526
-0.045795
0.135347
0.131050
-0.039264
-0.034940
0.155216
-0.058992
0.039116
0.063806
-0.063708
0.068164
0.179088
0.025934
-0.082474
0.133067
0.126903
0.117655
0.190854
-0.095706
-0.091884
0.108402
0.089636
-0.101556
0.192298
0.188475
-0.005457
0.002123
0.200088
0.201002
0.117167
0.121834
-0.021367
0.083282
-0.025858
0.047249
0.007612
0.033984
0.165407
0.137485
-0.041394
0.051522
0.057061
-0.068906
-0.072824
0.059211
0.066036
0.159075
0.161132
-0.062750
-0.064739
-0.057703
0.107385
0.126692
-0.076732
-0.012421
-0.030642
0.054591
0.171492
0.169536
0.044334
0.061622
0.032388
0.166637
0.142352
-0.045285
0.154601
-0.048495
0.028089
-0.080609
-0.075934
-0.033062
0.136132
0.182830
0.184705
-0.086210
-0.088100
0.017362
0.178745
0.074598
0.078909
-0.039187
0.021645
0.120745
-0.051507
-0.026831
-0.088109
-0.017549
-0.020650
-0.014462
-0.097616
0.111488
0.196953
0.083198
0.087491
0.102235
0.200021
-0.008435
0.099152
0.204126
0.006614
-0.000111
-0.107623
0.093926
-0.106577
0.060187
0.166478
-0.060477
0.043216
-0.032007
-0.042965
-0.018786
-0.049155
0.139067
0.128178
0.114239
-0.073667
0.029352
-0.033999
0.140139
0.179456
0.018574
-0.082829
0.124759
-0.018552
0.082000
0.115517
-0.092353
0.090576
0.039690
0.012189
0.055256
-0.006593
0.119744
-0.023897
0.054604
0.162625
0.102806
-0.008205
0.071247
0.064660
-0.077298
0.134000
0.109346
0.013089
-0.096296
0.003447
0.076264
0.111551
0.050078
-0.016096
0.133287
0.144195
-0.037204
-0.048098
0.148836
-0.052723
-0.070902
0.123731
0.094770
-0.001953
0.153209
-0.057031
0.054244
-0.027708
0.041120
-0.074649
0.017686
0.028498
-0.046222
-0.055436
-0.066701
0.134980
-0.038895
0.173476
-0.060763
0.048153
0.157031
0.169620
0.145362
0.151485
0.163544
0.036816
0.034618
0.177274
0.065974
0.158400
-0.029926
0.180978
-0.072902
-0.084344
0.016410
0.025032
-0.040117
0.129977
0.076738
-0.062040
-0.065930
0.175734
-0.078974
0.181347
0.185133
0.075526
-0.084718
-0.088510
-0.024698
-0.015492
0.022839
0.181766
-0.085062
-0.093790
0.118610
-0.060686
0.190380
0.086288
0.015229
-0.091166
0.187814
-0.012492
0.193898
0.194203
0.197918
0.105319
0.008787
-0.103544
0.198102
0.097009
-0.097296
0.198936
0.202083
0.091781
-0.001003
-0.002735
-0.104462
-0.103470
0.157569
0.060899
-0.057500
-0.013333
0.010239
0.109012
-0.044379
-0.079492
0.021951
0.158489
0.176132
0.074298
-0.067770
0.170633
0.185725
-0.016519
-0.079906
0.116458
0.190940
0.149699
-0.089056
0.195838
-0.095183
0.088933
-0.053551
0.172100
0.015479
0.020847
0.129675
-0.034010
-0.049264
-0.044431
0.145351
0.140528
0.146399
-0.080996
-0.027813
0.079820
0.127830
0.187058
0.012145
0.092720
-0.101347
0.034242
0.133204
-0.037140
0.057935
0.051670
-0.022037
0.117261
0.046209
-0.056126
0.152293
0.156786
0.001425
0.164526
-0.058756
-0.069846
-0.067681
-0.071838
0.125714
-0.029791
0.121252
0.031477
0.036238
-0.025307
0.143152
-0.061609
-0.058399
0.107386
-0.012249
0.136915
-0.040833
0.067994
0.062466
0.177576
0.168388
0.044450
0.164535
0.040913
-0.079136
-0.075473
0.152413
-0.030946
-0.063908
0.077654
0.130926
0.027195
0.137037
-0.070817
0.069107
0.066833
0.160312
0.051430
0.183232
0.173652
-0.037057
0.173923
-0.043161
-0.086604
-0.090427
0.020722
0.014284
0.078578
-0.082953
0.179678
0.084136
0.121683
0.191800
-0.021624
0.112428
-0.013536
0.088426
-0.073839
0.009986
0.005658
0.194854
0.194905
0.196908
0.103178
0.106264
0.094865
0.100092
-0.094322
-0.009534
-0.098319
-0.102383
-0.052420
-0.003815
0.001206
0.163363
0.147511
-0.034402
-0.025708
0.051478
0.009227
0.130478
0.121863
0.144081
-0.065719
0.168570
-0.077815
-0.028842
-0.014565
-0.087119
0.087212
-0.067153
0.009071
0.063246
0.131871
0.153801
0.136682
-0.040579
0.091516
0.110292
0.104120
-0.093091
-0.099246
-0.053334
0.104579
0.068771
0.116747
0.111013
-0.021121
-0.015776
-0.009613
0.159715
0.055849
0.044137
0.174324
0.017646
0.125553
0.125697
0.179922
0.119536
0.095806
0.002521
-0.004814
-0.047345
-0.070519
-0.074054
-0.077671
0.095899
0.081517
-0.065153
0.047144
0.040696
-0.004239
0.142596
-0.046512
-0.055252
-0.051399
-0.051287
0.147396
0.155143
0.038637
0.033886
0.132353
-0.036268
0.018675
-0.041386
-0.037987
0.065494
-0.056557
0.024065
0.028519
0.069976
-0.064712
-0.059208
0.057310
0.170272
0.167600
-0.025666
0.161517
0.019814
0.155384
0.080697
0.155476
0.178032
0.137977
-0.062927
-0.083266
-0.081377
0.072125
0.188987
-0.076864
0.176663
0.076440
0.013357
0.113373
0.183769
-0.022595
-0.019538
-0.034943
0.175724
-0.068725
-0.085998
0.188756
-0.089087
0.182697
0.082921
0.007837
0.192771
0.191753
0.192914
-0.010592
-0.092118
-0.001897
0.193785
0.101035
0.097950
-0.098254
-0.100336
0.149386
-0.029332
0.028382
0.130998
-0.034926
0.066269
-0.052986
0.150925
-0.012696
-0.032335
0.104864
0.128176
-0.042300
0.021097
0.077331
-0.074392
-0.063636
0.170993
0.012445
0.117397
0.177591
-0.083878
-0.051525
0.083772
-0.086947
0.091695
0.035351
-0.044684
-0.049242
0.140764
0.145268
0.149107
-0.035882
-0.026642
0.030800
0.150312
0.166990
0.156397
-0.078069
0.174751
-0.074805
0.111236
0.004724
0.183638
0.189718
-0.097170
0.002883
-0.032383
0.128360
0.038553
0.114255
0.119625
-0.018243
0.061048
-0.023437
-0.042046
0.138122
0.043983
0.161453
0.151284
0.061839
0.026111
0.047654
0.048147
0.016339
-0.009797
0.067620
0.134406
0.026409
-0.038321
-0.054768
-0.053096
0.147083
0.170650
-0.075876
0.172463
0.165553
0.075260
0.054756
0.016754
0.165180
0.123543
0.159475
0.073126
-0.061017
-0.072221
-0.071740
0.128765
0.011233
0.185750
0.189744
-0.020535
0.122602
0.079493
-0.085186
-0.062692
-0.059586
0.140995
0.089355
0.157306
-0.017530
0.006899
0.181844
-0.031886
-0.091075
-0.011627
0.085065
0.107203
-0.090009
-0.096150
0.101978
0.171569
-0.095122
-0.080846
0.188648
0.190704
0.093660
-0.002798
0.000299
0.098892
-0.007671
0.134918
-0.050349
-0.068756
-0.027337
-0.031667
0.040225
-0.001608
0.127108
0.100558
-0.047027
0.143122
0.073439
0.118657
0.160149
-0.050922
0.140878
0.051875
-0.009420
0.023865
0.147947
0.080351
0.132801
0.163499
-0.064365
-0.018538
0.180591
-0.075709
0.090291
-0.044767
-0.038204
0.134273
0.006001
0.186614
-0.084852
-0.087891
-0.026740
0.123149
0.040029
0.156634
0.119175
0.113978
0.109011
0.144894
0.149090
0.071013
-0.048552
-0.023232
-0.067402
-0.029670
-0.081907
0.126634
0.120466
-0.012638
0.105061
-0.005778
0.141937
-0.030476
0.126576
-0.018187
0.009497
0.100615
0.063168
0.051077
0.063659
0.059586
-0.049156
0.043553
-0.051049
0.032064
0.023000
0.033071
0.068469
-0.005791
0.033314
0.131518
-0.038926
0.023327
-0.035562
0.036001
-0.045276
0.027924
-0.057637
-0.054492
-0.070829
0.167374
0.083078
-0.032860
0.018956
0.162490
0.081595
0.161918
-0.056417
0.153288
-0.076194
0.152517
-0.079971
0.172853
-0.069688
-0.066633
-0.059977
0.075074
-0.023558
0.014625
0.168785
0.174576
-0.033740
0.129825
0.092447
0.099833
-0.072588
0.114311
0.003797
-0.000611
-0.083884
-0.085873
0.108156
0.186669
0.187739
0.010325
0.058047
0.176674
-0.008706
0.180615
0.185593
-0.094056
0.094599
0.085965
0.187651
0.096748
-0.093072
0.135866
-0.091967
0.166480
0.169152
-0.060656
0.043271
0.097264
0.069397
-0.042681
0.138774
0.036291
0.116656
-0.014822
0.066892
0.156886
-0.040159
0.136281
-0.027917
0.105217
0.124237
0.076639
-0.046188
0.020373
-0.067691
-0.034025
-0.058589
0.133746
0.165892
-0.074826
0.161410
0.118329
0.011587
0.086795
-0.080704
0.130996
-0.034921
0.093375
0.002875
0.171518
0.109100
0.175504
0.183531
0.165604
-0.064600
-0.081797
0.184594
0.102914
0.097690
-0.088890
0.090778
-0.011898
0.135442
-0.039375
0.111684
0.062422
0.114034
-0.020583
-0.061780
-0.046691
0.146982
0.158326
-0.047344
0.031206
0.056593
-0.049086
0.047412
0.121043
0.142989
0.025636
0.032667
0.029999
0.154199
-0.037456
-0.069165
-0.049441
0.150894
-0.001362
-0.005794
0.163682
0.015900
-0.052606
-0.024839
-0.065683
-0.030632
0.157376
-0.052201
0.100993
0.160444
0.125797
-0.029687
0.148129
-0.028911
0.077919
0.073028
-0.071127
0.062260
0.008197
-0.076758
-0.024536
0.167750
-0.058146
0.129726
0.178615
0.154278
0.123525
-0.078742
0.182585
-0.021522
0.184585
0.115258
0.088119
-0.082717
-0.015573
-0.003703
-0.087904
0.007303
0.178538
0.082479
0.001615
0.124655
0.055238
-0.072704
-0.006741
-0.009703
-0.090978
-0.089931
0.169471
0.138882
0.069140
0.144934
0.129102
-0.033035
0.037088
0.044564
-0.040231
0.116969
0.004216
0.016407
0.136845
-0.040768
0.110286
0.062044
0.034281
-0.016292
0.042725
-0.020162
0.069813
-0.047983
-0.032498
-0.020705
0.128570
-0.009175
0.030007
0.101268
-0.044492
0.081057
-0.031629
0.162644
-0.071689
0.116191
-0.019533
0.032538
-0.077584
-0.073608
-0.079716
0.145806
0.001878
0.173440
0.047365
-0.042063
0.134722
-0.038636
0.153705
0.055280
0.160557
0.120431
0.127581
-0.010664
0.091178
0.121387
0.038280
0.175441
0.100770
-0.004608
-0.086812
-0.085827
0.061024
0.164064
-0.017553
0.029470
-0.046193
0.039627
0.155169
0.132531
-0.036483
-0.045870
0.140142
0.142707
0.075207
0.051369
0.117121
-0.035296
-0.024209
0.146681
0.022567
-0.064388
-0.061605
-0.058765
-0.026136
0.149568
0.158657
-0.047676
0.018165
0.122227
0.084585
0.158392
0.069279
0.005131
0.127438
-0.031326
-0.005959
0.152328
-0.069402
-0.053635
0.149589
0.088994
-0.061560
0.014922
0.013769
0.138182
0.130665
0.173463
-0.057023
0.181497
0.000704
-0.027564
0.172479
-0.072972
-0.016577
0.105997
-0.084753
0.095519
0.169608
-0.001512
0.009441
0.182551
-0.078698
0.083324
0.139824
0.136761
0.112175
0.056439
0.177449
-0.067601
0.181554
0.164383
0.095663
-0.065981
0.047480
-0.043202
-0.055618
0.115135
0.111009
0.071538
0.083614
0.027211
-0.013951
0.107499
0.064903
0.041212
0.112738
-0.063693
0.059678
-0.044149
0.151814
-0.043706
0.135710
-0.025505
-0.006063
0.114660
0.121786
0.064159
-0.042814
0.019710
-0.061494
0.146692
0.134635
0.084027
0.159308
-0.059551
0.168352
0.010744
-0.017566
0.089793
0.004249
-0.039612
-0.055768
-0.032658
0.047564
0.085564
0.075741
0.155840
0.160831
-0.041551
-0.064553
0.037102
0.041368
0.119249
0.111518
0.094221
0.110046
0.172316
0.128497
0.170409
-0.075577
0.103846
0.179521
0.104290
0.064979
0.129411
-0.033345
-0.000816
0.144785
0.051723
0.078600
0.025166
0.123489
0.126762
-0.027405
-0.030686
-0.022013
0.034768
-0.062961
-0.023571
-0.038384
0.015123
0.118231
0.132394
-0.036298
-0.049440
-0.068026
0.002026
-0.002420
0.052225
0.023109
0.155289
-0.069816
0.096976
0.008512
0.034901
0.167386
-0.073629
0.124446
-0.055285
-0.053562
-0.044191
0.179469
-0.083747
0.041889
-0.076641
-0.007652
0.176453
-0.022498
0.151235
-0.028541
0.178445
-0.082745
0.113117
-0.070598
0.164525
0.180493
0.098620
-0.013624
0.008605
0.085441
-0.079615
-0.062523
0.071987
0.058334
0.118647
0.142819
0.162308
-0.050617
0.078949
-0.011224
-0.015077
0.030922
0.109223
0.027272
0.067697
0.036513
-0.060858
-0.018618
-0.043877
0.140971
0.067285
-0.021836
0.034713
0.101297
0.079967
0.119847
0.047669
0.157627
-0.008481
-0.057487
-0.064940
-0.070545
0.007789
0.117128
0.051703
0.001158
0.168344
0.142020
0.005704
-0.074539
-0.011623
-0.018345
-0.035227
0.041797
0.022085
0.108775
-0.074509
-0.020516
-0.005494
-0.080703
0.101692
0.176398
0.110994
0.159064
-0.048540
0.072575
0.058703
-0.040450
0.150585
0.138776
0.024177
0.149258
0.081764
0.116393
-0.058650
-0.023756
0.057917
-0.041621
-0.042155
0.154115
-0.045383
0.017502
0.092497
0.125167
-0.029078
0.087582
0.019497
-0.062947
0.112731
0.044153
0.106712
0.153264
0.097484
0.071020
0.119931
-0.050869
-0.002969
-0.056491
0.012956
0.092018
0.174429
0.170342
0.131563
-0.030160
-0.066250
-0.037555
0.133856
0.126247
0.125384
0.174340
0.106949
-0.025489
0.096430
-0.021862
-0.081674
-0.000191
0.146644
0.122280
0.006454
0.037970
-0.054105
-0.014598
0.175416
0.159440
0.157366
-0.068531
-0.065510
0.137692
0.086265
0.061790
0.064096
0.177465
0.166420
0.162283
-0.066737
0.156340
0.074176
-0.012868
-0.045674
0.143725
-0.029541
0.038248
-0.057857
-0.060028
0.029862
0.028405
0.033615
0.138096
-0.014930
0.130737
-0.034644
0.027967
-0.039675
0.133231
-0.003123
-0.020090
0.112297
0.097716
-0.041423
0.135584
0.154455
0.084649
0.148192
0.157209
-0.061960
0.165252
-0.018532
0.150327
-0.037144
-0.058433
-0.052813
0.092908
0.038153
0.086544
-0.012587
0.108803
0.064215
0.051155
0.003438
0.145526
-0.054536
0.104751
0.172410
0.169274
0.173386
0.129416
-0.003302
-0.078643
-0.063466
0.024581
0.016853
0.034138
0.128719
-0.032613
0.000289
0.116088
0.118046
0.045478
-0.020169
0.140390
0.152458
0.155836
0.055111
0.092656
0.078636
0.104217
0.019957
0.144690
-0.041506
0.072988
0.014449
0.009964
0.005649
0.026510
0.143760
-0.061569
0.121435
0.124573
-0.028481
-0.063235
-0.025358
-0.033942
0.130090
-0.051471
-0.046789
-0.008589
0.013869
0.107917
-0.077547
0.097317
-0.068614
-0.052481
-0.001013
-0.076531
0.099544
0.165290
0.126323
0.120167
0.039964
0.044165
-0.026491
-0.023456
-0.060460
0.171371
-0.055702
0.074754
0.114046
0.140682
-0.072498
0.088375
0.161338
0.086943
0.151246
-0.071511
0.148154
-0.041296
0.070512
-0.016191
-0.043737
-0.030888
-0.020026
-0.012938
-0.010465
0.031955
0.066015
0.061649
0.135805
0.128049
-0.031952
-0.037785
0.133334
-0.038600
-0.030325
0.033795
0.114782
0.068565
0.016696
-0.038985
0.087541
0.143014
0.127232
0.118047
-0.055499
0.007053
-0.018241
0.044331
-0.067513
0.075334
0.139356
0.143596
0.005841
0.046266
0.100756
-0.038960
0.083263
0.118043
-0.009977
0.000346
-0.004111
-0.069437
-0.071511
0.108843
0.100425
0.170375
0.163297
0.152684
0.147896
-0.075651
0.069836
0.138567
-0.005791
-0.016387
-0.027883
0.031559
0.123999
0.126442
0.050737
0.058661
0.000130
0.114347
-0.018190
0.147816
0.056681
0.024863
-0.038613
0.082103
0.110430
0.012334
0.041041
-0.009610
0.123084
-0.026985
0.013799
-0.021731
0.090532
-0.057212
-0.014331
0.141174
-0.058507
-0.049616
-0.046574
0.136317
0.012214
-0.048146
-0.051207
0.105879
-0.063708
0.095033
-0.059968
0.171339
0.093876
0.160205
0.163312
0.132485
-0.035343
0.154139
0.076929
-0.024429
-0.027556
0.131477
-0.058444
0.123244
-0.015553
-0.042901
0.114993
0.141579
0.105698
0.147361
-0.066447
0.156325
-0.021491
0.089178
-0.006366
0.004875
0.102595
0.169406
0.154236
0.021711
0.167238
-0.060215
0.044465
0.146197
0.025836
-0.033367
0.035654
-0.054289
0.064070
0.029960
-0.039182
0.029306
-0.003075
0.015058
0.094663
0.013648
-0.055573
0.141344
0.149561
-0.053490
0.155137
-0.025433
0.004163
-0.049896
-0.039693
0.115910
-0.016511
0.162161
0.061802
0.084769
0.136789
0.109959
0.102858
0.032668
0.021589
0.133604
-0.034795
0.133640
0.038123
0.093627
-0.053156
-0.064398
-0.044729
0.098170
0.167367
0.151011
-0.058957
0.121086
0.009270
0.112482
-0.014537
-0.011397
0.145877
0.107014
-0.016325
-0.036338
0.055473
0.050134
0.004794
0.049250
0.061243
-0.036670
0.075628
0.116403
0.018455
0.041099
-0.018267
-0.055454
-0.023392
-0.026106
0.119510
0.122231
0.091282
-0.010389
-0.007207
0.002728
-0.041780