# vtk DataFile Version 2.0
Test
ASCII
DATASET POLYDATA
POINTS 5510 float
0.000000 0.000000 0.000000
0.080000 0.000000 0.000000
0.080000 0.160000 0.000000
0.000000 0.160000 0.000000
0.035000 0.076250 0.000000
0.046500 0.083750 0.000000
0.002000 0.000000 0.000000
0.004000 0.000000 0.000000
0.006000 0.000000 0.000000
0.008000 0.000000 0.000000
0.010000 0.000000 0.000000
0.012000 0.000000 0.000000
0.014000 0.000000 0.000000
0.016000 0.000000 0.000000
0.018000 0.000000 0.000000
0.020000 0.000000 0.000000
0.022000 0.000000 0.000000
0.024000 0.000000 0.000000
0.026000 0.000000 0.000000
0.028000 0.000000 0.000000
0.030000 0.000000 0.000000
0.032000 0.000000 0.000000
0.034000 0.000000 0.000000
0.036000 0.000000 0.000000
0.038000 0.000000 0.000000
0.040000 0.000000 0.000000
0.042000 0.000000 0.000000
0.044000 0.000000 0.000000
0.046000 0.000000 0.000000
0.048000 0.000000 0.000000
0.050000 0.000000 0.000000
0.052000 0.000000 0.000000
0.054000 0.000000 0.000000
0.056000 0.000000 0.000000
0.058000 0.000000 0.000000
0.060000 0.000000 0.000000
0.062000 0.000000 0.000000
0.064000 0.000000 0.000000
0.066000 0.000000 0.000000
0.068000 0.000000 0.000000
0.070000 0.000000 0.000000
0.072000 0.000000 0.000000
0.074000 0.000000 0.000000
0.076000 0.000000 0.000000
0.078000 0.000000 0.000000
0.080000 0.002000 0.000000
0.080000 0.004000 0.000000
0.080000 0.006000 0.000000
0.080000 0.008000 0.000000
0.080000 0.010000 0.000000
0.080000 0.012000 0.000000
0.080000 0.014000 0.000000
0.080000 0.016000 0.000000
0.080000 0.018000 0.000000
0.080000 0.020000 0.000000
0.080000 0.022000 0.000000
0.080000 0.024000 0.000000
0.080000 0.026000 0.000000
0.080000 0.028000 0.000000
0.080000 0.030000 0.000000
0.080000 0.032000 0.000000
0.080000 0.034000 0.000000
0.080000 0.036000 0.000000
0.080000 0.038000 0.000000
0.080000 0.040000 0.000000
0.080000 0.042000 0.000000
0.080000 0.044000 0.000000
0.080000 0.046000 0.000000
0.080000 0.048000 0.000000
0.080000 0.050000 0.000000
0.080000 0.052000 0.000000
0.080000 0.054000 0.000000
0.080000 0.056000 0.000000
0.080000 0.058000 0.000000
0.080000 0.060000 0.000000
0.080000 0.062000 0.000000
0.080000 0.064000 0.000000
0.080000 0.066000 0.000000
0.080000 0.068000 0.000000
0.080000 0.070000 0.000000
0.080000 0.072000 0.000000
0.080000 0.074000 0.000000
0.080000 0.076000 0.000000
0.080000 0.078000 0.000000
0.080000 0.080000 0.000000
0.080000 0.082000 0.000000
0.080000 0.084000 0.000000
0.080000 0.086000 0.000000
0.080000 0.088000 0.000000
0.080000 0.090000 0.000000
0.080000 0.092000 0.000000
0.080000 0.094000 0.000000
0.080000 0.096000 0.000000
0.080000 0.098000 0.000000
0.080000 0.100000 0.000000
0.080000 0.102000 0.000000
0.080000 0.104000 0.000000
0.080000 0.106000 0.000000
0.080000 0.108000 0.000000
0.080000 0.110000 0.000000
0.080000 0.112000 0.000000
0.080000 0.114000 0.000000
0.080000 0.116000 0.000000
0.080000 0.118000 0.000000
0.080000 0.120000 0.000000
0.080000 0.122000 0.000000
0.080000 0.124000 0.000000
0.080000 0.126000 0.000000
0.080000 0.128000 0.000000
0.080000 0.130000 0.000000
0.080000 0.132000 0.000000
0.080000 0.134000 0.000000
0.080000 0.136000 0.000000
0.080000 0.138000 0.000000
0.080000 0.140000 0.000000
0.080000 0.142000 0.000000
0.080000 0.144000 0.000000
0.080000 0.146000 0.000000
0.080000 0.148000 0.000000
0.080000 0.150000 0.000000
0.080000 0.152000 0.000000
0.080000 0.154000 0.000000
0.080000 0.156000 0.000000
0.080000 0.158000 0.000000
0.078000 0.160000 0.000000
0.076000 0.160000 0.000000
0.074000 0.160000 0.000000
0.072000 0.160000 0.000000
0.070000 0.160000 0.000000
0.068000 0.160000 0.000000
0.066000 0.160000 0.000000
0.064000 0.160000 0.000000
0.062000 0.160000 0.000000
0.060000 0.160000 0.000000
0.058000 0.160000 0.000000
0.056000 0.160000 0.000000
0.054000 0.160000 0.000000
0.052000 0.160000 0.000000
0.050000 0.160000 0.000000
0.048000 0.160000 0.000000
0.046000 0.160000 0.000000
0.044000 0.160000 0.000000
0.042000 0.160000 0.000000
0.040000 0.160000 0.000000
0.038000 0.160000 0.000000
0.036000 0.160000 0.000000
0.034000 0.160000 0.000000
0.032000 0.160000 0.000000
0.030000 0.160000 0.000000
0.028000 0.160000 0.000000
0.026000 0.160000 0.000000
0.024000 0.160000 0.000000
0.022000 0.160000 0.000000
0.020000 0.160000 0.000000
0.018000 0.160000 0.000000
0.016000 0.160000 0.000000
0.014000 0.160000 0.000000
0.012000 0.160000 0.000000
0.010000 0.160000 0.000000
0.008000 0.160000 0.000000
0.006000 0.160000 0.000000
0.004000 0.160000 0.000000
0.002000 0.160000 0.000000
0.000000 0.158000 0.000000
0.000000 0.156000 0.000000
0.000000 0.154000 0.000000
0.000000 0.152000 0.000000
0.000000 0.150000 0.000000
0.000000 0.148000 0.000000
0.000000 0.146000 0.000000
0.000000 0.144000 0.000000
0.000000 0.142000 0.000000
0.000000 0.140000 0.000000
0.000000 0.138000 0.000000
0.000000 0.136000 0.000000
0.000000 0.134000 0.000000
0.000000 0.132000 0.000000
0.000000 0.130000 0.000000
0.000000 0.128000 0.000000
0.000000 0.126000 0.000000
0.000000 0.124000 0.000000
0.000000 0.122000 0.000000
0.000000 0.120000 0.000000
0.000000 0.118000 0.000000
0.000000 0.116000 0.000000
0.000000 0.114000 0.000000
0.000000 0.112000 0.000000
0.000000 0.110000 0.000000
0.000000 0.108000 0.000000
0.000000 0.106000 0.000000
0.000000 0.104000 0.000000
0.000000 0.102000 0.000000
0.000000 0.100000 0.000000
0.000000 0.098000 0.000000
0.000000 0.096000 0.000000
0.000000 0.094000 0.000000
0.000000 0.092000 0.000000
0.000000 0.090000 0.000000
0.000000 0.088000 0.000000
0.000000 0.086000 0.000000
0.000000 0.084000 0.000000
0.000000 0.082000 0.000000
0.000000 0.080000 0.000000
0.000000 0.078000 0.000000
0.000000 0.076000 0.000000
0.000000 0.074000 0.000000
0.000000 0.072000 0.000000
0.000000 0.070000 0.000000
0.000000 0.068000 0.000000
0.000000 0.066000 0.000000
0.000000 0.064000 0.000000
0.000000 0.062000 0.000000
0.000000 0.060000 0.000000
0.000000 0.058000 0.000000
0.000000 0.056000 0.000000
0.000000 0.054000 0.000000
0.000000 0.052000 0.000000
0.000000 0.050000 0.000000
0.000000 0.048000 0.000000
0.000000 0.046000 0.000000
0.000000 0.044000 0.000000
0.000000 0.042000 0.000000
0.000000 0.040000 0.000000
0.000000 0.038000 0.000000
0.000000 0.036000 0.000000
0.000000 0.034000 0.000000
0.000000 0.032000 0.000000
0.000000 0.030000 0.000000
0.000000 0.028000 0.000000
0.000000 0.026000 0.000000
0.000000 0.024000 0.000000
0.000000 0.022000 0.000000
0.000000 0.020000 0.000000
0.000000 0.018000 0.000000
0.000000 0.016000 0.000000
0.000000 0.014000 0.000000
0.000000 0.012000 0.000000
0.000000 0.010000 0.000000
0.000000 0.008000 0.000000
0.000000 0.006000 0.000000
0.000000 0.004000 0.000000
0.000000 0.002000 0.000000
0.035411 0.076518 0.000000
0.035821 0.076786 0.000000
0.036232 0.077054 0.000000
0.036643 0.077321 0.000000
0.037054 0.077589 0.000000
0.037464 0.077857 0.000000
0.037875 0.078125 0.000000
0.038286 0.078393 0.000000
0.038696 0.078661 0.000000
0.039107 0.078929 0.000000
0.039518 0.079196 0.000000
0.039929 0.079464 0.000000
0.040339 0.079732 0.000000
0.040750 0.080000 0.000000
0.041161 0.080268 0.000000
0.041571 0.080536 0.000000
0.041982 0.080804 0.000000
0.042393 0.081071 0.000000
0.042804 0.081339 0.000000
0.043214 0.081607 0.000000
0.043625 0.081875 0.000000
0.044036 0.082143 0.000000
0.044446 0.082411 0.000000
0.044857 0.082679 0.000000
0.045268 0.082946 0.000000
0.045679 0.083214 0.000000
0.046089 0.083482 0.000000
0.040000 0.002000 0.000000
0.040001 0.158005 0.000000
0.002000 0.116000 0.000000
0.078000 0.048000 0.000000
0.002000 0.106000 0.000000
0.078000 0.058000 0.000000
0.001986 0.042173 0.000000
0.078015 0.117826 0.000000
0.001985 0.094174 0.000000
0.001985 0.084174 0.000000
0.001914 0.056074 0.000000
0.002000 0.072000 0.000000
0.078015 0.065826 0.000000
0.078016 0.075826 0.000000
0.078000 0.088000 0.000000
0.078000 0.104000 0.000000
0.078003 0.029997 0.000000
0.001998 0.130002 0.000000
0.002000 0.032000 0.000000
0.078013 0.128003 0.000000
0.056000 0.158000 0.000000
0.026000 0.002000 0.000000
0.060000 0.002000 0.000000
0.020000 0.158000 0.000000
0.002000 0.020000 0.000000
0.078000 0.142000 0.000000
0.002000 0.146000 0.000000
0.078000 0.020000 0.000000
0.016000 0.002000 0.000000
0.068000 0.002000 0.000000
0.066000 0.158000 0.000000
0.002000 0.014000 0.000000
0.008000 0.158000 0.000000
0.010000 0.002000 0.000000
0.078000 0.148000 0.000000
0.078000 0.008000 0.000000
0.078005 0.037995 0.000000
0.051991 0.001990 0.000000
0.028000 0.158000 0.000000
0.002000 0.008000 0.000000
0.078000 0.094000 0.000000
0.078000 0.110000 0.000000
0.001983 0.066159 0.000000
0.002000 0.050000 0.000000
0.046000 0.158000 0.000000
0.078000 0.134000 0.000000
0.002000 0.140000 0.000000
0.006000 0.002000 0.000000
0.002000 0.154000 0.000000
0.074000 0.002000 0.000000
0.078000 0.152000 0.000000
0.074000 0.158000 0.000000
0.078000 0.080000 0.000000
0.078000 0.070000 0.000000
0.078000 0.122000 0.000000
0.002000 0.090000 0.000000
0.002000 0.080000 0.000000
0.002000 0.038000 0.000000
0.002000 0.102000 0.000000
0.002000 0.112000 0.000000
0.036000 0.002000 0.000000
0.078000 0.042000 0.000000
0.032000 0.002000 0.000000
0.047987 0.001989 0.000000
0.032008 0.158010 0.000000
0.002000 0.028000 0.000000
0.002000 0.126000 0.000000
0.060000 0.158000 0.000000
0.022000 0.002000 0.000000
0.002000 0.136000 0.000000
0.078000 0.024000 0.000000
0.012000 0.158000 0.000000
0.078000 0.158000 0.000000
0.001947 0.003947 0.000000
0.002000 0.158000 0.000000
0.078000 0.012000 0.000000
0.078000 0.096000 0.000000
0.078000 0.098000 0.000000
0.078000 0.082000 0.000000
0.078111 0.099889 0.000000
0.078035 0.083965 0.000000
0.078000 0.090000 0.000000
0.078000 0.106000 0.000000
0.078000 0.072000 0.000000
0.078000 0.112000 0.000000
0.078043 0.061976 0.000000
0.078000 0.114000 0.000000
0.002000 0.064000 0.000000
0.002000 0.062000 0.000000
0.002000 0.088000 0.000000
0.002000 0.078000 0.000000
0.002000 0.060000 0.000000
0.001966 0.076034 0.000000
0.002000 0.070000 0.000000
0.002000 0.054000 0.000000
0.001957 0.098024 0.000000
0.002000 0.048000 0.000000
0.002000 0.046000 0.000000
[...]
POINT_DATA 5510
SCALARS UX float 1
LOOKUP_TABLE default
0.005591
0.061786
0.000002
-0.055123
0.000385
0.007183
0.006997
0.008405
0.009812
0.011221
0.012630
0.014041
0.015452
0.016863
0.018275
0.019686
0.021098
0.022508
0.023917
0.025324
0.026730
0.028134
0.029537
0.030937
0.032337
0.033734
0.035130
0.036525
0.037919
0.039312
0.040705
0.042098
0.043491
0.044885
0.046280
0.047677
0.049075
0.050475
0.051878
0.053283
0.054691
0.056102
0.057518
0.058939
0.060360
0.061045
0.060310
0.059583
0.058857
0.058140
0.057424
0.056716
0.056009
0.055305
0.054604
0.053904
0.053212
0.052520
0.051832
0.051147
0.050464
0.049781
0.049099
0.048415
0.047728
0.047036
0.046345
0.045649
0.044946
0.044246
0.043532
0.042813
0.042087
0.041358
0.040625
0.039887
0.039147
0.038406
0.037662
0.036915
0.036168
0.035418
0.034667
0.033915
0.033161
0.032406
0.031647
0.030880
0.030104
0.029324
0.028507
0.027661
0.026795
0.025868
0.024860
0.023848
0.022821
0.021792
0.020815
0.019881
0.018998
0.018126
0.017326
0.016536
0.015766
0.015013
0.014263
0.013525
0.012789
0.012055
0.011324
0.010593
0.009862
0.009132
0.008404
0.007676
0.006948
0.006224
0.005502
0.004781
0.004066
0.003333
0.002534
0.001508
-0.000015
-0.001452
-0.002916
-0.004373
-0.005809
-0.007239
-0.008670
-0.010096
-0.011518
-0.012939
-0.014356
-0.015771
-0.017185
-0.018596
-0.020006
-0.021412
-0.022816
-0.024219
-0.025620
-0.027018
-0.028416
-0.029812
-0.031207
-0.032601
-0.033995
-0.035389
-0.036783
-0.038178
-0.039574
-0.040971
-0.042371
-0.043773
-0.045179
-0.046587
-0.047999
-0.049414
-0.050835
-0.052262
-0.053690
-0.054378
-0.053643
-0.052908
-0.052188
-0.051471
-0.050757
-0.050049
-0.049346
-0.048644
-0.047945
-0.047249
-0.046559
-0.045867
-0.045182
-0.044499
-0.043815
-0.043130
-0.042446
-0.041760
-0.041073
-0.040382
-0.039690
-0.038992
-0.038288
-0.037585
-0.036869
-0.036150
-0.035424
-0.034696
-0.033963
-0.033226
-0.032488
-0.031747
-0.031004
-0.030258
-0.029513
-0.028763
-0.028012
-0.027260
-0.026505
-0.025750
-0.024990
-0.024223
-0.023447
-0.022669
-0.021860
-0.021028
-0.020164
-0.019275
-0.018298
-0.017303
-0.016304
-0.015295
-0.014311
-0.013360
-0.012423
-0.011579
-0.010758
-0.009950
-0.009162
-0.008395
-0.007635
-0.006892
-0.006153
-0.005416
-0.004680
-0.003946
-0.003213
-0.002481
-0.001749
-0.001016
-0.000283
0.000450
0.001183
0.001916
0.002650
0.003384
0.004119
0.004855
0.000644
0.000908
0.001274
0.001629
0.001911
0.002115
0.002336
0.002581
0.002743
0.002983
0.003189
0.003358
0.003583
0.003808
0.004072
0.004324
0.004582
0.004837
0.005071
0.005259
0.005451
0.005630
0.005845
0.006049
0.006299
0.006579
0.006843
0.033000
-0.026285
-0.038253
0.043519
-0.034748
0.039962
-0.008556
0.015149
-0.030437
-0.026705
-0.014852
-0.022062
0.037095
0.033362
0.028721
0.021244
0.049682
-0.043035
-0.004726
0.011371
-0.015029
0.023177
0.046946
-0.040240
-0.000337
0.006258
-0.048602
0.053153
0.016124
0.052548
-0.007930
0.001858
-0.048673
0.011892
0.004075
0.057427
0.046958
0.041366
-0.034659
0.004057
0.026239
0.018346
-0.019682
-0.011803
-0.022079
0.009174
-0.046490
0.009076
-0.051473
0.056775
0.002614
-0.002248
0.031780
0.035532
0.013568
-0.028875
-0.025124
-0.006944
-0.033303
-0.036869
0.030202
0.045588
0.027397
0.038576
-0.031868
-0.003260
-0.041669
-0.012195
0.020357
-0.045096
0.051749
-0.045850
0.000239
0.005507
-0.052940
0.055989
0.025334
0.024355
0.031024
0.023470
0.030300
0.027919
0.020234
0.034785
0.017469
0.038537
0.016641
-0.018724
-0.017774
-0.028128
-0.024367
-0.016780
-0.023640
-0.021265
-0.013740
-0.031878
-0.010918
-0.010081
0.041405
0.044919
0.042819
-0.036166
-0.039624
0.012830
-0.006199
0.035793
-0.029079
-0.024884
0.048321
-0.020673
-0.019266
-0.040988
0.025993
0.044156
-0.037448
-0.002529
0.010640
0.008444
-0.001798
0.007716
-0.044406
-0.017855
0.051058
-0.047897
-0.010775
0.018946
0.049742
-0.043039
0.005530
0.054566
-0.050032
0.000394
0.002591
-0.006503
0.014713
-0.005082
0.001875
-0.051511
0.007607
0.006120
0.058879
0.055363
0.059614
-0.035466
0.042109
-0.027518
-0.023799
-0.020690
-0.015370
-0.010315
0.030461
0.027351
0.021973
0.034177
0.016083
-0.025536
-0.039553
0.009942
-0.005529
0.026655
-0.017131
-0.001843
0.006304
0.019619
-0.043640
0.050297
-0.011458
0.001805
0.015387
-0.047163
-0.005799
0.019707
0.043549
0.003267
0.001169
0.056039
0.029007
0.022951
0.024819
-0.022344
-0.016378
-0.018194
-0.008701
0.027212
0.029609
0.022441
0.032671
0.034084
0.019396
0.036413
0.015899
-0.020568
-0.027426
-0.022948
-0.029754
-0.015822
-0.026013
-0.012811
-0.009322
0.037804
-0.031145
0.039272
-0.032613
0.040724
0.014486
-0.034064
-0.007875
0.042151
-0.035495
-0.037654
0.044239
-0.038964
0.046288
-0.040321
0.034391
-0.027676
0.031597
-0.023478
0.037181
-0.030469
0.012119
-0.005484
0.047641
0.028797
0.039969
-0.033260
-0.019929
0.042759
-0.036050
-0.042352
-0.003999
0.009909
0.048998
-0.001113
0.024585
0.007757
-0.016443
0.045549
-0.038842
-0.001070
0.006989
-0.043718
0.050366
-0.045791
-0.013613
0.021768
-0.047192
0.052448
-0.009354
0.017535
-0.041638
0.048343
-0.044443
0.051143
0.004802
0.001126
-0.047260
0.053857
-0.049315
0.003349
0.055275
0.003323
0.013302
-0.050749
-0.003662
0.056704
0.001091
0.010483
0.004791
-0.050089
0.006932
0.053954
-0.000906
-0.050772
-0.052201
0.058150
0.057455
0.058192
-0.031422
0.038078
-0.014082
0.036449
0.020620
-0.000429
-0.032555
0.042044
-0.038115
0.047611
0.053840
-0.043709
0.003384
0.046219
0.030912
-0.046522
-0.049317
0.025767
0.014507
-0.019123
0.036611
0.034977
-0.029952
-0.028311
0.032715
0.031244
-0.026055
-0.024574
0.039489
-0.032833
0.012974
-0.004060
-0.029737
-0.002576
0.047533
0.008495
-0.040903
0.023848
0.021029
0.016798
0.050410
-0.045745
-0.044337
0.012566
0.004731
-0.047878
0.052417
0.050997
-0.003005
0.000401
0.055277
0.055306
0.026526
0.028113
-0.019868
0.020859
-0.021447
0.015403
-0.014286
-0.011267
0.042851
0.033449
-0.026788
-0.007897
-0.006313
-0.036193
-0.037532
0.017727
0.018727
0.040742
0.041415
-0.034092
-0.034766
-0.026992
0.023956
0.029746
-0.038877
-0.017335
-0.023082
0.016921
0.044857
0.044196
-0.009542
-0.004801
0.010687
0.039239
0.028095
-0.021320
0.033707
-0.022786
0.009226
-0.040236
-0.035330
-0.015725
0.025250
0.048905
0.049598
-0.042257
-0.042947
0.005572
0.044823
-0.000391
0.001076
-0.018530
0.007034
0.018211
-0.024163
-0.012874
-0.040907
-0.008624
-0.010043
-0.007206
-0.046451
0.013977
0.053218
0.002535
0.003998
0.009748
0.054627
-0.004399
0.008340
0.056724
0.001916
-0.000371
-0.050042
0.006198
-0.049350
-0.004916
0.042825
-0.032998
0.013841
-0.023261
-0.027038
-0.018688
-0.023321
0.033709
0.029977
0.025225
-0.037507
0.009290
-0.016397
0.027320
0.047463
0.005627
-0.040811
0.020291
-0.009320
0.002488
0.016064
-0.044302
0.005407
-0.009886
-0.013094
0.016504
-0.003725
0.027095
-0.020477
-0.006610
0.041569
0.022615
-0.016035
-0.001166
-0.003407
-0.038800
0.024515
0.013242
0.004113
-0.045728
0.000488
0.019372
0.024444
0.015575
-0.017834
0.032004
0.035762
-0.025343
-0.029103
0.037340
-0.030682
-0.036868
0.028439
0.021468
-0.015016
0.038810
-0.032154
-0.007176
-0.021769
0.013605
-0.038156
-0.013123
-0.011818
-0.021981
-0.026188
-0.031106
0.032292
-0.025628
0.045542
-0.033416
-0.008200
0.040067
0.040614
0.029475
0.032280
0.037817
0.012192
0.011446
0.046883
-0.003322
0.040132
-0.014290
0.048225
-0.033942
-0.041577
0.004887
0.007822
-0.019194
0.022435
0.000336
-0.033497
-0.034854
0.043433
-0.036722
0.048160
0.049555
0.000288
-0.041503
-0.042891
-0.012141
-0.007906
0.007078
0.046217
-0.039511
-0.045040
0.017479
-0.028357
0.051705
0.003946
0.004844
-0.042306
0.049009
-0.006505
0.051813
0.053125
0.053894
0.011157
0.002651
-0.048595
0.054557
0.007605
-0.045113
0.054578
0.055998
0.005464
-0.001017
-0.001669
-0.048618
-0.047934
0.035072
0.017407
-0.031644
-0.016679
-0.012760
0.023398
-0.021370
-0.039385
0.006415
0.035727
0.046040
0.000234
-0.031829
0.041316
0.048276
-0.008602
-0.037385
0.016739
0.051694
0.037291
-0.041575
0.053164
-0.044381
0.020201
-0.030639
0.044790
0.004210
-0.012149
0.030474
-0.023991
-0.029176
-0.027536
0.035829
0.034202
0.030183
-0.040142
-0.013566
0.001745
0.021695
0.050266
0.003433
0.006139
-0.047201
-0.010552
0.031695
-0.025038
-0.005640
0.015389
-0.019818
0.026226
0.014680
-0.031514
0.038143
0.039634
-0.013964
0.042174
-0.032407
-0.036195
-0.035452
-0.036865
0.029118
-0.022478
0.027552
0.010009
0.011639
-0.020915
0.028699
-0.029011
-0.027543
0.023437
-0.016804
0.032948
-0.026285
0.018339
-0.004152
0.046774
0.043483
-0.008998
0.038507
0.013147
-0.039465
-0.038144
0.032938
-0.014999
-0.034128
0.001009
0.023110
0.008555
0.025904
-0.033224
-0.001894
-0.002668
0.040755
-0.007431
0.048854
0.042707
-0.017795
0.045444
-0.020585
-0.042193
-0.043595
0.006358
0.004163
0.001686
-0.038780
0.045487
0.003214
0.018885
0.051079
-0.010730
0.014651
-0.007204
0.004674
-0.034606
0.002697
0.001230
0.052485
0.053132
0.053854
0.010423
0.011833
0.006872
0.009013
-0.045015
-0.005113
-0.046448
-0.047891
-0.024813
-0.002370
-0.000264
0.041453
0.036207
-0.023802
-0.020817
-0.006973
-0.012343
0.030471
0.027553
0.029359
-0.031126
0.040600
-0.036662
-0.014277
-0.007896
-0.042164
0.004620
-0.034951
0.002028
-0.003536
0.023783
0.038277
0.032628
-0.025953
0.006085
0.013920
0.011099
-0.044302
-0.046471
-0.025460
0.022418
0.017960
0.025801
0.023980
-0.019226
-0.017406
-0.015796
0.040259
0.016091
-0.008603
0.045381
0.004951
0.028792
0.020963
0.047425
0.018146
0.007548
-0.000189
-0.003051
-0.022726
-0.036125
-0.037400
-0.038720
0.021167
0.019312
-0.034261
0.014412
0.012666
-0.014811
0.034907
-0.028248
-0.030882
-0.029576
-0.029865
0.036517
0.039083
0.012415
0.010836
0.031087
-0.024413
-0.011767
-0.020006
-0.018458
-0.002770
-0.026933
0.007133
0.008649
-0.001240
-0.030430
-0.032195
-0.005427
0.044142
0.039918
-0.012824
0.037119
0.005689
0.034303
0.002403
0.038798
0.046735
0.026570
-0.033476
-0.040762
-0.040073
-0.000509
0.050978
-0.035991
0.044095
0.000962
0.003487
0.015329
0.048835
-0.011414
-0.010005
-0.017067
0.046097
-0.032501
-0.040174
0.049675
-0.042873
0.046879
0.003161
0.001968
0.051755
0.051714
0.052412
-0.005812
-0.042977
-0.001673
0.052438
0.009689
0.008280
-0.045788
-0.047167
0.031554
-0.022056
-0.011272
0.030917
-0.024253
-0.002173
-0.029783
0.036960
-0.016191
-0.022827
0.022053
0.029406
-0.020653
0.005768
0.001624
-0.037315
-0.030407
0.043956
0.002819
0.017414
0.044757
-0.040743
-0.024864
0.003808
-0.040843
0.020086
0.011034
-0.027305
-0.028850
0.033962
0.035465
0.036697
-0.017731
-0.013505
0.009442
0.032211
0.042728
0.035001
-0.038652
0.045317
-0.035283
0.014598
0.000552
0.047544
0.050348
-0.045746
-0.013175
-0.023092
0.029720
0.012021
0.024929
0.026738
-0.018191
-0.004319
-0.019984
-0.026388
0.033049
0.013654
0.040808
0.037438
0.017024
-0.010948
0.014146
-0.007719
-0.011432
-0.015428
-0.002045
0.031801
0.007933
-0.025131
-0.030376
-0.030124
0.030732
0.044044
-0.038065
0.044702
0.039211
0.018009
-0.006143
0.004289
0.042088
0.028093
0.036416
0.000182
-0.032808
-0.036734
-0.033880
0.022364
0.002764
0.049553
0.050994
-0.010691
0.019548
0.002359
-0.041462
-0.029739
-0.028319
0.027950
0.005349
0.039397
-0.009291
0.001288
0.048127
-0.015670
-0.043585
-0.006506
0.003891
0.012508
-0.042246
-0.045059
0.010367
0.041981
-0.045023
-0.038049
0.050301
0.051027
0.006815
-0.002339
-0.000932
0.008957
-0.004426
0.025175
-0.024098
-0.035497
-0.021357
-0.022928
-0.009240
-0.013834
0.029311
0.021761
-0.028093
0.034747
0.018392
0.026486
0.040059
-0.028801
0.033652
-0.006471
-0.014983
-0.010019
0.031362
0.003003
0.024446
0.038501
-0.033695
-0.009976
0.047430
-0.035932
0.006028
-0.027000
-0.024856
0.031521
0.000625
0.049580
-0.040118
-0.042166
-0.020887
0.027718
0.012118
0.038895
0.026374
0.024632
0.023190
0.034987
0.036357
-0.000553
-0.023508
-0.019711
-0.034768
-0.014893
-0.040038
0.021633
0.018816
-0.007194
0.011776
-0.003729
0.028614
-0.022179
0.028867
-0.017947
-0.011783
0.021221
0.016647
0.014732
-0.003127
-0.004425
-0.028497
0.013083
-0.029131
-0.009630
-0.010713
0.010205
-0.001410
-0.014594
-0.010114
0.030527
-0.019109
0.006537
-0.023902
0.010853
-0.022014
0.008124
-0.027660
-0.026222
-0.036014
0.042644
0.018936
-0.016351
0.005039
0.037801
0.003069
0.040684
-0.030919
0.033577
-0.037970
0.037464
-0.039341
0.044628
-0.033176
-0.031778
-0.032152
0.000829
-0.012088
0.003564
0.043369
0.043366
-0.023275
0.029955
0.006761
0.009634
-0.036657
0.016003
-0.000123
-0.001603
-0.039440
-0.041453
0.013190
0.048942
0.050272
0.002097
-0.004797
0.046014
-0.005119
0.046150
0.048901
-0.044332
0.007494
0.004555
0.049623
0.008226
-0.043649
0.025844
-0.043604
0.039873
0.043287
-0.029042
-0.008243
0.020728
0.017410
-0.026309
0.032966
0.011284
0.025607
-0.016843
-0.001656
0.038657
-0.025125
0.031783
-0.021029
0.021800
0.027824
0.017613
-0.022657
0.005186
-0.034663
-0.017105
-0.028330
0.025115
0.041890
-0.037247
0.037777
0.018084
0.002174
0.005192
-0.039335
0.030098
-0.023426
0.007435
-0.000797
0.043910
0.013869
0.044027
0.048176
0.042004
-0.031082
-0.038718
0.048861
0.011042
0.008905
-0.042201
0.019352
-0.015692
0.031872
-0.025213
0.023847
-0.003223
0.024465
-0.018685
-0.032792
-0.027340
0.035664
0.039438
-0.027891
-0.009225
0.015714
-0.028160
-0.007518
0.026974
0.034356
0.007326
0.009801
0.008834
0.034229
-0.018660
-0.035408
-0.024145
0.032713
-0.013355
-0.014146
0.041313
0.003647
-0.025592
-0.020226
-0.034149
-0.015563
0.035688
-0.029194
0.020866
0.037097
0.028332
-0.021632
0.035701
-0.021659
0.002150
0.000448
-0.035912
0.016041
0.001373
-0.037939
-0.012763
0.042558
-0.031510
0.023043
0.046718
0.038048
0.020213
-0.037319
0.048144
-0.011368
0.048210
0.016681
0.005287
-0.040043
-0.008581
-0.003008
-0.041516
0.000711
0.045424
0.003727
-0.000857
0.028196
-0.005609
-0.034555
-0.004413
-0.005806
-0.042925
-0.042884
0.041249
0.027222
-0.000869
0.029986
0.029437
-0.022759
-0.009135
0.013091
-0.019939
0.025596
-0.012380
-0.010899
0.032330
-0.025671
0.023459
-0.003598
0.010293
-0.017317
0.012993
-0.018642
-0.000340
-0.027485
-0.022327
-0.018577
0.029001
-0.014613
-0.008782
0.020543
-0.022109
0.003573
-0.016241
0.040489
-0.035871
0.017351
-0.010653
0.009367
-0.037936
-0.035204
-0.037999
0.030620
-0.012358
0.043309
-0.007056
-0.025768
0.031301
-0.024646
0.037613
-0.005230
0.039970
0.026504
0.022304
-0.006484
0.006685
0.019479
-0.008314
0.045312
0.010311
-0.003676
-0.041476
-0.040798
-0.003549
0.041230
-0.017479
0.008392
-0.027259
0.011737
0.038072
0.030587
-0.023935
-0.026761
0.033143
0.033917
0.001216
0.014372
0.025420
-0.017902
-0.019750
0.035240
0.005953
-0.033459
-0.032470
-0.031462
-0.020416
0.032339
0.039287
-0.023566
0.004424
0.027108
0.004440
0.036391
0.016771
-0.000027
0.028877
-0.022177
-0.013800
0.033607
-0.035287
-0.029660
0.036159
0.005941
-0.029691
-0.010584
0.002920
0.032425
0.023711
0.044607
-0.030839
0.047459
-0.001528
-0.014157
0.042633
-0.036580
-0.009266
0.012451
-0.040756
0.008165
0.043224
-0.002271
0.001440
0.047502
-0.038626
0.004362
0.027887
0.026492
0.015274
0.015239
0.046027
-0.032454
0.046814
0.039144
0.019981
-0.034039
0.013603
-0.021297
-0.026970
0.024733
0.023390
-0.000010
0.018483
0.007559
-0.016336
0.022371
-0.002308
0.012127
0.024482
-0.033506
-0.004728
-0.026496
0.036612
-0.025733
0.031300
-0.019943
-0.013507
0.024341
0.026733
0.015638
-0.021566
0.004645
-0.032206
0.031254
0.025759
0.004924
0.037048
-0.029006
0.042517
0.001540
-0.009942
0.006565
-0.000681
-0.024661
-0.030153
-0.016900
0.013197
0.018146
0.001671
0.038067
0.039841
-0.020768
-0.033310
0.010894
0.011892
0.018745
0.023397
0.008076
0.014547
0.043915
0.022961
0.041914
-0.037235
0.011716
0.046107
0.021240
-0.002086
0.029222
-0.022562
-0.012717
0.034583
-0.006135
0.002709
0.006862
0.027287
0.028377
-0.020589
-0.021693
-0.018976
-0.008300
-0.032951
-0.019282
-0.019323
0.003048
0.025507
0.030219
-0.023570
-0.027949
-0.034566
-0.001437
-0.002940
0.014125
-0.009595
0.034968
-0.035205
0.019762
-0.011311
0.010182
0.040523
-0.036555
0.020875
-0.030230
-0.026262
-0.026194
0.046743
-0.040078
-0.008016
-0.036589
-0.005078
0.044694
-0.012035
0.036710
-0.014827
0.046066
-0.039387
0.015949
-0.033824
0.041160
0.046782
0.009578
-0.007875
0.000808
0.005083
-0.038644
-0.030365
0.000423
-0.004372
0.025903
0.029257
0.040598
-0.024913
0.017433
-0.015203
-0.016615
0.008843
0.022863
0.007379
-0.001063
0.010476
-0.032253
-0.017795
-0.026202
0.033358
-0.001039
-0.018456
-0.007727
0.020201
0.016987
0.025822
0.012817
0.038456
-0.014135
-0.028293
-0.033214
-0.035176
0.000189
0.018021
-0.005732
-0.002082
0.041197
0.033352
-0.011277
-0.035861
-0.007163
-0.017526
-0.018098
-0.007343
0.005517
0.022461
-0.036547
-0.011321
-0.004337
-0.038685
0.010980
0.045349
0.015225
0.039209
-0.024194
0.000910
-0.003926
-0.020486
0.036266
0.032311
0.006206
0.032433
0.004127
0.024899
-0.031183
-0.019109
0.014909
-0.025361
-0.025227
0.037443
-0.026300
0.003875
0.019040
0.027845
-0.021148
0.005810
-0.009532
-0.032728
0.023697
0.012462
0.021879
0.034267
0.019456
0.016415
0.026081
-0.028422
-0.012816
-0.027604
0.002303
0.007324
0.043994
0.043220
0.024358
-0.021267
-0.033926
-0.023938
0.030667
0.027944
0.021542
0.044628
0.013133
-0.013422
0.008831
-0.018696
-0.039360
-0.002189
0.034864
0.020128
0.000072
0.011476
-0.029556
-0.008552
0.044678
0.039095
0.038604
-0.033112
-0.031730
0.027152
0.005705
-0.002968
-0.002252
0.045391
0.041832
0.038414
-0.033846
0.035686
0.001190
-0.015666
-0.022879
0.029904
-0.015499
0.010980
-0.030945
-0.031680
0.008177
0.007703
0.009450
0.032210
-0.016403
0.029675
-0.023014
0.007278
-0.024077
0.030177
-0.012507
-0.017629
0.023315
0.019147
-0.021129
0.026428
0.037072
0.005441
0.032188
0.036322
-0.031889
0.041136
-0.010606
0.035873
-0.023562
-0.030882
-0.028869
0.007981
0.010624
0.017770
-0.007844
0.022275
0.015135
0.013456
-0.001302
0.034528
-0.026940
0.012377
0.043297
0.042540
0.043973
0.023617
-0.003597
-0.037975
-0.031027
0.006171
0.003347
0.009445
0.028724
-0.022068
-0.012170
0.024544
0.025213
-0.006952
-0.018117
0.032811
0.036634
0.037821
-0.004922
0.018640
0.002992
0.020900
0.004502
0.030568
-0.024715
0.016200
0.002511
0.000944
-0.000544
-0.008692
0.033942
-0.032012
0.026345
0.027376
-0.020687
-0.032609
-0.019642
-0.022489
0.029150
-0.025536
-0.026763
-0.005756
-0.010108
0.013822
-0.037238
0.009488
-0.034502
-0.028981
-0.002819
-0.037246
0.010248
0.039794
0.022208
0.019405
-0.007130
0.012072
-0.014097
-0.012691
-0.029653
0.042589
-0.029907
0.001677
0.016616
0.028519
-0.035851
0.006424
0.039765
0.006251
0.033589
-0.034477
0.035371
-0.025020
0.000194
-0.016776
-0.022213
-0.016289
-0.017824
-0.015522
-0.014736
0.008919
-0.001339
-0.002728
0.031146
0.028570
-0.021906
-0.019272
0.030018
-0.023476
-0.021029
-0.007345
0.023878
0.015177
0.003074
-0.020209
0.006752
0.030052
0.022859
0.018678
-0.027612
-0.000383
-0.016979
0.011735
-0.033807
0.002157
0.032155
0.033541
-0.010741
-0.006141
0.019758
-0.023949
0.016888
0.024981
-0.014350
-0.002700
-0.004219
-0.033761
-0.035180
0.014488
0.010898
0.042594
0.039113
0.036454
0.034793
-0.036603
0.000111
0.027791
-0.013141
-0.016598
-0.020259
0.008489
0.026941
0.027681
-0.005523
-0.003610
-0.011810
0.023963
-0.017198
0.034932
0.014236
-0.008407
-0.024027
0.004482
0.022719
-0.009884
0.011370
-0.006473
0.026889
-0.020186
0.002008
-0.018181
0.007162
-0.030455
-0.015919
0.032775
-0.030670
-0.024915
-0.023519
0.031159
0.001731
-0.027211
-0.028291
0.021321
-0.032491
0.008702
-0.031436
0.043260
0.018464
0.037696
0.040457
0.025015
-0.022931
0.037221
0.002445
-0.013351
-0.014795
0.029574
-0.028961
0.020806
-0.009220
-0.025180
0.017288
0.029151
0.013055
0.034863
-0.032391
0.037725
-0.011984
0.007034
-0.004990
-0.001140
0.011640
0.041918
0.034958
0.005071
0.041830
-0.031280
-0.006051
0.031511
0.006534
-0.017487
0.009865
-0.029402
-0.001956
0.007964
-0.020104
0.007495
-0.012191
-0.009107
0.018237
0.001757
-0.029371
0.029510
0.035087
-0.026920
0.035609
-0.014016
-0.001695
-0.027603
-0.023824
0.017944
-0.009885
0.039750
-0.002363
0.005707
0.031016
0.022351
0.020231
-0.006977
0.004822
0.029962
-0.022475
0.025758
0.010255
0.008558
-0.028789
-0.031685
-0.022897
0.010120
0.041215
0.035871
-0.030540
0.020061
0.000398
0.023095
-0.015733
-0.014754
0.034051
0.021495
-0.016322
-0.018979
-0.004467