# vtk DataFile Version 2.0
Test
ASCII
DATASET POLYDATA
POINTS 5510 float
0.000000 0.000000 0.000000
0.080000 0.000000 0.000000
0.080000 0.160000 0.000000
0.000000 0.160000 0.000000
0.035000 0.076250 0.000000
0.046500 0.083750 0.000000
0.002000 0.000000 0.000000
0.004000 0.000000 0.000000
0.006000 0.000000 0.000000
0.008000 0.000000 0.000000
0.010000 0.000000 0.000000
0.012000 0.000000 0.000000
0.014000 0.000000 0.000000
0.016000 0.000000 0.000000
0.018000 0.000000 0.000000
0.020000 0.000000 0.000000
0.022000 0.000000 0.000000
0.024000 0.000000 0.000000
0.026000 0.000000 0.000000
0.028000 0.000000 0.000000
0.030000 0.000000 0.000000
0.032000 0.000000 0.000000
0.034000 0.000000 0.000000
0.036000 0.000000 0.000000
0.038000 0.000000 0.000000
0.040000 0.000000 0.000000
0.042000 0.000000 0.000000
0.044000 0.000000 0.000000
0.046000 0.000000 0.000000
0.048000 0.000000 0.000000
0.050000 0.000000 0.000000
0.052000 0.000000 0.000000
0.054000 0.000000 0.000000
0.056000 0.000000 0.000000
0.058000 0.000000 0.000000
0.060000 0.000000 0.000000
0.062000 0.000000 0.000000
0.064000 0.000000 0.000000
0.066000 0.000000 0.000000
0.068000 0.000000 0.000000
0.070000 0.000000 0.000000
0.072000 0.000000 0.000000
0.074000 0.000000 0.000000
0.076000 0.000000 0.000000
0.078000 0.000000 0.000000
0.080000 0.002000 0.000000
0.080000 0.004000 0.000000
0.080000 0.006000 0.000000
0.080000 0.008000 0.000000
0.080000 0.010000 0.000000
0.080000 0.012000 0.000000
0.080000 0.014000 0.000000
0.080000 0.016000 0.000000
0.080000 0.018000 0.000000
0.080000 0.020000 0.000000
0.080000 0.022000 0.000000
0.080000 0.024000 0.000000
0.080000 0.026000 0.000000
0.080000 0.028000 0.000000
0.080000 0.030000 0.000000
0.080000 0.032000 0.000000
0.080000 0.034000 0.000000
0.080000 0.036000 0.000000
0.080000 0.038000 0.000000
0.080000 0.040000 0.000000
0.080000 0.042000 0.000000
0.080000 0.044000 0.000000
0.080000 0.046000 0.000000
0.080000 0.048000 0.000000
0.080000 0.050000 0.000000
0.080000 0.052000 0.000000
0.080000 0.054000 0.000000
0.080000 0.056000 0.000000
0.080000 0.058000 0.000000
0.080000 0.060000 0.000000
0.080000 0.062000 0.000000
0.080000 0.064000 0.000000
0.080000 0.066000 0.000000
0.080000 0.068000 0.000000
0.080000 0.070000 0.000000
0.080000 0.072000 0.000000
0.080000 0.074000 0.000000
0.080000 0.076000 0.000000
0.080000 0.078000 0.000000
0.080000 0.080000 0.000000
0.080000 0.082000 0.000000
0.080000 0.084000 0.000000
0.080000 0.086000 0.000000
0.080000 0.088000 0.000000
0.080000 0.090000 0.000000
0.080000 0.092000 0.000000
0.080000 0.094000 0.000000
0.080000 0.096000 0.000000
0.080000 0.098000 0.000000
0.080000 0.100000 0.000000
0.080000 0.102000 0.000000
0.080000 0.104000 0.000000
0.080000 0.106000 0.000000
0.080000 0.108000 0.000000
0.080000 0.110000 0.000000
0.080000 0.112000 0.000000
0.080000 0.114000 0.000000
0.080000 0.116000 0.000000
0.080000 0.118000 0.000000
0.080000 0.120000 0.000000
0.080000 0.122000 0.000000
0.080000 0.124000 0.000000
0.080000 0.126000 0.000000
0.080000 0.128000 0.000000
0.080000 0.130000 0.000000
0.080000 0.132000 0.000000
0.080000 0.134000 0.000000
0.080000 0.136000 0.000000
0.080000 0.138000 0.000000
0.080000 0.140000 0.000000
0.080000 0.142000 0.000000
0.080000 0.144000 0.000000
0.080000 0.146000 0.000000
0.080000 0.148000 0.000000
0.080000 0.150000 0.000000
0.080000 0.152000 0.000000
0.080000 0.154000 0.000000
0.080000 0.156000 0.000000
0.080000 0.158000 0.000000
0.078000 0.160000 0.000000
0.076000 0.160000 0.000000
0.074000 0.160000 0.000000
0.072000 0.160000 0.000000
0.070000 0.160000 0.000000
0.068000 0.160000 0.000000
0.066000 0.160000 0.000000
0.064000 0.160000 0.000000
0.062000 0.160000 0.000000
0.060000 0.160000 0.000000
0.058000 0.160000 0.000000
0.056000 0.160000 0.000000
0.054000 0.160000 0.000000
0.052000 0.160000 0.000000
0.050000 0.160000 0.000000
0.048000 0.160000 0.000000
0.046000 0.160000 0.000000
0.044000 0.160000 0.000000
0.042000 0.160000 0.000000
0.040000 0.160000 0.000000
0.038000 0.160000 0.000000
0.036000 0.160000 0.000000
0.034000 0.160000 0.000000
0.032000 0.160000 0.000000
0.030000 0.160000 0.000000
0.028000 0.160000 0.000000
0.026000 0.160000 0.000000
0.024000 0.160000 0.000000
0.022000 0.160000 0.000000
0.020000 0.160000 0.000000
0.018000 0.160000 0.000000
0.016000 0.160000 0.000000
0.014000 0.160000 0.000000
0.012000 0.160000 0.000000
0.010000 0.160000 0.000000
0.008000 0.160000 0.000000
0.006000 0.160000 0.000000
0.004000 0.160000 0.000000
0.002000 0.160000 0.000000
0.000000 0.158000 0.000000
0.000000 0.156000 0.000000
0.000000 0.154000 0.000000
0.000000 0.152000 0.000000
0.000000 0.150000 0.000000
0.000000 0.148000 0.000000
0.000000 0.146000 0.000000
0.000000 0.144000 0.000000
0.000000 0.142000 0.000000
0.000000 0.140000 0.000000
0.000000 0.138000 0.000000
0.000000 0.136000 0.000000
0.000000 0.134000 0.000000
0.000000 0.132000 0.000000
0.000000 0.130000 0.000000
0.000000 0.128000 0.000000
0.000000 0.126000 0.000000
0.000000 0.124000 0.000000
0.000000 0.122000 0.000000
0.000000 0.120000 0.000000
0.000000 0.118000 0.000000
0.000000 0.116000 0.000000
0.000000 0.114000 0.000000
0.000000 0.112000 0.000000
0.000000 0.110000 0.000000
0.000000 0.108000 0.000000
0.000000 0.106000 0.000000
0.000000 0.104000 0.000000
0.000000 0.102000 0.000000
0.000000 0.100000 0.000000
0.000000 0.098000 0.000000
0.000000 0.096000 0.000000
0.000000 0.094000 0.000000
0.000000 0.092000 0.000000
0.000000 0.090000 0.000000
0.000000 0.088000 0.000000
0.000000 0.086000 0.000000
0.000000 0.084000 0.000000
0.000000 0.082000 0.000000
0.000000 0.080000 0.000000
0.000000 0.078000 0.000000
0.000000 0.076000 0.000000
0.000000 0.074000 0.000000
0.000000 0.072000 0.000000
0.000000 0.070000 0.000000
0.000000 0.068000 0.000000
0.000000 0.066000 0.000000
0.000000 0.064000 0.000000
0.000000 0.062000 0.000000
0.000000 0.060000 0.000000
0.000000 0.058000 0.000000
0.000000 0.056000 0.000000
0.000000 0.054000 0.000000
0.000000 0.052000 0.000000
0.000000 0.050000 0.000000
0.000000 0.048000 0.000000
0.000000 0.046000 0.000000
0.000000 0.044000 0.000000
0.000000 0.042000 0.000000
0.000000 0.040000 0.000000
0.000000 0.038000 0.000000
0.000000 0.036000 0.000000
0.000000 0.034000 0.000000
0.000000 0.032000 0.000000
0.000000 0.030000 0.000000
0.000000 0.028000 0.000000
0.000000 0.026000 0.000000
0.000000 0.024000 0.000000
0.000000 0.022000 0.000000
0.000000 0.020000 0.000000
0.000000 0.018000 0.000000
0.000000 0.016000 0.000000
0.000000 0.014000 0.000000
0.000000 0.012000 0.000000
0.000000 0.010000 0.000000
0.000000 0.008000 0.000000
0.000000 0.006000 0.000000
0.000000 0.004000 0.000000
0.000000 0.002000 0.000000
0.035411 0.076518 0.000000
0.035821 0.076786 0.000000
0.036232 0.077054 0.000000
0.036643 0.077321 0.000000
0.037054 0.077589 0.000000
0.037464 0.077857 0.000000
0.037875 0.078125 0.000000
0.038286 0.078393 0.000000
0.038696 0.078661 0.000000
0.039107 0.078929 0.000000
0.039518 0.079196 0.000000
0.039929 0.079464 0.000000
0.040339 0.079732 0.000000
0.040750 0.080000 0.000000
0.041161 0.080268 0.000000
0.041571 0.080536 0.000000
0.041982 0.080804 0.000000
0.042393 0.081071 0.000000
0.042804 0.081339 0.000000
0.043214 0.081607 0.000000
0.043625 0.081875 0.000000
0.044036 0.082143 0.000000
0.044446 0.082411 0.000000
0.044857 0.082679 0.000000
0.045268 0.082946 0.000000
0.045679 0.083214 0.000000
0.046089 0.083482 0.000000
0.040000 0.002000 0.000000
0.040001 0.158005 0.000000
0.002000 0.116000 0.000000
0.078000 0.048000 0.000000
0.002000 0.106000 0.000000
0.078000 0.058000 0.000000
0.001986 0.042173 0.000000
0.078015 0.117826 0.000000
0.001985 0.094174 0.000000
0.001985 0.084174 0.000000
0.001914 0.056074 0.000000
0.002000 0.072000 0.000000
0.078015 0.065826 0.000000
0.078016 0.075826 0.000000
0.078000 0.088000 0.000000
0.078000 0.104000 0.000000
0.078003 0.029997 0.000000
0.001998 0.130002 0.000000
0.002000 0.032000 0.000000
0.078013 0.128003 0.000000
0.056000 0.158000 0.000000
0.026000 0.002000 0.000000
0.060000 0.002000 0.000000
0.020000 0.158000 0.000000
0.002000 0.020000 0.000000
0.078000 0.142000 0.000000
0.002000 0.146000 0.000000
0.078000 0.020000 0.000000
0.016000 0.002000 0.000000
0.068000 0.002000 0.000000
0.066000 0.158000 0.000000
0.002000 0.014000 0.000000
0.008000 0.158000 0.000000
0.010000 0.002000 0.000000
0.078000 0.148000 0.000000
0.078000 0.008000 0.000000
0.078005 0.037995 0.000000
0.051991 0.001990 0.000000
0.028000 0.158000 0.000000
0.002000 0.008000 0.000000
0.078000 0.094000 0.000000
0.078000 0.110000 0.000000
0.001983 0.066159 0.000000
0.002000 0.050000 0.000000
0.046000 0.158000 0.000000
0.078000 0.134000 0.000000
0.002000 0.140000 0.000000
0.006000 0.002000 0.000000
0.002000 0.154000 0.000000
0.074000 0.002000 0.000000
0.078000 0.152000 0.000000
0.074000 0.158000 0.000000
0.078000 0.080000 0.000000
0.078000 0.070000 0.000000
0.078000 0.122000 0.000000
0.002000 0.090000 0.000000
0.002000 0.080000 0.000000
0.002000 0.038000 0.000000
0.002000 0.102000 0.000000
0.002000 0.112000 0.000000
0.036000 0.002000 0.000000
0.078000 0.042000 0.000000
0.032000 0.002000 0.000000
0.047987 0.001989 0.000000
0.032008 0.158010 0.000000
0.002000 0.028000 0.000000
0.002000 0.126000 0.000000
0.060000 0.158000 0.000000
0.022000 0.002000 0.000000
0.002000 0.136000 0.000000
0.078000 0.024000 0.000000
0.012000 0.158000 0.000000
0.078000 0.158000 0.000000
0.001947 0.003947 0.000000
0.002000 0.158000 0.000000
0.078000 0.012000 0.000000
0.078000 0.096000 0.000000
0.078000 0.098000 0.000000
0.078000 0.082000 0.000000
0.078111 0.099889 0.000000
0.078035 0.083965 0.000000
0.078000 0.090000 0.000000
0.078000 0.106000 0.000000
0.078000 0.072000 0.000000
0.078000 0.112000 0.000000
0.078043 0.061976 0.000000
0.078000 0.114000 0.000000
0.002000 0.064000 0.000000
0.002000 0.062000 0.000000
0.002000 0.088000 0.000000
0.002000 0.078000 0.000000
0.002000 0.060000 0.000000
0.001966 0.076034 0.000000
0.002000 0.070000 0.000000
0.002000 0.054000 0.000000
0.001957 0.098024 0.000000
0.002000 0.048000 0.000000
0.002000 0.046000 0.000000
[...]
POINT_DATA 5510
SCALARS UX float 1
LOOKUP_TABLE default
-0.008575
0.018395
0.000001
-0.026433
-0.005800
-0.001807
-0.007899
-0.007222
-0.006545
-0.005868
-0.005191
-0.004514
-0.003837
-0.003161
-0.002485
-0.001810
-0.001135
-0.000460
0.000213
0.000886
0.001559
0.002231
0.002902
0.003573
0.004244
0.004914
0.005584
0.006254
0.006924
0.007594
0.008264
0.008935
0.009606
0.010277
0.010949
0.011622
0.012295
0.012969
0.013645
0.014321
0.014998
0.015675
0.016354
0.017034
0.017714
0.018179
0.017964
0.017750
0.017537
0.017325
0.017113
0.016903
0.016693
0.016484
0.016275
0.016068
0.015862
0.015656
0.015453
0.015251
0.015050
0.014851
0.014654
0.014458
0.014263
0.014069
0.013876
0.013684
0.013492
0.013301
0.013109
0.012917
0.012722
0.012526
0.012328
0.012127
0.011924
0.011718
0.011509
0.011297
0.011083
0.010863
0.010640
0.010413
0.010180
0.009945
0.009702
0.009449
0.009189
0.008924
0.008645
0.008359
0.008068
0.007769
0.007466
0.007168
0.006874
0.006583
0.006306
0.006038
0.005781
0.005526
0.005287
0.005051
0.004821
0.004596
0.004373
0.004155
0.003938
0.003723
0.003510
0.003297
0.003085
0.002874
0.002663
0.002453
0.002242
0.002033
0.001825
0.001617
0.001412
0.001205
0.000976
0.000642
-0.000005
-0.000712
-0.001414
-0.002109
-0.002797
-0.003481
-0.004163
-0.004844
-0.005524
-0.006202
-0.006879
-0.007555
-0.008230
-0.008905
-0.009579
-0.010252
-0.010924
-0.011595
-0.012267
-0.012938
-0.013608
-0.014279
-0.014950
-0.015620
-0.016291
-0.016962
-0.017633
-0.018305
-0.018978
-0.019651
-0.020325
-0.021000
-0.021676
-0.022353
-0.023031
-0.023709
-0.024389
-0.025070
-0.025751
-0.026217
-0.026002
-0.025787
-0.025575
-0.025363
-0.025152
-0.024942
-0.024733
-0.024525
-0.024317
-0.024111
-0.023906
-0.023702
-0.023499
-0.023299
-0.023099
-0.022901
-0.022704
-0.022508
-0.022314
-0.022120
-0.021927
-0.021734
-0.021541
-0.021349
-0.021155
-0.020961
-0.020764
-0.020566
-0.020365
-0.020162
-0.019957
-0.019750
-0.019539
-0.019325
-0.019110
-0.018889
-0.018666
-0.018439
-0.018206
-0.017971
-0.017729
-0.017479
-0.017222
-0.016961
-0.016687
-0.016407
-0.016121
-0.015830
-0.015534
-0.015239
-0.014949
-0.014661
-0.014384
-0.014114
-0.013848
-0.013599
-0.013355
-0.013116
-0.012882
-0.012654
-0.012428
-0.012208
-0.011989
-0.011773
-0.011558
-0.011343
-0.011130
-0.010918
-0.010706
-0.010494
-0.010282
-0.010069
-0.009857
-0.009644
-0.009431
-0.009218
-0.009004
-0.008790
-0.005642
-0.005486
-0.005271
-0.005061
-0.004896
-0.004776
-0.004645
-0.004501
-0.004406
-0.004265
-0.004145
-0.004048
-0.003916
-0.003784
-0.003627
-0.003477
-0.003329
-0.003177
-0.003041
-0.002940
-0.002832
-0.002728
-0.002603
-0.002485
-0.002339
-0.002174
-0.002015
0.004701
-0.012725
-0.021239
0.012806
-0.020282
0.011851
-0.012443
0.004379
-0.019106
-0.018029
-0.014281
-0.016553
0.011075
0.010005
0.008521
0.006161
0.014563
-0.022610
-0.011303
0.003255
-0.007340
-0.000001
0.011408
-0.019437
-0.010026
0.001772
-0.024258
0.015590
-0.003376
0.014106
-0.003950
-0.009392
-0.023493
-0.005406
0.001142
0.016856
0.013769
0.008720
-0.016749
-0.008755
0.007672
0.005330
-0.015750
-0.013404
-0.010710
0.002614
-0.023631
-0.006760
-0.025105
0.016138
0.000722
-0.001225
0.009521
0.010635
0.003903
-0.018663
-0.017545
-0.011960
-0.019892
-0.020857
0.003360
0.013379
0.002017
0.007378
-0.015405
-0.010874
-0.022211
-0.005987
-0.001349
-0.023218
0.015174
-0.022137
0.000025
-0.008340
-0.025534
0.016431
0.007373
0.007068
0.009283
0.006818
0.009051
0.008246
0.005875
0.010420
0.005073
0.011474
0.004826
-0.015430
-0.015132
-0.018446
-0.017308
-0.014832
-0.017077
-0.016284
-0.013954
-0.019510
-0.013146
-0.012896
0.012236
0.013195
0.012616
-0.020666
-0.021624
0.003684
-0.011739
0.006041
-0.014066
-0.012054
0.014164
-0.010038
-0.009365
-0.022014
0.001345
0.010064
-0.018092
-0.010661
0.003042
0.002403
-0.010449
0.002193
-0.023014
-0.008691
0.014969
-0.024048
-0.005309
-0.002024
0.012755
-0.020785
0.001562
0.016009
-0.024680
-0.009815
-0.009179
-0.003268
-0.004052
-0.002587
0.000512
-0.024853
-0.007479
-0.008211
0.017283
0.015460
0.017497
-0.020189
0.012136
-0.018018
-0.016915
-0.015897
-0.014175
-0.012721
0.008894
0.007865
0.006156
0.009991
0.004416
-0.012502
-0.021336
0.002570
-0.011286
0.001800
-0.008483
-0.010193
0.001514
-0.001563
-0.022532
0.014489
-0.005774
-0.009136
-0.003590
-0.023575
-0.003064
0.005473
0.012549
-0.008713
0.000036
0.015923
0.008432
0.006405
0.007001
-0.016456
-0.014470
-0.015052
-0.012240
0.008009
0.008826
0.006511
0.009801
0.010222
0.005641
0.010890
0.004608
-0.016052
-0.018247
-0.016853
-0.018919
-0.014556
-0.017824
-0.013697
-0.012675
0.011273
-0.019307
0.011671
-0.019710
0.012060
0.004183
-0.020103
-0.012243
0.012441
-0.020489
-0.021078
0.013008
-0.021442
0.013579
-0.021825
0.005367
-0.013391
0.004027
-0.011379
0.006707
-0.014733
0.003477
-0.011529
0.013966
0.002687
0.008048
-0.016075
-0.009820
0.009391
-0.017418
-0.022410
-0.011091
0.002829
0.014361
-0.009981
0.000672
0.001934
-0.008016
0.010735
-0.018763
-0.010239
0.001983
-0.022811
0.014764
-0.023424
-0.006664
-0.000675
-0.023840
0.015381
-0.004630
-0.002700
-0.020111
0.012081
-0.021461
0.013430
0.001352
-0.009603
-0.022815
0.015799
-0.024469
0.000934
0.016220
-0.008967
-0.004729
-0.024892
-0.001906
0.016643
0.000285
-0.006083
-0.008541
-0.024173
-0.007651
0.014782
-0.000564
-0.024637
-0.025319
0.017069
0.016602
0.016817
-0.019106
0.011066
-0.013568
0.006493
0.005500
-0.009515
-0.015874
0.009184
-0.018551
0.011867
0.015538
-0.021246
0.000672
0.013295
0.003835
-0.022600
-0.024210
0.007346
0.003948
-0.015389
0.010693
0.010226
-0.018727
-0.018256
0.009577
0.009141
-0.017599
-0.017162
0.011453
-0.019497
0.003493
-0.010848
-0.014518
-0.010409
0.013673
0.002149
-0.021728
0.000458
-0.000889
-0.002914
0.013215
-0.023155
-0.022739
-0.004943
-0.008290
-0.023786
0.015116
0.014696
-0.001714
-0.000184
0.015962
0.015708
0.007588
0.008138
-0.015624
0.005846
-0.016164
0.004222
-0.013864
-0.013018
0.012365
0.009789
-0.017813
-0.012015
-0.011528
-0.020399
-0.020767
0.004910
0.005199
0.011773
0.011954
-0.019822
-0.020004
-0.013200
0.006728
0.008666
-0.021145
-0.014777
-0.016688
0.004669
0.012902
0.012718
-0.012496
-0.011069
0.002793
0.007834
0.002488
-0.010485
0.005175
-0.011185
0.002362
-0.021535
-0.017210
-0.007812
0.001128
0.014077
0.014282
-0.022124
-0.022328
0.001303
0.010523
-0.009772
-0.009347
-0.009152
0.001726
-0.002237
-0.011845
-0.006450
-0.019897
-0.004419
-0.005098
-0.003741
-0.023364
-0.004266
0.014567
-0.008925
-0.008502
-0.006297
0.015245
-0.002388
-0.006974
0.016388
0.000250
-0.000407
-0.024423
-0.007865
-0.023957
-0.010863
0.012065
-0.019269
0.003513
-0.016540
-0.017652
-0.015037
-0.011578
0.009630
0.008545
0.006942
-0.020490
0.002123
-0.008270
0.002254
0.013398
0.001049
-0.021443
-0.001104
-0.004889
-0.008668
-0.003127
-0.022472
-0.007824
-0.012378
-0.013278
0.004316
-0.002190
0.007608
-0.015658
-0.011382
0.011749
0.006098
-0.014169
-0.009733
-0.010402
-0.020859
0.000914
-0.004480
0.000882
-0.022893
-0.000431
0.005162
0.006707
0.004044
-0.014767
0.009364
0.010447
-0.017386
-0.018479
0.010871
-0.018908
-0.020578
0.008045
0.005733
-0.013848
0.011262
-0.019305
-0.011812
-0.016065
0.003672
-0.020939
-0.013534
-0.013135
-0.010936
-0.012950
-0.015177
0.009218
-0.017241
0.013098
-0.019638
-0.011861
0.011591
0.008496
0.003149
0.004492
0.007151
0.003246
0.003021
0.013487
-0.010629
0.011326
-0.007127
0.013878
-0.016541
-0.021925
0.000834
0.001687
-0.009607
-0.000217
-0.009561
-0.019380
-0.019775
0.009853
-0.017880
0.013603
0.014013
-0.009308
-0.021647
-0.022055
-0.006238
-0.004211
0.001470
0.011195
-0.019224
-0.022947
-0.002450
-0.013856
0.014906
-0.008247
0.001093
-0.020571
0.012540
-0.003536
0.013891
0.015326
0.015030
-0.005620
0.000461
-0.023997
0.015749
-0.007188
-0.021922
0.015495
0.016174
-0.008078
-0.000861
-0.001054
-0.023743
-0.023278
0.005832
0.004571
-0.018629
-0.014184
-0.012965
0.006169
-0.010779
-0.020770
0.001018
0.006282
0.012725
-0.009062
-0.015662
0.008972
0.012326
-0.004679
-0.018339
-0.002666
0.014645
0.010583
-0.020357
0.014816
-0.021708
0.005161
-0.018626
0.012622
0.000371
-0.013022
0.008685
-0.016791
-0.018228
-0.017788
0.010190
0.009761
0.003623
-0.021248
-0.006919
-0.008885
-0.000433
0.014224
0.000415
-0.007613
-0.023063
-0.012562
0.009055
-0.017080
-0.011085
0.003775
-0.015428
0.007294
0.003767
-0.018861
0.010804
0.011213
-0.013326
0.011893
-0.019103
-0.020140
-0.019936
-0.020308
0.008266
-0.016283
0.007726
0.002337
0.002845
-0.015771
0.002914
-0.014306
-0.013602
0.006351
-0.014399
0.009398
-0.017423
0.004847
-0.010628
0.013198
0.012250
-0.012100
0.007620
0.003303
-0.021052
-0.020669
0.004943
-0.007602
-0.019549
-0.009099
0.000243
0.001904
0.001578
-0.016334
-0.009949
-0.010180
0.011491
-0.011629
0.013807
0.009642
-0.008938
0.012811
-0.010270
-0.021850
-0.022264
0.001262
0.000626
-0.008636
-0.019011
0.010982
-0.008459
-0.001777
0.013676
-0.005564
-0.003804
-0.004005
-0.008037
-0.017000
0.000203
-0.000219
0.014353
0.015069
0.015282
-0.005833
-0.005156
-0.007400
-0.006511
-0.022682
-0.002862
-0.023105
-0.023529
-0.012292
-0.001524
-0.000645
0.011413
0.010018
-0.016490
-0.015581
-0.011264
-0.012637
0.008470
0.007591
0.003366
-0.015462
0.008766
-0.018129
-0.007394
-0.004471
-0.021585
-0.007783
-0.019523
-0.000259
-0.010206
0.000701
0.010572
0.009109
-0.017130
-0.007359
-0.004016
-0.005369
-0.022212
-0.022850
-0.012738
0.005834
0.004556
0.006995
0.006366
-0.015058
-0.014415
-0.013884
0.011127
0.003970
-0.011788
0.012536
0.000589
0.007972
-0.000646
0.013130
-0.001993
-0.006935
-0.000897
-0.001989
-0.011429
-0.019836
-0.020197
-0.020578
0.005480
0.004903
-0.019339
0.003442
0.002907
-0.013580
0.009952
-0.017985
-0.018421
-0.018068
-0.018414
0.010373
0.011057
0.003076
0.002594
0.008627
-0.016643
-0.012676
-0.010128
-0.009391
-0.009968
-0.013445
0.001230
0.001686
-0.009504
-0.014988
-0.018755
-0.010792
0.012437
0.008299
-0.006701
0.006952
0.000805
0.005600
-0.008429
0.010689
0.012929
0.002032
-0.019114
-0.021173
-0.020972
-0.009285
0.014434
-0.017667
0.010311
-0.008848
0.000163
-0.003342
0.013545
-0.006026
-0.005352
-0.008727
0.012999
-0.016124
-0.019682
0.013000
-0.021793
0.011653
-0.008206
-0.000007
0.014139
0.014390
0.014857
-0.003332
-0.021032
-0.001320
0.014603
-0.006046
-0.006723
-0.022385
-0.023317
0.004281
-0.015964
-0.012767
0.008810
-0.016830
-0.009558
-0.017860
0.009939
-0.013855
-0.015999
0.005549
0.007942
-0.010571
0.000576
-0.008396
-0.019914
-0.015254
0.011864
-0.000295
-0.002206
0.010769
-0.020909
-0.012588
-0.007757
-0.020144
0.004966
0.002464
-0.017463
-0.017876
0.009428
0.009822
0.010121
-0.009179
-0.007160
0.001939
0.004732
0.011772
0.006071
-0.020299
0.012257
-0.017464
-0.003554
-0.000685
0.012112
0.013462
-0.022637
-0.012881
-0.016267
0.008230
0.002730
0.006667
0.007290
-0.014677
-0.010481
-0.015278
-0.017196
0.009166
0.003224
0.011246
0.010336
0.004255
-0.012452
0.003189
-0.011485
-0.012355
-0.013596
-0.009748
0.008837
0.001471
-0.016859
-0.018011
-0.018195
0.004024
0.012148
-0.020389
0.012339
0.008096
0.004315
-0.011012
0.000138
0.011591
0.007745
0.006752
-0.008833
-0.018920
-0.020005
-0.016788
0.000023
-0.000046
0.013755
0.014179
-0.005814
-0.001323
-0.008179
-0.021379
-0.014794
-0.014111
0.002693
-0.007572
0.010847
-0.005142
-0.000473
0.013336
-0.008060
-0.022002
-0.003799
-0.007994
-0.004693
-0.020819
-0.022172
-0.005582
0.009430
-0.022425
-0.018797
0.013713
0.013926
-0.007148
-0.001783
-0.001109
-0.006259
-0.002660
0.001366
-0.012086
-0.019658
-0.015738
-0.016280
-0.011971
-0.013073
0.008122
0.005645
-0.017669
0.009631
0.004639
0.007252
0.010756
-0.017365
0.009065
-0.010906
-0.013287
-0.011744
0.004461
-0.007737
0.001154
0.007893
-0.018912
-0.005603
0.012874
-0.017916
-0.007107
-0.017104
-0.016591
0.008566
-0.000931
0.013502
-0.019932
-0.021324
-0.015405
0.007460
0.002524
0.010484
0.007034
0.006442
0.005992
0.009424
0.009780
-0.009064
-0.011938
-0.015054
-0.019192
-0.007824
-0.020702
-0.000190
-0.001536
-0.004264
-0.004906
-0.002455
0.003145
-0.015802
0.007792
-0.014451
-0.012278
0.005261
0.003934
0.003338
-0.009899
-0.010295
-0.017518
0.002799
-0.017686
-0.011840
-0.012165
0.002168
-0.009316
-0.013317
-0.012222
0.008244
-0.009831
0.000813
-0.016283
0.002148
-0.011224
0.001307
-0.013931
-0.013241
-0.019541
0.011487
0.004587
-0.008520
0.000359
0.007418
-0.007973
0.010930
-0.018143
0.005389
-0.020101
0.010056
-0.020500
0.012056
-0.016587
-0.015915
-0.018488
-0.008651
-0.006483
-0.000075
0.011954
0.010098
-0.016103
0.008088
-0.006895
-0.005795
-0.019725
-0.002881
-0.001148
-0.001573
-0.019467
-0.021116
-0.004229
0.012785
0.013967
-0.000504
-0.010364
0.012460
-0.003128
0.011440
0.013040
-0.021959
-0.006683
-0.007538
0.013251
-0.006471
-0.021494
0.001821
-0.021746
0.008554
0.011671
-0.014597
-0.011466
0.005127
0.004168
-0.016931
0.008895
0.002500
0.006828
-0.014073
-0.009184
0.010096
-0.016338
0.008303
-0.015256
0.005322
0.007296
0.003999
-0.011665
0.000167
-0.018901
-0.009008
-0.014392
0.001609
0.011009
-0.019632
0.007683
-0.001750
-0.000738
-0.007094
-0.020237
0.007918
-0.015940
-0.006434
-0.001609
0.011588
-0.003766
0.010556
0.012828
0.011304
-0.015718
-0.019258
0.013291
-0.005120
-0.006007
-0.021072
0.004527
-0.013536
0.008624
-0.016654
0.006145
-0.009722
0.006276
-0.014645
-0.018673
-0.016945
0.009596
0.010599
-0.017360
-0.011538
0.003652
-0.017177
-0.011259
0.007206
0.009255
0.001052
0.001865
0.001528
0.005838
-0.009746
-0.019371
-0.012380
0.005110
-0.012760
-0.012998
0.011108
-0.000301
-0.013074
-0.015194
-0.019020
-0.008277
0.006540
-0.017439
0.004990
0.007217
0.007426
-0.015430
0.009341
-0.015659
-0.008009
-0.008542
-0.019249
0.003573
-0.000714
-0.019833
-0.006938
0.011201
-0.018303
0.000484
0.012666
0.010209
-0.000868
-0.018584
0.013082
-0.006271
0.012570
-0.002421
-0.007324
-0.020442
-0.004932
-0.002246
-0.020605
-0.001168
0.011228
-0.007523
-0.001359
0.007581
-0.010631
-0.017252
-0.002922
-0.003594
-0.021283
-0.021534
0.009216
0.002481
-0.008930
0.003804
0.007719
-0.015737
-0.011747
0.002687
-0.010365
0.006756
-0.012426
-0.012008
0.008734
-0.016767
0.006035
-0.009999
0.001982
-0.014233
0.002843
-0.014697
-0.008549
-0.016749
-0.015412
-0.014512
0.007391
-0.013016
-0.011195
0.004734
-0.011536
-0.007332
-0.008732
0.010345
-0.018975
-0.001966
-0.006058
0.001454
-0.019568
-0.017704
-0.019050
0.004242
-0.012282
0.010348
-0.010914
-0.016511
0.008203
-0.016238
0.009880
-0.010319
0.010467
0.006881
0.000266
-0.004055
-0.006655
-0.001084
-0.011255
0.011994
-0.005333
-0.002706
-0.020860
-0.020398
-0.009763
0.010821
-0.014135
0.001208
-0.016993
0.002234
0.009956
0.008027
-0.016061
-0.016546
0.008725
0.008875
-0.008294
0.003052
0.006553
-0.009517
-0.014864
0.009234
0.000410
-0.018567
-0.018320
-0.018049
-0.015071
0.005066
0.010273
-0.012236
-0.000067
0.007061
-0.007315
0.007016
0.003757
-0.001382
0.007568
-0.015574
-0.012727
0.005677
-0.019075
-0.017543
0.009436
-0.006874
-0.015048
-0.011737
-0.000516
0.008481
0.000938
0.011790
-0.017870
0.012619
-0.001819
-0.007605
0.009883
-0.019441
-0.005393
-0.004445
-0.020650
-0.006222
0.011390
-0.002033
-0.000954
0.012367
-0.020030
-0.007086
0.002934
0.002268
-0.003094
0.003334
0.012203
-0.016378
0.011898
0.008341
0.004706
-0.018725
0.002809
-0.011016
-0.013737
0.006313
0.005851
-0.008642
0.004269
0.000911
-0.013766
0.005507
-0.009370
0.002322
0.006542
-0.018907
-0.010581
-0.016728
0.009254
-0.016024
0.007947
-0.014739
-0.012493
0.006041
0.006780
0.003234
-0.011408
-0.000220
-0.017971
0.004678
0.002053
-0.006686
0.007471
-0.014856
0.010924
-0.001174
-0.005848
-0.006436
-0.001831
-0.015984
-0.017437
-0.009161
0.002502
0.003971
-0.007961
0.009682
0.010163
-0.010895
-0.018258
0.001944
0.002106
-0.001300
0.005763
-0.005989
-0.003306
0.011327
0.000716
0.009675
-0.019365
-0.004660
0.011696
0.004977
-0.009166
0.007402
-0.015431
-0.012348
0.009038
-0.010616
-0.007607
0.000700
0.006918
0.007208
-0.014924
-0.015222
-0.014607
-0.011088
-0.018441
-0.014542
-0.010204
-0.000717
0.006396
0.007672
-0.015710
-0.016844
-0.018607
-0.002052
-0.002492
0.002809
-0.011436
0.006332
-0.018786
0.004470
-0.011925
0.001723
0.009005
-0.019171
-0.000417
-0.017696
-0.013533
-0.016392
0.012411
-0.020188
-0.011234
-0.018370
-0.003379
0.011015
-0.006721
0.009579
-0.008057
0.011950
-0.019719
-0.002636
-0.017038
0.010537
0.012158
-0.005547
-0.004724
-0.001391
-0.006873
-0.019773
-0.015510
-0.008307
-0.010037
0.006692
0.003591
0.010643
-0.012884
0.003785
-0.013214
-0.013812
0.001314
0.005671
0.000709
-0.008772
0.001658
-0.018315
-0.014212
-0.016486
0.008737
-0.008650
-0.014124
-0.010706
0.004479
0.003453
0.006316
0.002219
0.009506
-0.012712
-0.014650
-0.017963
-0.018512
-0.001818
-0.001511
-0.010300
-0.002495
0.009468
0.008461
-0.011767
-0.018158
-0.004514
-0.014012
-0.009748
-0.010778
0.000084
0.005395
-0.018903
-0.006509
-0.003160
-0.019518
-0.004876
0.011742
-0.002847
0.009987
-0.012675
-0.007944
-0.009704
-0.010890
0.009248
0.008212
0.000272
0.005247
-0.006939
0.006211
-0.017710
-0.014315
0.003028
-0.016192
-0.015902
0.009500
-0.016172
-0.000460
0.004239
0.007066
-0.015073
-0.006659
-0.011244
-0.018101
0.005819
0.002267
0.005204
0.006127
0.004221
0.003453
0.006569
-0.016953
-0.012254
-0.014180
-0.000942
-0.006211
0.010816
0.011127
0.001383
-0.014900
-0.018429
-0.015764
0.007763
0.006881
0.000037
0.011534
-0.003983
-0.007385
-0.005766
-0.014361
-0.019980
-0.002273
0.008824
-0.000639
-0.001609
0.002329
-0.017266
-0.005181
0.011283
0.009683
0.009821
-0.016834
-0.016168
0.002718
-0.006442
-0.009371
-0.009147
0.011489
0.010728
0.008128
-0.018137
0.006814
-0.008065
-0.013346
-0.012040
0.004035
-0.008509
0.001791
-0.017703
-0.017839
0.000878
0.000754
0.001277
0.008280
-0.013645
0.007532
-0.015563
0.000409
-0.015333
0.007414
-0.012014
-0.013705
0.005554
0.003983
-0.011317
0.002508
0.008849
-0.006307
0.005269
0.007259
-0.017328
0.010263
-0.006296
0.008808
-0.015469
-0.017342
-0.016835
-0.005761
0.001506
0.003683
-0.004973
0.005230
0.002904
0.002410
-0.002262
0.008774
-0.013997
-0.004208
0.010618
0.010666
0.011080
0.001164
-0.002943
-0.019313
-0.015967
0.000125
-0.000842
0.001156
0.007058
-0.015091
-0.012039
0.005929
0.006137
-0.010720
-0.014180
0.008320
0.009020
0.009330
-0.010037
0.003953
-0.007323
0.004719
-0.000432
0.004482
-0.015515
0.003234
-0.001099
-0.001587
-0.002036
-0.010990
0.008627
-0.017637
0.006455
0.006721
-0.014733
-0.017798
-0.014458
-0.015181
0.007150
-0.013321
-0.016277
-0.003839
-0.011376
-0.003518
-0.018821
-0.005315
-0.018320
-0.017104
-0.002711
-0.019103
-0.005091
0.008792
0.000490
-0.000850
-0.010553
0.001971
-0.007839
-0.007166
-0.015305
0.010139
-0.017109
-0.007701
-0.002182
0.003374
-0.018702
-0.006230
0.009874
-0.006049
0.005944
-0.017492
0.008950
-0.015913
-0.008169
-0.013748
-0.011852
-0.008992
-0.013920
-0.013207
-0.012925
0.001129
-0.008667
-0.009131
0.007763
0.007070
-0.015098
-0.010312
0.007221
-0.014960
-0.014589
-0.010418
0.005563
0.002752
-0.001092
-0.010996
-0.005678
0.004377
0.000936
-0.001063
-0.014457
-0.002222
-0.013495
0.001703
-0.017856
-0.007343
0.007890
0.008203
-0.011409
-0.010217
0.004195
-0.015394
0.003249
0.005893
-0.012665
-0.002923
-0.003376
-0.017285
-0.018244
-0.003065
-0.004645
0.010416
0.008602
0.008680
0.008262
-0.018653
-0.008087
0.003162
-0.012237
-0.013538
-0.014427
0.000781
0.006410
0.006554
-0.010075
-0.009426
-0.011773
0.005748
-0.013724
0.008492
0.002641
-0.010737
-0.015573
-0.006655
0.005351
-0.011157
0.001748
-0.004317
0.006597
-0.014601
-0.001460
-0.013862
-0.006011
-0.017251
-0.013314
0.008060
-0.016997
-0.013157
-0.012484
0.007643
-0.001342
-0.016377
-0.016670
0.004847
-0.017488
-0.005551
-0.017485
0.010875
0.003752
0.007920
0.010069
0.001833
-0.015277
0.009168
-0.007456
-0.007612
-0.008302
0.007236
-0.015108
-0.000180
-0.005633
-0.015627
-0.001727
0.003805
-0.003750
0.008575
-0.016623
0.009030
-0.006957
-0.005804
-0.003608
-0.002454
-0.004425
0.009954
0.006602
-0.000291
0.010462
-0.017165
-0.010059
0.005080
0.000177
-0.009602
0.001251
-0.016984
-0.008865
0.000625
-0.010827
0.000300
-0.011782
-0.010768
0.003543
-0.001690
-0.016377
0.004244
0.008031
-0.014259
0.007053
-0.008059
-0.002849
-0.016242
-0.015026
-0.001280
-0.006081
0.009600
-0.008838