# vtk DataFile Version 2.0
Test
ASCII
DATASET POLYDATA
POINTS 5510 float
0.000000 0.000000 0.000000
0.080000 0.000000 0.000000
0.080000 0.160000 0.000000
0.000000 0.160000 0.000000
0.035000 0.076250 0.000000
0.046500 0.083750 0.000000
0.002000 0.000000 0.000000
0.004000 0.000000 0.000000
0.006000 0.000000 0.000000
0.008000 0.000000 0.000000
0.010000 0.000000 0.000000
0.012000 0.000000 0.000000
0.014000 0.000000 0.000000
0.016000 0.000000 0.000000
0.018000 0.000000 0.000000
0.020000 0.000000 0.000000
0.022000 0.000000 0.000000
0.024000 0.000000 0.000000
0.026000 0.000000 0.000000
0.028000 0.000000 0.000000
0.030000 0.000000 0.000000
0.032000 0.000000 0.000000
0.034000 0.000000 0.000000
0.036000 0.000000 0.000000
0.038000 0.000000 0.000000
0.040000 0.000000 0.000000
0.042000 0.000000 0.000000
0.044000 0.000000 0.000000
0.046000 0.000000 0.000000
0.048000 0.000000 0.000000
0.050000 0.000000 0.000000
0.052000 0.000000 0.000000
0.054000 0.000000 0.000000
0.056000 0.000000 0.000000
0.058000 0.000000 0.000000
0.060000 0.000000 0.000000
0.062000 0.000000 0.000000
0.064000 0.000000 0.000000
0.066000 0.000000 0.000000
0.068000 0.000000 0.000000
0.070000 0.000000 0.000000
0.072000 0.000000 0.000000
0.074000 0.000000 0.000000
0.076000 0.000000 0.000000
0.078000 0.000000 0.000000
0.080000 0.002000 0.000000
0.080000 0.004000 0.000000
0.080000 0.006000 0.000000
0.080000 0.008000 0.000000
0.080000 0.010000 0.000000
0.080000 0.012000 0.000000
0.080000 0.014000 0.000000
0.080000 0.016000 0.000000
0.080000 0.018000 0.000000
0.080000 0.020000 0.000000
0.080000 0.022000 0.000000
0.080000 0.024000 0.000000
0.080000 0.026000 0.000000
0.080000 0.028000 0.000000
0.080000 0.030000 0.000000
0.080000 0.032000 0.000000
0.080000 0.034000 0.000000
0.080000 0.036000 0.000000
0.080000 0.038000 0.000000
0.080000 0.040000 0.000000
0.080000 0.042000 0.000000
0.080000 0.044000 0.000000
0.080000 0.046000 0.000000
0.080000 0.048000 0.000000
0.080000 0.050000 0.000000
0.080000 0.052000 0.000000
0.080000 0.054000 0.000000
0.080000 0.056000 0.000000
0.080000 0.058000 0.000000
0.080000 0.060000 0.000000
0.080000 0.062000 0.000000
0.080000 0.064000 0.000000
0.080000 0.066000 0.000000
0.080000 0.068000 0.000000
0.080000 0.070000 0.000000
0.080000 0.072000 0.000000
0.080000 0.074000 0.000000
0.080000 0.076000 0.000000
0.080000 0.078000 0.000000
0.080000 0.080000 0.000000
0.080000 0.082000 0.000000
0.080000 0.084000 0.000000
0.080000 0.086000 0.000000
0.080000 0.088000 0.000000
0.080000 0.090000 0.000000
0.080000 0.092000 0.000000
0.080000 0.094000 0.000000
0.080000 0.096000 0.000000
0.080000 0.098000 0.000000
0.080000 0.100000 0.000000
0.080000 0.102000 0.000000
0.080000 0.104000 0.000000
0.080000 0.106000 0.000000
0.080000 0.108000 0.000000
0.080000 0.110000 0.000000
0.080000 0.112000 0.000000
0.080000 0.114000 0.000000
0.080000 0.116000 0.000000
0.080000 0.118000 0.000000
0.080000 0.120000 0.000000
0.080000 0.122000 0.000000
0.080000 0.124000 0.000000
0.080000 0.126000 0.000000
0.080000 0.128000 0.000000
0.080000 0.130000 0.000000
0.080000 0.132000 0.000000
0.080000 0.134000 0.000000
0.080000 0.136000 0.000000
0.080000 0.138000 0.000000
0.080000 0.140000 0.000000
0.080000 0.142000 0.000000
0.080000 0.144000 0.000000
0.080000 0.146000 0.000000
0.080000 0.148000 0.000000
0.080000 0.150000 0.000000
0.080000 0.152000 0.000000
0.080000 0.154000 0.000000
0.080000 0.156000 0.000000
0.080000 0.158000 0.000000
0.078000 0.160000 0.000000
0.076000 0.160000 0.000000
0.074000 0.160000 0.000000
0.072000 0.160000 0.000000
0.070000 0.160000 0.000000
0.068000 0.160000 0.000000
0.066000 0.160000 0.000000
0.064000 0.160000 0.000000
0.062000 0.160000 0.000000
0.060000 0.160000 0.000000
0.058000 0.160000 0.000000
0.056000 0.160000 0.000000
0.054000 0.160000 0.000000
0.052000 0.160000 0.000000
0.050000 0.160000 0.000000
0.048000 0.160000 0.000000
0.046000 0.160000 0.000000
0.044000 0.160000 0.000000
0.042000 0.160000 0.000000
0.040000 0.160000 0.000000
0.038000 0.160000 0.000000
0.036000 0.160000 0.000000
0.034000 0.160000 0.000000
0.032000 0.160000 0.000000
0.030000 0.160000 0.000000
0.028000 0.160000 0.000000
0.026000 0.160000 0.000000
0.024000 0.160000 0.000000
0.022000 0.160000 0.000000
0.020000 0.160000 0.000000
0.018000 0.160000 0.000000
0.016000 0.160000 0.000000
0.014000 0.160000 0.000000
0.012000 0.160000 0.000000
0.010000 0.160000 0.000000
0.008000 0.160000 0.000000
0.006000 0.160000 0.000000
0.004000 0.160000 0.000000
0.002000 0.160000 0.000000
0.000000 0.158000 0.000000
0.000000 0.156000 0.000000
0.000000 0.154000 0.000000
0.000000 0.152000 0.000000
0.000000 0.150000 0.000000
0.000000 0.148000 0.000000
0.000000 0.146000 0.000000
0.000000 0.144000 0.000000
0.000000 0.142000 0.000000
0.000000 0.140000 0.000000
0.000000 0.138000 0.000000
0.000000 0.136000 0.000000
0.000000 0.134000 0.000000
0.000000 0.132000 0.000000
0.000000 0.130000 0.000000
0.000000 0.128000 0.000000
0.000000 0.126000 0.000000
0.000000 0.124000 0.000000
0.000000 0.122000 0.000000
0.000000 0.120000 0.000000
0.000000 0.118000 0.000000
0.000000 0.116000 0.000000
0.000000 0.114000 0.000000
0.000000 0.112000 0.000000
0.000000 0.110000 0.000000
0.000000 0.108000 0.000000
0.000000 0.106000 0.000000
0.000000 0.104000 0.000000
0.000000 0.102000 0.000000
0.000000 0.100000 0.000000
0.000000 0.098000 0.000000
0.000000 0.096000 0.000000
0.000000 0.094000 0.000000
0.000000 0.092000 0.000000
0.000000 0.090000 0.000000
0.000000 0.088000 0.000000
0.000000 0.086000 0.000000
0.000000 0.084000 0.000000
0.000000 0.082000 0.000000
0.000000 0.080000 0.000000
0.000000 0.078000 0.000000
0.000000 0.076000 0.000000
0.000000 0.074000 0.000000
0.000000 0.072000 0.000000
0.000000 0.070000 0.000000
0.000000 0.068000 0.000000
0.000000 0.066000 0.000000
0.000000 0.064000 0.000000
0.000000 0.062000 0.000000
0.000000 0.060000 0.000000
0.000000 0.058000 0.000000
0.000000 0.056000 0.000000
0.000000 0.054000 0.000000
0.000000 0.052000 0.000000
0.000000 0.050000 0.000000
0.000000 0.048000 0.000000
0.000000 0.046000 0.000000
0.000000 0.044000 0.000000
0.000000 0.042000 0.000000
0.000000 0.040000 0.000000
0.000000 0.038000 0.000000
0.000000 0.036000 0.000000
0.000000 0.034000 0.000000
0.000000 0.032000 0.000000
0.000000 0.030000 0.000000
0.000000 0.028000 0.000000
0.000000 0.026000 0.000000
0.000000 0.024000 0.000000
0.000000 0.022000 0.000000
0.000000 0.020000 0.000000
0.000000 0.018000 0.000000
0.000000 0.016000 0.000000
0.000000 0.014000 0.000000
0.000000 0.012000 0.000000
0.000000 0.010000 0.000000
0.000000 0.008000 0.000000
0.000000 0.006000 0.000000
0.000000 0.004000 0.000000
0.000000 0.002000 0.000000
0.035411 0.076518 0.000000
0.035821 0.076786 0.000000
0.036232 0.077054 0.000000
0.036643 0.077321 0.000000
0.037054 0.077589 0.000000
0.037464 0.077857 0.000000
0.037875 0.078125 0.000000
0.038286 0.078393 0.000000
0.038696 0.078661 0.000000
0.039107 0.078929 0.000000
0.039518 0.079196 0.000000
0.039929 0.079464 0.000000
0.040339 0.079732 0.000000
0.040750 0.080000 0.000000
0.041161 0.080268 0.000000
0.041571 0.080536 0.000000
0.041982 0.080804 0.000000
0.042393 0.081071 0.000000
0.042804 0.081339 0.000000
0.043214 0.081607 0.000000
0.043625 0.081875 0.000000
0.044036 0.082143 0.000000
0.044446 0.082411 0.000000
0.044857 0.082679 0.000000
0.045268 0.082946 0.000000
0.045679 0.083214 0.000000
0.046089 0.083482 0.000000
0.040000 0.002000 0.000000
0.040001 0.158005 0.000000
0.002000 0.116000 0.000000
0.078000 0.048000 0.000000
0.002000 0.106000 0.000000
0.078000 0.058000 0.000000
0.001986 0.042173 0.000000
0.078015 0.117826 0.000000
0.001985 0.094174 0.000000
0.001985 0.084174 0.000000
0.001914 0.056074 0.000000
0.002000 0.072000 0.000000
0.078015 0.065826 0.000000
0.078016 0.075826 0.000000
0.078000 0.088000 0.000000
0.078000 0.104000 0.000000
0.078003 0.029997 0.000000
0.001998 0.130002 0.000000
0.002000 0.032000 0.000000
0.078013 0.128003 0.000000
0.056000 0.158000 0.000000
0.026000 0.002000 0.000000
0.060000 0.002000 0.000000
0.020000 0.158000 0.000000
0.002000 0.020000 0.000000
0.078000 0.142000 0.000000
0.002000 0.146000 0.000000
0.078000 0.020000 0.000000
0.016000 0.002000 0.000000
0.068000 0.002000 0.000000
0.066000 0.158000 0.000000
0.002000 0.014000 0.000000
0.008000 0.158000 0.000000
0.010000 0.002000 0.000000
0.078000 0.148000 0.000000
0.078000 0.008000 0.000000
0.078005 0.037995 0.000000
0.051991 0.001990 0.000000
0.028000 0.158000 0.000000
0.002000 0.008000 0.000000
0.078000 0.094000 0.000000
0.078000 0.110000 0.000000
0.001983 0.066159 0.000000
0.002000 0.050000 0.000000
0.046000 0.158000 0.000000
0.078000 0.134000 0.000000
0.002000 0.140000 0.000000
0.006000 0.002000 0.000000
0.002000 0.154000 0.000000
0.074000 0.002000 0.000000
0.078000 0.152000 0.000000
0.074000 0.158000 0.000000
0.078000 0.080000 0.000000
0.078000 0.070000 0.000000
0.078000 0.122000 0.000000
0.002000 0.090000 0.000000
0.002000 0.080000 0.000000
0.002000 0.038000 0.000000
0.002000 0.102000 0.000000
0.002000 0.112000 0.000000
0.036000 0.002000 0.000000
0.078000 0.042000 0.000000
0.032000 0.002000 0.000000
0.047987 0.001989 0.000000
0.032008 0.158010 0.000000
0.002000 0.028000 0.000000
0.002000 0.126000 0.000000
0.060000 0.158000 0.000000
0.022000 0.002000 0.000000
0.002000 0.136000 0.000000
0.078000 0.024000 0.000000
0.012000 0.158000 0.000000
0.078000 0.158000 0.000000
0.001947 0.003947 0.000000
0.002000 0.158000 0.000000
0.078000 0.012000 0.000000
0.078000 0.096000 0.000000
0.078000 0.098000 0.000000
0.078000 0.082000 0.000000
0.078111 0.099889 0.000000
0.078035 0.083965 0.000000
0.078000 0.090000 0.000000
0.078000 0.106000 0.000000
0.078000 0.072000 0.000000
0.078000 0.112000 0.000000
0.078043 0.061976 0.000000
0.078000 0.114000 0.000000
0.002000 0.064000 0.000000
0.002000 0.062000 0.000000
0.002000 0.088000 0.000000
0.002000 0.078000 0.000000
0.002000 0.060000 0.000000
0.001966 0.076034 0.000000
0.002000 0.070000 0.000000
0.002000 0.054000 0.000000
0.001957 0.098024 0.000000
0.002000 0.048000 0.000000
0.002000 0.046000 0.000000
[...]
POINT_DATA 5510
SCALARS UX float 1
LOOKUP_TABLE default
-0.003664
0.036244
0.000001
-0.039132
-0.003772
0.001527
-0.002664
-0.001664
-0.000664
0.000337
0.001339
0.002340
0.003342
0.004344
0.005345
0.006346
0.007347
0.008346
0.009345
0.010342
0.011339
0.012334
0.013329
0.014323
0.015316
0.016308
0.017300
0.018291
0.019281
0.020272
0.021263
0.022254
0.023245
0.024237
0.025229
0.026223
0.027218
0.028214
0.029212
0.030211
0.031212
0.032215
0.033220
0.034227
0.035235
0.035812
0.035382
0.034956
0.034530
0.034108
0.033686
0.033268
0.032850
0.032434
0.032020
0.031607
0.031198
0.030789
0.030383
0.029980
0.029579
0.029179
0.028781
0.028384
0.027988
0.027591
0.027195
0.026797
0.026398
0.026000
0.025596
0.025189
0.024778
0.024364
0.023947
0.023525
0.023101
0.022675
0.022245
0.021812
0.021379
0.020940
0.020499
0.020056
0.019608
0.019159
0.018703
0.018237
0.017761
0.017279
0.016772
0.016247
0.015711
0.015151
0.014566
0.013985
0.013405
0.012828
0.012278
0.011747
0.011238
0.010735
0.010265
0.009800
0.009347
0.008903
0.008462
0.008029
0.007598
0.007169
0.006743
0.006317
0.005892
0.005468
0.005045
0.004622
0.004199
0.003777
0.003358
0.002940
0.002525
0.002103
0.001642
0.001022
-0.000009
-0.001044
-0.002084
-0.003115
-0.004134
-0.005148
-0.006161
-0.007171
-0.008178
-0.009185
-0.010189
-0.011191
-0.012193
-0.013193
-0.014192
-0.015189
-0.016185
-0.017180
-0.018174
-0.019167
-0.020159
-0.021151
-0.022143
-0.023134
-0.024126
-0.025117
-0.026109
-0.027102
-0.028095
-0.029090
-0.030085
-0.031083
-0.032082
-0.033083
-0.034086
-0.035091
-0.036098
-0.037108
-0.038119
-0.038697
-0.038267
-0.037838
-0.037414
-0.036993
-0.036572
-0.036154
-0.035738
-0.035324
-0.034911
-0.034500
-0.034093
-0.033685
-0.033281
-0.032880
-0.032480
-0.032081
-0.031683
-0.031286
-0.030889
-0.030493
-0.030095
-0.029697
-0.029295
-0.028895
-0.028489
-0.028080
-0.027667
-0.027251
-0.026832
-0.026409
-0.025984
-0.025557
-0.025126
-0.024693
-0.024259
-0.023820
-0.023379
-0.022936
-0.022488
-0.022039
-0.021583
-0.021118
-0.020645
-0.020167
-0.019666
-0.019152
-0.018621
-0.018079
-0.017508
-0.016935
-0.016365
-0.015795
-0.015243
-0.014706
-0.014176
-0.013685
-0.013205
-0.012733
-0.012271
-0.011820
-0.011373
-0.010937
-0.010504
-0.010073
-0.009643
-0.009215
-0.008789
-0.008363
-0.007937
-0.007511
-0.007085
-0.006659
-0.006233
-0.005806
-0.005379
-0.004951
-0.004523
-0.004094
-0.003566
-0.003359
-0.003074
-0.002796
-0.002576
-0.002417
-0.002244
-0.002053
-0.001927
-0.001741
-0.001581
-0.001451
-0.001275
-0.001100
-0.000893
-0.000695
-0.000496
-0.000296
-0.000114
0.000025
0.000172
0.000310
0.000476
0.000634
0.000828
0.001047
0.001256
0.015880
-0.018740
-0.029076
0.025382
-0.027080
0.023369
-0.011741
0.008811
-0.024617
-0.022445
-0.015361
-0.019658
0.021735
0.019567
0.016776
0.012326
0.028953
-0.031853
-0.009489
0.006589
-0.010760
0.008914
0.025796
-0.028662
-0.006933
0.003615
-0.035135
0.031000
0.003913
0.029782
-0.005731
-0.005658
-0.034658
0.000908
0.002347
0.033519
0.027358
0.021825
-0.024691
-0.004379
0.015233
0.010681
-0.018188
-0.013634
-0.015756
0.005308
-0.033889
-0.001094
-0.036825
0.032787
0.001500
-0.001697
0.018632
0.020832
0.007877
-0.023712
-0.021509
-0.010791
-0.026258
-0.028285
0.013894
0.026565
0.011905
0.019841
-0.022706
-0.008633
-0.031052
-0.008752
0.006916
-0.033066
0.030171
-0.032653
0.000114
-0.003538
-0.037683
0.032673
0.014678
0.014098
0.018180
0.013597
0.017745
0.016278
0.011758
0.020398
0.010174
0.022563
0.009690
-0.017597
-0.017032
-0.023277
-0.021058
-0.016454
-0.020622
-0.019166
-0.014727
-0.025448
-0.013124
-0.012634
0.024185
0.026184
0.024985
-0.027885
-0.029865
0.007442
-0.010353
0.017864
-0.020724
-0.017746
0.028154
-0.014759
-0.013761
-0.030655
0.010910
0.023810
-0.026675
-0.008207
0.006163
0.004884
-0.007782
0.004461
-0.032659
-0.012762
0.029764
-0.034719
-0.007747
0.005915
0.027786
-0.030654
0.003192
0.031834
-0.035977
-0.006508
-0.005232
-0.004720
0.002911
-0.003712
0.001074
-0.036671
-0.002146
-0.003215
0.034371
0.031783
0.034800
-0.027291
0.024385
-0.022754
-0.020573
-0.018685
-0.015472
-0.012604
0.017700
0.015803
0.012581
0.019876
0.009198
-0.018300
-0.029645
0.005574
-0.009788
0.011472
-0.012342
-0.007626
0.003458
0.006486
-0.032044
0.029151
-0.008324
-0.005505
0.003483
-0.034121
-0.004309
0.011278
0.025219
-0.004656
0.000481
0.032356
0.016828
0.013114
0.014230
-0.019702
-0.016050
-0.017140
-0.011660
0.015841
0.017326
0.013006
0.019164
0.019993
0.011288
0.021346
0.009255
-0.018738
-0.022871
-0.020204
-0.024226
-0.015909
-0.022040
-0.014209
-0.012193
0.022144
-0.025028
0.022982
-0.025869
0.023804
0.008421
-0.026695
-0.011343
0.024611
-0.027508
-0.028736
0.025796
-0.029487
0.026971
-0.030270
0.016867
-0.019726
0.014884
-0.016747
0.018849
-0.021711
0.007027
-0.009934
0.027756
0.012898
0.020832
-0.023696
-0.014324
0.022816
-0.025680
-0.031452
-0.009065
0.005737
0.028550
-0.007201
0.009912
0.004302
-0.011762
0.024802
-0.027667
-0.007359
0.004039
-0.032254
0.029355
-0.033477
-0.009757
0.007915
-0.034303
0.030584
-0.006740
0.004914
-0.029657
0.026790
-0.031652
0.028783
0.002769
-0.006083
-0.033655
0.031415
-0.035555
0.001926
0.032252
-0.004806
0.001910
-0.036399
-0.002703
0.033094
0.000619
-0.000093
-0.003951
-0.035664
-0.002523
0.030782
-0.000730
-0.036240
-0.037251
0.033943
0.033362
0.033792
-0.025001
0.022111
-0.014570
0.018422
0.011623
-0.006622
-0.023287
0.022400
-0.027242
0.026362
0.031239
-0.031223
0.001763
0.026756
0.014489
-0.033224
-0.035387
0.014833
0.008273
-0.017730
0.021292
0.020344
-0.024176
-0.023222
0.019030
0.018168
-0.021905
-0.021039
0.022917
-0.025810
0.007370
-0.008924
-0.021283
-0.008054
0.027523
0.004731
-0.030435
0.009483
0.007485
0.004484
0.028354
-0.033285
-0.032455
0.001480
-0.003805
-0.034541
0.030400
0.029564
-0.002318
0.000036
0.032084
0.031928
0.015294
0.016284
-0.018180
0.011959
-0.019159
0.008804
-0.014856
-0.013163
0.024826
0.019457
-0.022333
-0.011197
-0.010255
-0.027713
-0.028479
0.010157
0.010729
0.023615
0.023996
-0.026515
-0.026897
-0.019333
0.013714
0.017270
-0.029254
-0.016623
-0.020144
0.009688
0.025962
0.025583
-0.012155
-0.009360
0.006012
0.020405
0.012492
-0.015310
0.016473
-0.016349
0.005157
-0.030045
-0.025261
-0.011347
0.010476
0.028331
0.028739
-0.031230
-0.031636
0.003033
0.024377
-0.006782
-0.005929
-0.013334
0.003882
0.005487
-0.017326
-0.009327
-0.029229
-0.006315
-0.007321
-0.005310
-0.033701
0.002482
0.030352
-0.005081
-0.004231
-0.000522
0.031353
-0.003312
-0.001523
0.032934
0.000912
-0.000412
-0.035813
-0.002951
-0.035232
-0.009267
0.024614
-0.025718
0.007722
-0.020113
-0.022323
-0.017328
-0.016821
0.019452
0.017277
0.014355
-0.028285
0.005021
-0.011915
0.012035
0.027318
0.002882
-0.030214
0.007055
-0.006901
-0.004925
0.004057
-0.032268
-0.003229
-0.012204
-0.014006
0.009286
-0.002915
0.015532
-0.018443
-0.010273
0.023915
0.012773
-0.015713
-0.007054
-0.008371
-0.029037
0.010048
0.002054
0.002186
-0.033107
-0.000098
0.010933
0.013890
0.008749
-0.016811
0.018612
0.020798
-0.021486
-0.023679
0.021694
-0.024581
-0.028095
0.016347
0.012095
-0.015110
0.022526
-0.025418
-0.010781
-0.019216
0.007736
-0.028836
-0.014202
-0.013446
-0.015870
-0.018854
-0.022257
0.018626
-0.021499
0.026361
-0.026130
-0.011210
0.023232
0.021383
0.013471
0.015461
0.019394
0.006901
0.006460
0.027144
-0.008491
0.023076
-0.010330
0.027931
-0.024273
-0.030830
0.002452
0.004160
-0.013897
0.008482
-0.006359
-0.025985
-0.026775
0.023388
-0.026251
0.027728
0.028548
-0.006205
-0.030622
-0.031438
-0.008901
-0.005897
0.003726
0.025370
-0.028236
-0.032869
0.005060
-0.020303
0.029981
-0.004078
0.002610
-0.030225
0.027357
-0.004900
0.029352
0.030818
0.030924
0.000479
0.001338
-0.034963
0.031661
-0.001951
-0.032222
0.031501
0.032508
-0.003378
-0.000967
-0.001353
-0.034804
-0.034227
0.017444
0.009801
-0.024762
-0.015972
-0.013660
0.013123
-0.015528
-0.029212
0.003165
0.018000
0.026317
-0.006060
-0.022863
0.021975
0.026928
-0.006481
-0.026816
0.004629
0.029807
0.021481
-0.029798
0.030497
-0.031794
0.011228
-0.024374
0.025753
0.001878
-0.013483
0.017563
-0.020563
-0.023540
-0.022608
0.020651
0.019731
0.014064
-0.029822
-0.009911
-0.005358
0.008050
0.028967
0.001608
-0.002804
-0.033798
-0.012577
0.018285
-0.021162
-0.009697
0.008493
-0.018032
0.014983
0.008218
-0.024871
0.021958
0.022808
-0.014354
0.024246
-0.025379
-0.027540
-0.027115
-0.027913
0.016758
-0.019637
0.015789
0.005443
0.006417
-0.018688
0.013013
-0.020859
-0.019817
0.013260
-0.016163
0.019001
-0.021876
0.010336
-0.008812
0.026914
0.024994
-0.011677
0.019977
0.007311
-0.029426
-0.028653
0.016019
-0.010925
-0.026343
-0.005786
0.009052
0.004589
0.011032
-0.023855
-0.007480
-0.007935
0.023427
-0.010757
0.028136
0.022965
-0.012905
0.026135
-0.014882
-0.031027
-0.031853
0.003308
0.002032
-0.005213
-0.027809
0.024943
-0.004504
0.006058
0.028922
-0.007901
0.003055
-0.005485
-0.003656
-0.024839
0.001181
0.000330
0.029923
0.030652
0.031076
0.000052
0.001054
-0.002378
-0.000950
-0.032688
-0.003906
-0.033530
-0.034378
-0.017879
-0.001939
-0.000532
0.023647
0.020681
-0.020287
-0.018523
-0.010333
-0.013274
0.017418
0.015699
0.013573
-0.022456
0.021559
-0.026395
-0.010506
-0.006066
-0.030844
-0.003505
-0.026645
0.000610
-0.008290
0.009621
0.021851
0.018683
-0.021551
-0.002653
0.002629
0.000626
-0.032098
-0.033371
-0.018429
0.012519
0.009990
0.014619
0.013484
-0.017554
-0.016412
-0.015428
0.022990
0.008891
-0.011313
0.025933
0.002311
0.016434
0.007623
0.027130
0.005626
-0.001803
-0.000674
-0.002516
-0.016491
-0.027312
-0.028053
-0.028823
0.011805
0.010723
-0.026253
0.007894
0.006858
-0.014845
0.020133
-0.023016
-0.024329
-0.023587
-0.023932
0.021041
0.022491
0.006874
0.005936
0.017762
-0.020627
-0.013096
-0.014562
-0.013467
-0.007833
-0.019476
0.003585
0.004478
-0.006928
-0.021868
-0.025061
-0.009418
0.025377
0.020980
-0.009477
0.018990
0.002741
0.016990
-0.004796
0.022131
0.026725
0.011595
-0.025797
-0.030020
-0.029616
-0.006498
0.029386
-0.025824
0.023952
-0.005635
0.001458
0.003628
0.027958
-0.008477
-0.007477
-0.012482
0.026517
-0.023434
-0.028801
0.027923
-0.031260
0.025934
-0.004353
0.000758
0.029495
0.029647
0.030229
-0.004492
-0.030795
-0.001530
0.030071
-0.000376
-0.001377
-0.032794
-0.033953
0.015038
-0.019259
-0.012985
0.017819
-0.020691
-0.007325
-0.023525
0.020916
-0.015564
-0.019580
0.012186
0.016651
-0.015111
0.002617
-0.005074
-0.027836
-0.022038
0.024932
0.000891
0.005199
0.024516
-0.029840
-0.018098
-0.003800
-0.029370
0.011045
0.005926
-0.022300
-0.023177
0.019416
0.020262
0.020939
-0.013044
-0.010049
0.004955
0.015596
0.024384
0.017577
-0.028616
0.025726
-0.025413
0.003202
-0.000246
0.026500
0.028495
-0.032946
-0.013749
-0.019863
0.016965
0.006488
0.014058
0.015181
-0.016895
-0.008779
-0.017996
-0.021765
0.018885
0.007455
0.023283
0.021369
0.009436
-0.012641
0.007620
-0.010770
-0.012744
-0.015093
-0.007404
0.018180
0.004056
-0.021051
-0.023856
-0.023884
0.014547
0.025151
-0.028441
0.025536
0.020570
0.009832
-0.009843
0.001750
0.024013
0.016011
0.018583
-0.005926
-0.025408
-0.027663
-0.024415
0.008616
0.001038
0.028379
0.029225
-0.008054
0.006620
-0.004644
-0.030432
-0.021470
-0.020460
0.012574
-0.003081
0.022469
-0.007059
0.000181
0.027542
-0.011493
-0.031678
-0.005075
-0.003929
0.001626
-0.030368
-0.032368
0.000199
0.022541
-0.032522
-0.027382
0.028644
0.029069
-0.002229
-0.002100
-0.001103
-0.000802
-0.003501
0.010607
-0.017464
-0.026948
-0.018837
-0.019808
-0.011678
-0.014128
0.016735
0.012139
-0.022744
0.019856
0.010204
0.015057
0.022667
-0.022812
0.019051
-0.009897
-0.014714
-0.011798
0.015085
-0.004097
0.010182
0.020158
-0.025749
-0.007634
0.026963
-0.025968
-0.002505
-0.021941
-0.020765
0.017890
-0.000384
0.028222
-0.028946
-0.030673
-0.018430
0.015673
0.006388
0.022032
0.014867
0.013793
0.012926
0.019808
0.020577
-0.006365
-0.017136
-0.017739
-0.026357
-0.011033
-0.029427
0.008189
0.006193
-0.005653
0.001200
-0.003091
0.013136
-0.019196
0.016341
-0.016651
-0.012814
0.011671
0.009070
0.007944
-0.007925
-0.008695
-0.022798
0.006947
-0.023156
-0.011727
-0.012350
0.005405
-0.006867
-0.014582
-0.012175
0.017289
-0.014015
0.003074
-0.020188
0.005644
-0.016077
0.004020
-0.020084
-0.019063
-0.027077
0.024167
0.010360
-0.012066
0.002189
0.019568
-0.004231
0.023028
-0.024155
0.016567
-0.028217
0.021189
-0.029020
0.025323
-0.024007
-0.023013
-0.024865
-0.005553
-0.009045
0.001327
0.024757
0.023526
-0.019824
0.016961
-0.002079
-0.000227
-0.027452
0.004199
-0.000819
-0.001676
-0.028371
-0.030256
0.002203
0.027494
0.028801
0.000472
-0.008885
0.026134
-0.004084
0.025508
0.027649
-0.031942
-0.001653
-0.003364
0.028071
-0.001227
-0.031366
0.011173
-0.031516
0.021134
0.024541
-0.021067
-0.010954
0.011393
0.009512
-0.021557
0.018671
0.006047
0.014432
-0.015966
-0.006873
0.021684
-0.020699
0.017814
-0.018384
0.011937
0.015604
0.009462
-0.016623
0.002116
-0.026127
-0.012686
-0.020654
0.010748
0.023558
-0.027626
0.019736
0.005765
0.000343
-0.002819
-0.028844
0.016904
-0.019774
-0.001508
-0.001391
0.024734
0.002777
0.024090
0.027225
0.023794
-0.022611
-0.027950
0.027801
0.000772
-0.000652
-0.030519
0.010464
-0.015158
0.018065
-0.020946
0.013288
-0.007843
0.013618
-0.017067
-0.025237
-0.021964
0.020185
0.022320
-0.022458
-0.011365
0.008529
-0.022437
-0.010538
0.015215
0.019451
0.003540
0.005045
0.004444
0.017122
-0.013784
-0.026726
-0.017680
0.016045
-0.013731
-0.014195
0.023393
0.001206
-0.018707
-0.018033
-0.025999
-0.011597
0.018159
-0.023014
0.011351
0.019160
0.015888
-0.018735
0.020027
-0.018899
-0.004610
-0.005627
-0.026848
0.008593
0.000050
-0.028030
-0.009612
0.023947
-0.024491
0.009188
0.026546
0.021519
0.007183
-0.026955
0.027381
-0.008622
0.027066
0.004771
-0.002938
-0.029257
-0.006641
-0.002672
-0.029941
-0.000511
0.025084
-0.003673
-0.001244
0.015940
-0.009380
-0.024988
-0.003671
-0.004663
-0.030942
-0.031094
0.022113
0.012150
-0.006397
0.014110
0.016513
-0.019378
-0.011481
0.006874
-0.014696
0.014379
-0.013134
-0.012302
0.018317
-0.021199
0.013062
-0.008175
0.005315
-0.016258
0.006942
-0.017086
-0.005936
-0.021888
-0.018993
-0.016936
0.016124
-0.014391
-0.010959
0.011055
-0.016324
-0.003604
-0.012166
0.022571
-0.026653
0.005337
-0.008201
0.004600
-0.027853
-0.025544
-0.027531
0.014651
-0.013025
0.023672
-0.010126
-0.021065
0.017561
-0.020447
0.021131
-0.009022
0.022445
0.014814
0.008756
-0.005237
-0.001946
0.006754
-0.010832
0.025551
0.000346
-0.003241
-0.030095
-0.029523
-0.007997
0.023175
-0.016257
0.004057
-0.021965
0.006045
0.021362
0.017167
-0.020052
-0.021471
0.018624
0.019024
-0.005163
0.007611
0.014174
-0.013337
-0.017626
0.019777
0.002576
-0.025431
-0.024879
-0.024304
-0.018022
0.015870
0.022049
-0.017359
0.001664
0.015168
-0.003257
0.018751
0.008987
-0.000941
0.016195
-0.019043
-0.013880
0.016772
-0.026487
-0.023264
0.020269
-0.002381
-0.021622
-0.011993
0.000780
0.018183
0.009753
0.025141
-0.023942
0.026806
-0.001814
-0.010601
0.023098
-0.027238
-0.007215
0.001771
-0.029674
-0.001083
0.024333
-0.002244
-0.000086
0.026654
-0.028430
-0.003133
0.012713
0.011724
0.003773
0.008130
0.025970
-0.023587
0.026073
0.020709
0.010822
-0.025765
0.007153
-0.015660
-0.019686
0.013747
0.012915
-0.005871
0.009968
0.003535
-0.015564
0.012285
-0.007251
0.006255
0.013799
-0.025671
-0.009005
-0.021492
0.020327
-0.020723
0.017388
-0.017616
-0.013610
0.013412
0.014834
0.008204
-0.016028
0.001646
-0.024548
0.015189
0.011296
-0.002646
0.019311
-0.021228
0.023748
-0.000196
-0.007783
-0.001844
-0.001496
-0.020281
-0.023387
-0.012709
0.006788
0.009630
-0.004763
0.021181
0.022197
-0.015373
-0.025173
0.005523
0.006019
0.006325
0.012859
-0.000960
0.003350
0.024562
0.009313
0.022679
-0.027445
0.001342
0.025663
0.011490
-0.007028
0.016218
-0.019097
-0.013206
0.019391
-0.009572
-0.004123
0.003123
0.015141
0.015759
-0.017990
-0.018619
-0.017153
-0.010708
-0.025149
-0.017228
-0.014349
0.000694
0.014101
0.016785
-0.019676
-0.022132
-0.025897
-0.001937
-0.002813
0.007351
-0.011423
0.017740
-0.026266
0.010577
-0.012389
0.005098
0.021690
-0.027050
0.007743
-0.023589
-0.019275
-0.021148
0.026388
-0.029102
-0.010708
-0.026528
-0.004236
0.024657
-0.009183
0.020578
-0.011164
0.025817
-0.028519
0.004343
-0.024561
0.022960
0.026234
-0.000082
-0.006226
-0.000625
-0.002711
-0.028266
-0.022194
-0.005478
-0.008500
0.014454
0.013685
0.022808
-0.018317
0.009242
-0.014754
-0.015705
0.004303
0.012588
0.003329
-0.006366
0.005168
-0.024790
-0.016431
-0.021215
0.018715
-0.006274
-0.016626
-0.010228
0.010753
0.008841
0.014170
0.006450
0.021220
-0.014003
-0.020813
-0.024942
-0.026073
-0.001152
0.005902
-0.009203
-0.002485
0.022262
0.018527
-0.012263
-0.026103
-0.005809
-0.016193
-0.013568
-0.010139
0.002188
0.012249
-0.026869
-0.008763
-0.003803
-0.028112
0.000913
0.025399
0.003921
0.021832
-0.017898
-0.005045
-0.008103
-0.015261
0.020186
0.017957
0.002581
0.016029
-0.003125
0.013742
-0.023973
-0.017007
0.007794
-0.020692
-0.020445
0.020816
-0.021042
0.001187
0.010145
0.015457
-0.018308
-0.002286
-0.011261
-0.024840
0.013014
0.006347
0.011893
0.017331
0.010291
0.008639
0.014439
-0.022389
-0.013181
-0.020230
0.000255
-0.001400
0.024252
0.024158
0.010303
-0.018238
-0.025528
-0.019854
0.017020
0.015372
0.008307
0.024978
0.002347
-0.010167
-0.000517
-0.016879
-0.028684
-0.002376
0.019357
0.007305
-0.001056
0.006007
-0.023040
-0.006796
0.024830
0.021588
0.021485
-0.024148
-0.023165
0.012283
-0.002180
-0.007508
-0.007079
0.025245
0.023350
0.020283
-0.025305
0.018342
-0.005018
-0.015024
-0.016962
0.014234
-0.011728
0.005453
-0.023874
-0.024254
0.003751
0.003485
0.004513
0.017963
-0.015511
0.016480
-0.019361
0.003088
-0.019617
0.016594
-0.012901
-0.016024
0.012687
0.010012
-0.015798
0.011861
0.020244
-0.002191
0.015949
0.018888
-0.024004
0.022770
-0.008342
0.019745
-0.019509
-0.023615
-0.022487
-0.000842
0.005123
0.009286
-0.006381
0.012067
0.007786
0.006824
-0.002027
0.019193
-0.019850
0.001903
0.023848
0.023586
0.024420
0.009869
-0.003372
-0.027699
-0.022757
0.002469
0.000725
0.004430
0.015793
-0.018677
-0.012787
0.013414
0.013813
-0.009953
-0.016533
0.018222
0.020184
0.020855
-0.008713
0.009796
-0.003822
0.011187
0.001448
0.014792
-0.019987
0.008403
0.000229
-0.000705
-0.001582
-0.010778
0.018867
-0.024255
0.014465
0.015044
-0.017901
-0.024596
-0.017311
-0.018901
0.016020
-0.018852
-0.021292
-0.004809
-0.011561
0.002926
-0.027083
0.000041
-0.025683
-0.022708
-0.002915
-0.027275
0.000484
0.021264
0.008870
0.006883
-0.009901
0.005997
-0.010734
-0.009736
-0.021780
0.023252
-0.023077
-0.004585
0.004907
0.013253
-0.026464
-0.001760
0.021976
-0.001705
0.016945
-0.025119
0.019639
-0.020372
-0.005473
-0.015724
-0.016577
-0.012359
-0.016245
-0.014875
-0.014380
0.004208
-0.006402
-0.007252
0.017204
0.015742
-0.018619
-0.014402
0.016403
-0.019135
-0.017938
-0.009883
0.012910
0.007689
0.000451
-0.015225
-0.001261
0.014522
0.009422
0.006459
-0.020420
-0.001645
-0.015631
0.005686
-0.025103
-0.004158
0.017680
0.018429
-0.011813
-0.009300
0.010392
-0.019608
0.008656
0.013559
-0.014057
-0.003012
-0.003904
-0.024702
-0.025896
0.003489
0.001037
0.023440
0.020872
0.019890
0.018962
-0.026723
-0.005449
0.012829
-0.013298
-0.015514
-0.017529
0.003807
0.014667
0.015050
-0.008969
-0.007793
-0.012469
0.013068
-0.015871
0.019167
0.007274
-0.010492
-0.019759
-0.002796
0.012320
-0.011322
0.005575
-0.005409
0.014772
-0.017618
-0.000209
-0.016344
-0.001327
-0.023387
-0.015101
0.018034
-0.023307
-0.018501
-0.017508
0.017128
-0.000236
-0.021534
-0.022151
0.011439
-0.024345
-0.000423
-0.023928
0.024006
0.009593
0.019864
0.022376
0.010860
-0.019137
0.020512
-0.004123
-0.010292
-0.011316
0.016241
-0.021380
0.007876
-0.007358
-0.020243
0.005473
0.013788
0.002474
0.019193
-0.023727
0.020619
-0.009321
-0.001237
-0.004358
-0.002094
0.001472
0.022868
0.017918
0.001763
0.023174
-0.023657
-0.009157
0.015560
0.002643
-0.013233
0.004657
-0.022796
-0.006774
0.003498
-0.015071
0.003098
-0.012625
-0.010762
0.009364
-0.000461
-0.022388
0.014223
0.018926
-0.020019
0.018473
-0.010850
-0.002575
-0.021601
-0.019315
0.006028
-0.007917
0.021788
-0.006914
-0.001920
0.016875
0.012013
0.010680
-0.009545
0.001504
0.016291
-0.018729
0.011470
0.004785
-0.000343
-0.022280