# vtk DataFile Version 2.0
Test
ASCII
DATASET POLYDATA
POINTS 5510 float
0.000000 0.000000 0.000000
0.080000 0.000000 0.000000
0.080000 0.160000 0.000000
0.000000 0.160000 0.000000
0.035000 0.076250 0.000000
0.046500 0.083750 0.000000
0.002000 0.000000 0.000000
0.004000 0.000000 0.000000
0.006000 0.000000 0.000000
0.008000 0.000000 0.000000
0.010000 0.000000 0.000000
0.012000 0.000000 0.000000
0.014000 0.000000 0.000000
0.016000 0.000000 0.000000
0.018000 0.000000 0.000000
0.020000 0.000000 0.000000
0.022000 0.000000 0.000000
0.024000 0.000000 0.000000
0.026000 0.000000 0.000000
0.028000 0.000000 0.000000
0.030000 0.000000 0.000000
0.032000 0.000000 0.000000
0.034000 0.000000 0.000000
0.036000 0.000000 0.000000
0.038000 0.000000 0.000000
0.040000 0.000000 0.000000
0.042000 0.000000 0.000000
0.044000 0.000000 0.000000
0.046000 0.000000 0.000000
0.048000 0.000000 0.000000
0.050000 0.000000 0.000000
0.052000 0.000000 0.000000
0.054000 0.000000 0.000000
0.056000 0.000000 0.000000
0.058000 0.000000 0.000000
0.060000 0.000000 0.000000
0.062000 0.000000 0.000000
0.064000 0.000000 0.000000
0.066000 0.000000 0.000000
0.068000 0.000000 0.000000
0.070000 0.000000 0.000000
0.072000 0.000000 0.000000
0.074000 0.000000 0.000000
0.076000 0.000000 0.000000
0.078000 0.000000 0.000000
0.080000 0.002000 0.000000
0.080000 0.004000 0.000000
0.080000 0.006000 0.000000
0.080000 0.008000 0.000000
0.080000 0.010000 0.000000
0.080000 0.012000 0.000000
0.080000 0.014000 0.000000
0.080000 0.016000 0.000000
0.080000 0.018000 0.000000
0.080000 0.020000 0.000000
0.080000 0.022000 0.000000
0.080000 0.024000 0.000000
0.080000 0.026000 0.000000
0.080000 0.028000 0.000000
0.080000 0.030000 0.000000
0.080000 0.032000 0.000000
0.080000 0.034000 0.000000
0.080000 0.036000 0.000000
0.080000 0.038000 0.000000
0.080000 0.040000 0.000000
0.080000 0.042000 0.000000
0.080000 0.044000 0.000000
0.080000 0.046000 0.000000
0.080000 0.048000 0.000000
0.080000 0.050000 0.000000
0.080000 0.052000 0.000000
0.080000 0.054000 0.000000
0.080000 0.056000 0.000000
0.080000 0.058000 0.000000
0.080000 0.060000 0.000000
0.080000 0.062000 0.000000
0.080000 0.064000 0.000000
0.080000 0.066000 0.000000
0.080000 0.068000 0.000000
0.080000 0.070000 0.000000
0.080000 0.072000 0.000000
0.080000 0.074000 0.000000
0.080000 0.076000 0.000000
0.080000 0.078000 0.000000
0.080000 0.080000 0.000000
0.080000 0.082000 0.000000
0.080000 0.084000 0.000000
0.080000 0.086000 0.000000
0.080000 0.088000 0.000000
0.080000 0.090000 0.000000
0.080000 0.092000 0.000000
0.080000 0.094000 0.000000
0.080000 0.096000 0.000000
0.080000 0.098000 0.000000
0.080000 0.100000 0.000000
0.080000 0.102000 0.000000
0.080000 0.104000 0.000000
0.080000 0.106000 0.000000
0.080000 0.108000 0.000000
0.080000 0.110000 0.000000
0.080000 0.112000 0.000000
0.080000 0.114000 0.000000
0.080000 0.116000 0.000000
0.080000 0.118000 0.000000
0.080000 0.120000 0.000000
0.080000 0.122000 0.000000
0.080000 0.124000 0.000000
0.080000 0.126000 0.000000
0.080000 0.128000 0.000000
0.080000 0.130000 0.000000
0.080000 0.132000 0.000000
0.080000 0.134000 0.000000
0.080000 0.136000 0.000000
0.080000 0.138000 0.000000
0.080000 0.140000 0.000000
0.080000 0.142000 0.000000
0.080000 0.144000 0.000000
0.080000 0.146000 0.000000
0.080000 0.148000 0.000000
0.080000 0.150000 0.000000
0.080000 0.152000 0.000000
0.080000 0.154000 0.000000
0.080000 0.156000 0.000000
0.080000 0.158000 0.000000
0.078000 0.160000 0.000000
0.076000 0.160000 0.000000
0.074000 0.160000 0.000000
0.072000 0.160000 0.000000
0.070000 0.160000 0.000000
0.068000 0.160000 0.000000
0.066000 0.160000 0.000000
0.064000 0.160000 0.000000
0.062000 0.160000 0.000000
0.060000 0.160000 0.000000
0.058000 0.160000 0.000000
0.056000 0.160000 0.000000
0.054000 0.160000 0.000000
0.052000 0.160000 0.000000
0.050000 0.160000 0.000000
0.048000 0.160000 0.000000
0.046000 0.160000 0.000000
0.044000 0.160000 0.000000
0.042000 0.160000 0.000000
0.040000 0.160000 0.000000
0.038000 0.160000 0.000000
0.036000 0.160000 0.000000
0.034000 0.160000 0.000000
0.032000 0.160000 0.000000
0.030000 0.160000 0.000000
0.028000 0.160000 0.000000
0.026000 0.160000 0.000000
0.024000 0.160000 0.000000
0.022000 0.160000 0.000000
0.020000 0.160000 0.000000
0.018000 0.160000 0.000000
0.016000 0.160000 0.000000
0.014000 0.160000 0.000000
0.012000 0.160000 0.000000
0.010000 0.160000 0.000000
0.008000 0.160000 0.000000
0.006000 0.160000 0.000000
0.004000 0.160000 0.000000
0.002000 0.160000 0.000000
0.000000 0.158000 0.000000
0.000000 0.156000 0.000000
0.000000 0.154000 0.000000
0.000000 0.152000 0.000000
0.000000 0.150000 0.000000
0.000000 0.148000 0.000000
0.000000 0.146000 0.000000
0.000000 0.144000 0.000000
0.000000 0.142000 0.000000
0.000000 0.140000 0.000000
0.000000 0.138000 0.000000
0.000000 0.136000 0.000000
0.000000 0.134000 0.000000
0.000000 0.132000 0.000000
0.000000 0.130000 0.000000
0.000000 0.128000 0.000000
0.000000 0.126000 0.000000
0.000000 0.124000 0.000000
0.000000 0.122000 0.000000
0.000000 0.120000 0.000000
0.000000 0.118000 0.000000
0.000000 0.116000 0.000000
0.000000 0.114000 0.000000
0.000000 0.112000 0.000000
0.000000 0.110000 0.000000
0.000000 0.108000 0.000000
0.000000 0.106000 0.000000
0.000000 0.104000 0.000000
0.000000 0.102000 0.000000
0.000000 0.100000 0.000000
0.000000 0.098000 0.000000
0.000000 0.096000 0.000000
0.000000 0.094000 0.000000
0.000000 0.092000 0.000000
0.000000 0.090000 0.000000
0.000000 0.088000 0.000000
0.000000 0.086000 0.000000
0.000000 0.084000 0.000000
0.000000 0.082000 0.000000
0.000000 0.080000 0.000000
0.000000 0.078000 0.000000
0.000000 0.076000 0.000000
0.000000 0.074000 0.000000
0.000000 0.072000 0.000000
0.000000 0.070000 0.000000
0.000000 0.068000 0.000000
0.000000 0.066000 0.000000
0.000000 0.064000 0.000000
0.000000 0.062000 0.000000
0.000000 0.060000 0.000000
0.000000 0.058000 0.000000
0.000000 0.056000 0.000000
0.000000 0.054000 0.000000
0.000000 0.052000 0.000000
0.000000 0.050000 0.000000
0.000000 0.048000 0.000000
0.000000 0.046000 0.000000
0.000000 0.044000 0.000000
0.000000 0.042000 0.000000
0.000000 0.040000 0.000000
0.000000 0.038000 0.000000
0.000000 0.036000 0.000000
0.000000 0.034000 0.000000
0.000000 0.032000 0.000000
0.000000 0.030000 0.000000
0.000000 0.028000 0.000000
0.000000 0.026000 0.000000
0.000000 0.024000 0.000000
0.000000 0.022000 0.000000
0.000000 0.020000 0.000000
0.000000 0.018000 0.000000
0.000000 0.016000 0.000000
0.000000 0.014000 0.000000
0.000000 0.012000 0.000000
0.000000 0.010000 0.000000
0.000000 0.008000 0.000000
0.000000 0.006000 0.000000
0.000000 0.004000 0.000000
0.000000 0.002000 0.000000
0.035411 0.076518 0.000000
0.035821 0.076786 0.000000
0.036232 0.077054 0.000000
0.036643 0.077321 0.000000
0.037054 0.077589 0.000000
0.037464 0.077857 0.000000
0.037875 0.078125 0.000000
0.038286 0.078393 0.000000
0.038696 0.078661 0.000000
0.039107 0.078929 0.000000
0.039518 0.079196 0.000000
0.039929 0.079464 0.000000
0.040339 0.079732 0.000000
0.040750 0.080000 0.000000
0.041161 0.080268 0.000000
0.041571 0.080536 0.000000
0.041982 0.080804 0.000000
0.042393 0.081071 0.000000
0.042804 0.081339 0.000000
0.043214 0.081607 0.000000
0.043625 0.081875 0.000000
0.044036 0.082143 0.000000
0.044446 0.082411 0.000000
0.044857 0.082679 0.000000
0.045268 0.082946 0.000000
0.045679 0.083214 0.000000
0.046089 0.083482 0.000000
0.040000 0.002000 0.000000
0.040001 0.158005 0.000000
0.002000 0.116000 0.000000
0.078000 0.048000 0.000000
0.002000 0.106000 0.000000
0.078000 0.058000 0.000000
0.001986 0.042173 0.000000
0.078015 0.117826 0.000000
0.001985 0.094174 0.000000
0.001985 0.084174 0.000000
0.001914 0.056074 0.000000
0.002000 0.072000 0.000000
0.078015 0.065826 0.000000
0.078016 0.075826 0.000000
0.078000 0.088000 0.000000
0.078000 0.104000 0.000000
0.078003 0.029997 0.000000
0.001998 0.130002 0.000000
0.002000 0.032000 0.000000
0.078013 0.128003 0.000000
0.056000 0.158000 0.000000
0.026000 0.002000 0.000000
0.060000 0.002000 0.000000
0.020000 0.158000 0.000000
0.002000 0.020000 0.000000
0.078000 0.142000 0.000000
0.002000 0.146000 0.000000
0.078000 0.020000 0.000000
0.016000 0.002000 0.000000
0.068000 0.002000 0.000000
0.066000 0.158000 0.000000
0.002000 0.014000 0.000000
0.008000 0.158000 0.000000
0.010000 0.002000 0.000000
0.078000 0.148000 0.000000
0.078000 0.008000 0.000000
0.078005 0.037995 0.000000
0.051991 0.001990 0.000000
0.028000 0.158000 0.000000
0.002000 0.008000 0.000000
0.078000 0.094000 0.000000
0.078000 0.110000 0.000000
0.001983 0.066159 0.000000
0.002000 0.050000 0.000000
0.046000 0.158000 0.000000
0.078000 0.134000 0.000000
0.002000 0.140000 0.000000
0.006000 0.002000 0.000000
0.002000 0.154000 0.000000
0.074000 0.002000 0.000000
0.078000 0.152000 0.000000
0.074000 0.158000 0.000000
0.078000 0.080000 0.000000
0.078000 0.070000 0.000000
0.078000 0.122000 0.000000
0.002000 0.090000 0.000000
0.002000 0.080000 0.000000
0.002000 0.038000 0.000000
0.002000 0.102000 0.000000
0.002000 0.112000 0.000000
0.036000 0.002000 0.000000
0.078000 0.042000 0.000000
0.032000 0.002000 0.000000
0.047987 0.001989 0.000000
0.032008 0.158010 0.000000
0.002000 0.028000 0.000000
0.002000 0.126000 0.000000
0.060000 0.158000 0.000000
0.022000 0.002000 0.000000
0.002000 0.136000 0.000000
0.078000 0.024000 0.000000
0.012000 0.158000 0.000000
0.078000 0.158000 0.000000
0.001947 0.003947 0.000000
0.002000 0.158000 0.000000
0.078000 0.012000 0.000000
0.078000 0.096000 0.000000
0.078000 0.098000 0.000000
0.078000 0.082000 0.000000
0.078111 0.099889 0.000000
0.078035 0.083965 0.000000
0.078000 0.090000 0.000000
0.078000 0.106000 0.000000
0.078000 0.072000 0.000000
0.078000 0.112000 0.000000
0.078043 0.061976 0.000000
0.078000 0.114000 0.000000
0.002000 0.064000 0.000000
0.002000 0.062000 0.000000
0.002000 0.088000 0.000000
0.002000 0.078000 0.000000
0.002000 0.060000 0.000000
0.001966 0.076034 0.000000
0.002000 0.070000 0.000000
0.002000 0.054000 0.000000
0.001957 0.098024 0.000000
0.002000 0.048000 0.000000
0.002000 0.046000 0.000000
[...]
POINT_DATA 5510
SCALARS UX float 1
LOOKUP_TABLE default
0.011287
0.075995
0.000002
-0.063485
0.002996
0.010557
0.012906
0.014527
0.016147
0.017769
0.019392
0.021016
0.022641
0.024267
0.025893
0.027519
0.029146
0.030771
0.032395
0.034017
0.035637
0.037255
0.038871
0.040484
0.042096
0.043705
0.045313
0.046918
0.048522
0.050125
0.051728
0.053330
0.054933
0.056537
0.058141
0.059747
0.061355
0.062966
0.064580
0.066197
0.067817
0.069443
0.071073
0.072712
0.074351
0.075084
0.074182
0.073291
0.072400
0.071523
0.070647
0.069783
0.068920
0.068061
0.067205
0.066351
0.065506
0.064661
0.063821
0.062983
0.062146
0.061308
0.060469
0.059626
0.058777
0.057920
0.057065
0.056200
0.055328
0.054459
0.053571
0.052678
0.051777
0.050874
0.049965
0.049054
0.048140
0.047226
0.046309
0.045389
0.044470
0.043548
0.042625
0.041702
0.040777
0.039852
0.038924
0.037991
0.037050
0.036106
0.035123
0.034107
0.033066
0.031941
0.030684
0.029414
0.028112
0.026804
0.025565
0.024391
0.023289
0.022203
0.021221
0.020251
0.019307
0.018384
0.017465
0.016559
0.015654
0.014751
0.013851
0.012950
0.012050
0.011150
0.010252
0.009355
0.008459
0.007567
0.006677
0.005788
0.004906
0.003999
0.003010
0.001760
-0.000018
-0.001661
-0.003347
-0.005026
-0.006680
-0.008329
-0.009978
-0.011622
-0.013262
-0.014899
-0.016533
-0.018165
-0.019793
-0.021420
-0.023046
-0.024666
-0.026284
-0.027900
-0.029513
-0.031123
-0.032732
-0.034339
-0.035945
-0.037549
-0.039153
-0.040757
-0.042361
-0.043965
-0.045571
-0.047178
-0.048788
-0.050402
-0.052020
-0.053641
-0.055267
-0.056897
-0.058535
-0.060182
-0.061830
-0.062568
-0.061665
-0.060761
-0.059881
-0.059003
-0.058130
-0.057266
-0.056407
-0.055550
-0.054697
-0.053848
-0.053005
-0.052160
-0.051322
-0.050484
-0.049645
-0.048802
-0.047960
-0.047113
-0.046264
-0.045411
-0.044553
-0.043688
-0.042815
-0.041944
-0.041057
-0.040165
-0.039267
-0.038365
-0.037460
-0.036551
-0.035640
-0.034728
-0.033813
-0.032895
-0.031977
-0.031056
-0.030134
-0.029211
-0.028285
-0.027360
-0.026431
-0.025496
-0.024554
-0.023611
-0.022635
-0.021633
-0.020591
-0.019517
-0.018305
-0.017060
-0.015803
-0.014527
-0.013276
-0.012073
-0.010890
-0.009846
-0.008834
-0.007837
-0.006869
-0.005928
-0.004994
-0.004083
-0.003175
-0.002269
-0.001363
-0.000460
0.000443
0.001345
0.002248
0.003151
0.004054
0.004957
0.005860
0.006763
0.007667
0.008571
0.009476
0.010381
0.003280
0.003574
0.003980
0.004373
0.004687
0.004915
0.005161
0.005432
0.005613
0.005880
0.006110
0.006299
0.006549
0.006800
0.007093
0.007372
0.007660
0.007943
0.008204
0.008419
0.008635
0.008835
0.009075
0.009302
0.009581
0.009892
0.010182
0.042802
-0.030222
-0.042899
0.053687
-0.038554
0.049267
-0.006234
0.018657
-0.033223
-0.028631
-0.014103
-0.022960
0.045720
0.041124
0.035458
0.026254
0.061284
-0.048788
-0.001533
0.014023
-0.017250
0.031484
0.058849
-0.046280
0.003873
0.007723
-0.055589
0.065524
0.023357
0.065294
-0.009067
0.006578
-0.055985
0.018484
0.005032
0.070748
0.057942
0.052431
-0.039859
0.009287
0.032475
0.022600
-0.020091
-0.010245
-0.025376
0.011317
-0.053011
0.015241
-0.059103
0.070160
0.003229
-0.002523
0.039184
0.043795
0.016722
-0.031300
-0.026692
-0.004256
-0.036764
-0.041185
0.039579
0.056251
0.036348
0.049221
-0.036648
0.000270
-0.047114
-0.013983
0.028234
-0.051309
0.063809
-0.052734
0.000306
0.011076
-0.060904
0.068988
0.031382
0.030175
0.038259
0.029061
0.037374
0.034492
0.024972
0.042874
0.021508
0.047500
0.020488
-0.018936
-0.017769
-0.030381
-0.025766
-0.016533
-0.024876
-0.021997
-0.012698
-0.034999
-0.009143
-0.008110
0.051060
0.055422
0.052817
-0.040313
-0.044593
0.015816
-0.003343
0.046018
-0.033439
-0.028608
0.059617
-0.023756
-0.022134
-0.046275
0.034730
0.055640
-0.043068
0.001171
0.013123
0.010418
0.002072
0.009519
-0.050465
-0.020508
0.062966
-0.054729
-0.012346
0.026609
0.062066
-0.049500
0.006826
0.067250
-0.057338
0.004774
0.007481
-0.007421
0.021732
-0.005785
0.002315
-0.059255
0.013556
0.011850
0.072529
0.068534
0.073432
-0.039569
0.052061
-0.029734
-0.025162
-0.021381
-0.014888
-0.008508
0.037660
0.033881
0.027296
0.042229
0.019906
-0.029301
-0.044616
0.012378
-0.002627
0.035435
-0.019615
0.001902
0.007894
0.027326
-0.049620
0.062126
-0.013075
0.006398
0.022450
-0.053926
-0.006556
0.024439
0.053839
0.008201
0.001560
0.069255
0.035884
0.028544
0.030838
-0.023383
-0.016149
-0.018373
-0.006517
0.033641
0.036532
0.027770
0.040274
0.042010
0.023911
0.044876
0.019575
-0.021155
-0.029516
-0.024033
-0.032379
-0.015328
-0.027780
-0.011517
-0.007174
0.046594
-0.034095
0.048411
-0.035908
0.050212
0.017844
-0.037705
-0.005397
0.051985
-0.039479
-0.042155
0.054578
-0.043777
0.057115
-0.045453
0.044404
-0.031823
0.041187
-0.026988
0.047616
-0.035039
0.014941
-0.002463
0.058782
0.037961
0.050825
-0.038250
-0.022840
0.054034
-0.041461
-0.047951
-0.000639
0.012223
0.060447
0.002801
0.033107
0.009686
-0.018880
0.057243
-0.044672
0.002970
0.008623
-0.049624
0.062121
-0.052158
-0.015618
0.029860
-0.053869
0.064663
-0.010708
0.024983
-0.047888
0.060456
-0.051115
0.063678
0.005928
0.005676
-0.054358
0.066383
-0.056461
0.004136
0.068116
0.008383
0.020108
-0.058216
-0.004150
0.069862
0.001348
0.016862
0.010191
-0.057617
0.012715
0.066912
-0.000989
-0.058346
-0.059996
0.071633
0.070887
0.071792
-0.034549
0.047048
-0.013387
0.046717
0.025725
0.003530
-0.037382
0.053154
-0.043778
0.059557
0.066458
-0.050213
0.004294
0.057135
0.040340
-0.053451
-0.056562
0.031968
0.017970
-0.019483
0.045222
0.043211
-0.032723
-0.030705
0.040427
0.038618
-0.027931
-0.026110
0.048795
-0.036294
0.016091
-0.000824
-0.034138
0.000999
0.058747
0.010594
-0.046271
0.032200
0.028950
0.024075
0.062777
-0.052193
-0.050472
0.019201
0.010004
-0.054800
0.064717
0.062982
-0.003345
0.000612
0.068216
0.068355
0.032886
0.034796
-0.020387
0.025877
-0.022291
0.019066
-0.013522
-0.009690
0.052970
0.041330
-0.028833
-0.005522
-0.003584
-0.040464
-0.042122
0.021941
0.023196
0.050359
0.051196
-0.037862
-0.038698
-0.030979
0.029781
0.036787
-0.043783
-0.017325
-0.024287
0.020942
0.055460
0.054644
-0.007550
-0.001734
0.013292
0.049928
0.037095
-0.024443
0.043559
-0.026133
0.011495
-0.045454
-0.040575
-0.017994
0.033816
0.060426
0.061272
-0.047930
-0.048774
0.006992
0.056350
0.003692
0.005499
-0.021228
0.008794
0.025704
-0.027720
-0.014707
-0.046990
-0.009808
-0.011444
-0.008175
-0.053054
0.020826
0.066008
0.007298
0.009102
0.015957
0.067629
-0.004947
0.014336
0.069989
0.002483
-0.000340
-0.057450
0.011811
-0.056708
-0.001975
0.053060
-0.036614
0.017252
-0.024593
-0.029234
-0.019037
-0.026693
0.041745
0.037152
0.031399
-0.042200
0.011684
-0.018711
0.036144
0.058754
0.007173
-0.046253
0.028043
-0.010553
0.007126
0.023172
-0.050522
0.010724
-0.008078
-0.012143
0.020531
-0.004122
0.033642
-0.021191
-0.004046
0.051494
0.028225
-0.015816
0.002625
-0.000128
-0.043789
0.032911
0.019922
0.005193
-0.052267
0.000834
0.024131
0.030449
0.019376
-0.018001
0.039554
0.044179
-0.027057
-0.031681
0.046133
-0.033634
-0.041303
0.035277
0.026801
-0.014556
0.047956
-0.035455
-0.004632
-0.022771
0.016868
-0.042894
-0.012046
-0.010407
-0.025148
-0.029995
-0.035714
0.040003
-0.027502
0.056304
-0.037023
-0.006000
0.049521
0.051509
0.038685
0.041916
0.048291
0.015138
0.014223
0.057949
0.000083
0.049725
-0.016339
0.059594
-0.038978
-0.047098
0.006263
0.009879
-0.021936
0.030571
0.004588
-0.037243
-0.038915
0.054752
-0.042176
0.059605
0.061312
0.004415
-0.047099
-0.048797
-0.013804
-0.008926
0.008962
0.057954
-0.045384
-0.051331
0.024802
-0.032550
0.063848
0.008923
0.006094
-0.048599
0.061165
-0.007315
0.064391
0.065583
0.066729
0.017579
0.003391
-0.055677
0.067334
0.013431
-0.051829
0.067462
0.069099
0.010907
-0.001025
-0.001820
-0.055808
-0.055077
0.045131
0.021660
-0.035052
-0.016682
-0.011835
0.029258
-0.024388
-0.044599
0.008256
0.045827
0.057104
0.004237
-0.036489
0.052259
0.060266
-0.009672
-0.042881
0.023892
0.063929
0.046187
-0.047702
0.065833
-0.050930
0.025310
-0.033692
0.055478
0.005541
-0.010936
0.037766
-0.025475
-0.031881
-0.029851
0.044374
0.042356
0.039443
-0.045434
-0.015448
0.006210
0.029661
0.062182
0.004469
0.011625
-0.054175
-0.008919
0.039265
-0.026772
-0.002860
0.019244
-0.020396
0.032600
0.018279
-0.034776
0.047248
0.049096
-0.013346
0.052253
-0.035884
-0.040576
-0.039656
-0.041410
0.036105
-0.023639
0.034211
0.012566
0.014558
-0.021736
0.037733
-0.033245
-0.031556
0.029237
-0.016764
0.040814
-0.028314
0.022832
-0.001041
0.057909
0.053872
-0.006983
0.049028
0.016403
-0.044605
-0.042985
0.042617
-0.017099
-0.038027
0.005303
0.031292
0.010781
0.034512
-0.038094
0.001729
0.000779
0.050499
-0.005054
0.060456
0.053860
-0.020322
0.056281
-0.023538
-0.047943
-0.049658
0.008075
0.005369
0.006025
-0.044486
0.057057
0.008020
0.026422
0.063490
-0.012178
0.021545
-0.008065
0.009821
-0.039685
0.003562
0.001751
0.065108
0.065690
0.066574
0.016675
0.018300
0.012528
0.015053
-0.051394
-0.005715
-0.053149
-0.054916
-0.028411
-0.002574
-0.000096
0.051472
0.044958
-0.025346
-0.021685
-0.004589
-0.011418
0.037851
0.034269
0.038436
-0.035622
0.051378
-0.041992
-0.016210
-0.008808
-0.048002
0.009640
-0.039148
0.002851
-0.000384
0.032010
0.047530
0.040500
-0.027985
0.011445
0.020645
0.017396
-0.050621
-0.053280
-0.029100
0.028072
0.022448
0.032149
0.029958
-0.019751
-0.017564
-0.015614
0.049980
0.020122
-0.006582
0.056296
0.006453
0.035788
0.028759
0.058801
0.025514
0.013248
0.000115
-0.003302
-0.025950
-0.040601
-0.042167
-0.043785
0.026508
0.024186
-0.038293
0.018055
0.015918
-0.014402
0.043228
-0.030729
-0.034107
-0.032488
-0.032734
0.045227
0.048415
0.015510
0.013578
0.038619
-0.026107
-0.010579
-0.022815
-0.021030
0.000552
-0.030797
0.009138
0.011000
0.002426
-0.034879
-0.035745
-0.002694
0.054682
0.050651
-0.014535
0.047430
0.007362
0.044188
0.006909
0.048186
0.057956
0.035222
-0.037327
-0.046285
-0.045442
0.003324
0.063053
-0.041278
0.055457
0.005132
0.004650
0.022267
0.060527
-0.012909
-0.011286
-0.019426
0.057081
-0.037205
-0.046090
0.061875
-0.048871
0.058659
0.007842
0.002662
0.064211
0.064055
0.064808
-0.006467
-0.049315
-0.001720
0.064942
0.015772
0.014150
-0.052549
-0.054030
0.041022
-0.023202
-0.009828
0.038314
-0.025814
0.001187
-0.032857
0.046013
-0.016157
-0.024231
0.027697
0.036631
-0.023505
0.007566
0.005838
-0.042157
-0.034737
0.054644
0.003938
0.024613
0.056161
-0.046360
-0.028357
0.008527
-0.046803
0.025251
0.013900
-0.029672
-0.031586
0.042169
0.044035
0.045579
-0.020135
-0.015264
0.011966
0.041722
0.053042
0.044935
-0.043796
0.056315
-0.040406
0.021368
0.001030
0.059367
0.062593
-0.052391
-0.012465
-0.024478
0.036937
0.015121
0.031109
0.033293
-0.018513
-0.001327
-0.020684
-0.028544
0.041044
0.017119
0.050672
0.046491
0.021283
-0.009535
0.017804
-0.005508
-0.010275
-0.015236
0.001439
0.039496
0.010121
-0.026987
-0.033595
-0.033177
0.040019
0.054657
-0.042981
0.055465
0.049780
0.022649
-0.003570
0.005748
0.052254
0.034936
0.046563
0.004069
-0.036504
-0.041350
-0.038792
0.030374
0.003758
0.061407
0.063173
-0.012022
0.027129
0.006742
-0.047143
-0.034027
-0.032391
0.036812
0.010538
0.048931
-0.010411
0.001939
0.059661
-0.017816
-0.049743
-0.007211
0.008741
0.019018
-0.048417
-0.051654
0.016494
0.052967
-0.051504
-0.043588
0.062427
0.063318
0.012345
-0.002426
-0.000805
0.014870
-0.004876
0.033614
-0.027531
-0.039828
-0.022351
-0.024251
-0.007378
-0.013289
0.036428
0.027257
-0.030651
0.043145
0.023018
0.032967
0.049857
-0.031735
0.041901
-0.004061
-0.014761
-0.008593
0.040687
0.007428
0.032717
0.048906
-0.037701
-0.011146
0.058905
-0.041095
0.011261
-0.029408
-0.026726
0.039230
0.001235
0.061543
-0.045911
-0.048105
-0.021855
0.034549
0.015337
0.048402
0.032908
0.030799
0.029047
0.043557
0.045263
0.003172
-0.026794
-0.020409
-0.039029
-0.016863
-0.045495
0.029474
0.026228
-0.007948
0.018117
-0.004024
0.037522
-0.023438
0.035966
-0.018276
-0.010814
0.026688
0.020916
0.018540
0.000041
-0.001548
-0.031259
0.016526
-0.032047
-0.007991
-0.009354
0.012903
0.002118
-0.014222
-0.008477
0.038021
-0.021726
0.008508
-0.025566
0.013786
-0.025072
0.010448
-0.031575
-0.029920
-0.040560
0.053034
0.023821
-0.018544
0.006670
0.048158
0.007618
0.050627
-0.034274
0.043295
-0.042961
0.046646
-0.044641
0.055470
-0.037923
-0.036315
-0.035797
0.004869
-0.013631
0.004855
0.053830
0.054561
-0.024794
0.037313
0.012164
0.015592
-0.041349
0.022987
0.000312
-0.001517
-0.045188
-0.047230
0.019746
0.060975
0.062288
0.003049
-0.002023
0.057169
-0.005619
0.057763
0.060815
-0.050762
0.013067
0.009447
0.061702
0.013969
-0.050031
0.034329
-0.049868
0.050484
0.053824
-0.033166
-0.006235
0.026071
0.021875
-0.028547
0.041043
0.014222
0.031955
-0.016943
0.001729
0.048231
-0.027193
0.039692
-0.022111
0.027447
0.034761
0.022256
-0.025757
0.006950
-0.038996
-0.019359
-0.032289
0.033432
0.052205
-0.042171
0.048015
0.025327
0.003252
0.010122
-0.044734
0.037575
-0.025064
0.012883
-0.000405
0.054688
0.020470
0.055264
0.059925
0.052249
-0.035457
-0.044300
0.060661
0.017214
0.014693
-0.048252
0.024445
-0.015612
0.039679
-0.027181
0.029865
-0.000163
0.030641
-0.019191
-0.036584
-0.029934
0.044402
0.049086
-0.030506
-0.007577
0.019750
-0.030947
-0.005333
0.033648
0.042774
0.009476
0.012482
0.011317
0.043988
-0.021154
-0.039816
-0.027470
0.042243
-0.012774
-0.013749
0.051400
0.005064
-0.029136
-0.021049
-0.038267
-0.017580
0.045668
-0.032236
0.026323
0.047290
0.035395
-0.022853
0.044558
-0.022793
0.006387
0.004307
-0.040531
0.020247
0.002156
-0.043020
-0.014354
0.053026
-0.035006
0.031100
0.058032
0.047371
0.027838
-0.042691
0.059781
-0.012748
0.060077
0.023711
0.010349
-0.045603
-0.009542
-0.003137
-0.047520
0.001452
0.056871
0.008319
-0.000595
0.035146
-0.003008
-0.039511
-0.004753
-0.006353
-0.049141
-0.048986
0.052068
0.035917
0.002688
0.039102
0.036764
-0.024248
-0.007343
0.016585
-0.022625
0.031971
-0.011581
-0.009704
0.040251
-0.027753
0.029389
-0.000555
0.013100
-0.017515
0.016386
-0.019112
0.003244
-0.030213
-0.023799
-0.019102
0.036311
-0.014370
-0.007129
0.025992
-0.025069
0.008029
-0.018306
0.050583
-0.040580
0.024426
-0.011871
0.012069
-0.043120
-0.040200
-0.043416
0.039774
-0.011622
0.054380
-0.004855
-0.027990
0.039082
-0.026587
0.046917
-0.002629
0.049845
0.033149
0.030192
-0.007078
0.011960
0.026935
-0.006439
0.056409
0.016313
-0.003847
-0.047363
-0.046638
-0.000588
0.051395
-0.017774
0.010853
-0.029805
0.014943
0.047503
0.038190
-0.025700
-0.029319
0.041355
0.042340
0.005242
0.018175
0.031818
-0.020224
-0.020544
0.043980
0.007887
-0.037514
-0.036289
-0.035043
-0.021358
0.041755
0.049007
-0.026747
0.006017
0.033892
0.009197
0.046420
0.021187
0.000542
0.036072
-0.023530
-0.013394
0.043215
-0.039762
-0.032822
0.045137
0.011044
-0.033855
-0.009403
0.004170
0.040485
0.031813
0.055543
-0.034278
0.059045
-0.001308
-0.015960
0.053660
-0.041352
-0.010276
0.018837
-0.046478
0.013781
0.053845
-0.002226
0.002350
0.059205
-0.043864
0.008995
0.036626
0.035018
0.022089
0.019242
0.057286
-0.037036
0.058470
0.049588
0.025236
-0.038228
0.017230
-0.024189
-0.030723
0.030989
0.029366
0.003730
0.023349
0.009851
-0.016385
0.028138
0.000926
0.015433
0.030561
-0.037450
-0.001837
-0.028884
0.045815
-0.028146
0.039188
-0.020857
-0.013092
0.030573
0.033502
0.019857
-0.024388
0.006381
-0.036064
0.040449
0.034116
0.009586
0.047118
-0.033009
0.053078
0.002577
-0.011001
0.011704
-0.000154
-0.026713
-0.033525
-0.019018
0.016811
0.023032
0.005719
0.047597
0.049787
-0.023524
-0.037429
0.013926
0.015206
0.026033
0.029412
0.013563
0.021195
0.054797
0.030892
0.052775
-0.042258
0.017932
0.057601
0.026830
0.001141
0.036605
-0.024107
-0.012085
0.043174
-0.003729
0.006975
0.008996
0.034192
0.035544
-0.021653
-0.023020
-0.019603
-0.006504
-0.036885
-0.020046
-0.021859
0.004427
0.032004
0.037840
-0.025353
-0.030799
-0.038974
-0.001085
-0.002938
0.017945
-0.008156
0.044781
-0.039761
0.025042
-0.010334
0.013057
0.051176
-0.041421
0.028544
-0.033528
-0.029850
-0.028616
0.058165
-0.045752
-0.006032
-0.041794
-0.005461
0.055975
-0.013463
0.045822
-0.016677
0.057441
-0.045013
0.022810
-0.038613
0.051408
0.058321
0.015411
-0.008677
0.001677
0.009881
-0.043990
-0.034574
0.004174
-0.001586
0.032414
0.038204
0.050618
-0.028298
0.022116
-0.015083
-0.016741
0.011419
0.028731
0.009692
0.002359
0.013481
-0.036000
-0.018170
-0.028588
0.041641
0.002339
-0.019104
-0.005892
0.025633
0.021663
0.032463
0.016417
0.048184
-0.013849
-0.032131
-0.037412
-0.039829
0.001020
0.025141
-0.003317
-0.001772
0.051894
0.041749
-0.010369
-0.040899
-0.007804
-0.017890
-0.020393
-0.005316
0.007433
0.028301
-0.041519
-0.012588
-0.004549
-0.044149
0.017027
0.056559
0.021919
0.049009
-0.027412
0.004681
-0.001123
-0.023143
0.045355
0.040444
0.008288
0.041806
0.008614
0.031257
-0.034798
-0.019906
0.018932
-0.027573
-0.027512
0.046833
-0.028850
0.005440
0.024154
0.034884
-0.022346
0.010776
-0.008171
-0.036711
0.029794
0.015913
0.027596
0.043918
0.024733
0.020844
0.032709
-0.031392
-0.012258
-0.031395
0.003513
0.012638
0.055113
0.053943
0.032502
-0.022578
-0.038186
-0.025828
0.038408
0.035094
0.029257
0.055672
0.019565
-0.015058
0.014492
-0.019328
-0.044870
-0.002012
0.043639
0.027626
0.000772
0.014551
-0.032792
-0.009402
0.055842
0.048971
0.048262
-0.037736
-0.036145
0.035721
0.010542
0.000033
0.000907
0.056720
0.052236
0.048691
-0.038192
0.045550
0.005110
-0.015652
-0.025899
0.038893
-0.017398
0.014106
-0.034483
-0.035412
0.010701
0.010111
0.012255
0.040279
-0.016524
0.037163
-0.024663
0.009681
-0.026195
0.037891
-0.011938
-0.018159
0.029389
0.024413
-0.023835
0.034830
0.046583
0.010127
0.041465
0.046225
-0.035882
0.051485
-0.011711
0.044994
-0.025442
-0.034531
-0.032036
0.013338
0.013745
0.022653
-0.008532
0.028117
0.019317
0.017207
-0.000813
0.043206
-0.030574
0.018637
0.054254
0.053213
0.054975
0.031591
-0.003637
-0.043275
-0.035279
0.008303
0.004885
0.012298
0.036075
-0.023580
-0.011472
0.030896
0.031714
-0.004802
-0.018620
0.041077
0.045931
0.047401
-0.002331
0.023735
0.007239
0.026474
0.006276
0.039604
-0.026980
0.020659
0.003862
0.001945
0.000119
-0.007112
0.042478
-0.035928
0.033112
0.034394
-0.021864
-0.036665
-0.020568
-0.024111
0.036613
-0.028958
-0.029430
-0.006184
-0.008921
0.020302
-0.042484
0.015191
-0.039000
-0.032084
-0.002680
-0.042378
0.016125
0.050279
0.029967
0.026737
-0.005130
0.015510
-0.015782
-0.014164
-0.033697
0.053495
-0.033318
0.005616
0.023523
0.037296
-0.040661
0.011427
0.049796
0.011115
0.043078
-0.039306
0.044270
-0.027228
0.003806
-0.016985
-0.025076
-0.018264
-0.018333
-0.015514
-0.014570
0.011599
0.001940
0.000257
0.039057
0.035862
-0.023358
-0.021744
0.037757
-0.025535
-0.022385
-0.005502
0.030149
0.019462
0.004621
-0.022726
0.011638
0.038949
0.030661
0.025843
-0.031290
0.000415
-0.017369
0.015166
-0.038251
0.006115
0.040367
0.042105
-0.009797
-0.003917
0.025150
-0.025997
0.021634
0.031502
-0.014156
-0.002428
-0.004297
-0.038424
-0.039944
0.021014
0.016818
0.053387
0.049438
0.045819
0.043756
-0.041697
0.003659
0.036400
-0.012702
-0.016833
-0.021411
0.011163
0.033934
0.034874
-0.003131
-0.000812
-0.011097
0.030185
-0.017568
0.043856
0.018182
-0.006843
-0.026028
0.008974
0.028667
-0.008720
0.014652
-0.006953
0.033788
-0.021242
0.003332
-0.018841
0.012333
-0.033995
-0.016007
0.041134
-0.034377
-0.028186
-0.026580
0.039124
0.002906
-0.029994
-0.031326
0.026988
-0.036628
0.014226
-0.035216
0.054098
0.023583
0.047806
0.050649
0.033202
-0.024669
0.046660
0.006554
-0.014869
-0.016533
0.037150
-0.032843
0.028351
-0.010116
-0.027561
0.024241
0.037970
0.019361
0.043733
-0.036848
0.047389
-0.013297
0.012073
-0.005244
-0.000513
0.017731
0.052666
0.044655
0.006988
0.052339
-0.035128
-0.003867
0.040629
0.008773
-0.019628
0.012826
-0.032691
0.001189
0.010519
-0.022654
0.010021
-0.011606
-0.007826
0.023363
0.003089
-0.032876
0.038272
0.044240
-0.030437
0.045346
-0.015583
-0.001097
-0.030568
-0.025976
0.024940
-0.010827
0.049885
0.000628
0.010381
0.039051
0.028273
0.025722
-0.005134
0.006752
0.037737
-0.024195
0.034006
0.013368
0.013946
-0.032030
-0.035979
-0.025807
0.015863
0.051800
0.045097
-0.034326
0.027437
0.001370
0.029196
-0.015846
-0.014650
0.042853
0.027226
-0.016567
-0.021313
-0.001851
-0.002637
-0.009588
0.016324
0.018362
-0.024963