# vtk DataFile Version 2.0
Test
ASCII
DATASET POLYDATA
POINTS 5510 float
0.000000 0.000000 0.000000
0.080000 0.000000 0.000000
0.080000 0.160000 0.000000
0.000000 0.160000 0.000000
0.035000 0.076250 0.000000
0.046500 0.083750 0.000000
0.002000 0.000000 0.000000
0.004000 0.000000 0.000000
0.006000 0.000000 0.000000
0.008000 0.000000 0.000000
0.010000 0.000000 0.000000
0.012000 0.000000 0.000000
0.014000 0.000000 0.000000
0.016000 0.000000 0.000000
0.018000 0.000000 0.000000
0.020000 0.000000 0.000000
0.022000 0.000000 0.000000
0.024000 0.000000 0.000000
0.026000 0.000000 0.000000
0.028000 0.000000 0.000000
0.030000 0.000000 0.000000
0.032000 0.000000 0.000000
0.034000 0.000000 0.000000
0.036000 0.000000 0.000000
0.038000 0.000000 0.000000
0.040000 0.000000 0.000000
0.042000 0.000000 0.000000
0.044000 0.000000 0.000000
0.046000 0.000000 0.000000
0.048000 0.000000 0.000000
0.050000 0.000000 0.000000
0.052000 0.000000 0.000000
0.054000 0.000000 0.000000
0.056000 0.000000 0.000000
0.058000 0.000000 0.000000
0.060000 0.000000 0.000000
0.062000 0.000000 0.000000
0.064000 0.000000 0.000000
0.066000 0.000000 0.000000
0.068000 0.000000 0.000000
0.070000 0.000000 0.000000
0.072000 0.000000 0.000000
0.074000 0.000000 0.000000
0.076000 0.000000 0.000000
0.078000 0.000000 0.000000
0.080000 0.002000 0.000000
0.080000 0.004000 0.000000
0.080000 0.006000 0.000000
0.080000 0.008000 0.000000
0.080000 0.010000 0.000000
0.080000 0.012000 0.000000
0.080000 0.014000 0.000000
0.080000 0.016000 0.000000
0.080000 0.018000 0.000000
0.080000 0.020000 0.000000
0.080000 0.022000 0.000000
0.080000 0.024000 0.000000
0.080000 0.026000 0.000000
0.080000 0.028000 0.000000
0.080000 0.030000 0.000000
0.080000 0.032000 0.000000
0.080000 0.034000 0.000000
0.080000 0.036000 0.000000
0.080000 0.038000 0.000000
0.080000 0.040000 0.000000
0.080000 0.042000 0.000000
0.080000 0.044000 0.000000
0.080000 0.046000 0.000000
0.080000 0.048000 0.000000
0.080000 0.050000 0.000000
0.080000 0.052000 0.000000
0.080000 0.054000 0.000000
0.080000 0.056000 0.000000
0.080000 0.058000 0.000000
0.080000 0.060000 0.000000
0.080000 0.062000 0.000000
0.080000 0.064000 0.000000
0.080000 0.066000 0.000000
0.080000 0.068000 0.000000
0.080000 0.070000 0.000000
0.080000 0.072000 0.000000
0.080000 0.074000 0.000000
0.080000 0.076000 0.000000
0.080000 0.078000 0.000000
0.080000 0.080000 0.000000
0.080000 0.082000 0.000000
0.080000 0.084000 0.000000
0.080000 0.086000 0.000000
0.080000 0.088000 0.000000
0.080000 0.090000 0.000000
0.080000 0.092000 0.000000
0.080000 0.094000 0.000000
0.080000 0.096000 0.000000
0.080000 0.098000 0.000000
0.080000 0.100000 0.000000
0.080000 0.102000 0.000000
0.080000 0.104000 0.000000
0.080000 0.106000 0.000000
0.080000 0.108000 0.000000
0.080000 0.110000 0.000000
0.080000 0.112000 0.000000
0.080000 0.114000 0.000000
0.080000 0.116000 0.000000
0.080000 0.118000 0.000000
0.080000 0.120000 0.000000
0.080000 0.122000 0.000000
0.080000 0.124000 0.000000
0.080000 0.126000 0.000000
0.080000 0.128000 0.000000
0.080000 0.130000 0.000000
0.080000 0.132000 0.000000
0.080000 0.134000 0.000000
0.080000 0.136000 0.000000
0.080000 0.138000 0.000000
0.080000 0.140000 0.000000
0.080000 0.142000 0.000000
0.080000 0.144000 0.000000
0.080000 0.146000 0.000000
0.080000 0.148000 0.000000
0.080000 0.150000 0.000000
0.080000 0.152000 0.000000
0.080000 0.154000 0.000000
0.080000 0.156000 0.000000
0.080000 0.158000 0.000000
0.078000 0.160000 0.000000
0.076000 0.160000 0.000000
0.074000 0.160000 0.000000
0.072000 0.160000 0.000000
0.070000 0.160000 0.000000
0.068000 0.160000 0.000000
0.066000 0.160000 0.000000
0.064000 0.160000 0.000000
0.062000 0.160000 0.000000
0.060000 0.160000 0.000000
0.058000 0.160000 0.000000
0.056000 0.160000 0.000000
0.054000 0.160000 0.000000
0.052000 0.160000 0.000000
0.050000 0.160000 0.000000
0.048000 0.160000 0.000000
0.046000 0.160000 0.000000
0.044000 0.160000 0.000000
0.042000 0.160000 0.000000
0.040000 0.160000 0.000000
0.038000 0.160000 0.000000
0.036000 0.160000 0.000000
0.034000 0.160000 0.000000
0.032000 0.160000 0.000000
0.030000 0.160000 0.000000
0.028000 0.160000 0.000000
0.026000 0.160000 0.000000
0.024000 0.160000 0.000000
0.022000 0.160000 0.000000
0.020000 0.160000 0.000000
0.018000 0.160000 0.000000
0.016000 0.160000 0.000000
0.014000 0.160000 0.000000
0.012000 0.160000 0.000000
0.010000 0.160000 0.000000
0.008000 0.160000 0.000000
0.006000 0.160000 0.000000
0.004000 0.160000 0.000000
0.002000 0.160000 0.000000
0.000000 0.158000 0.000000
0.000000 0.156000 0.000000
0.000000 0.154000 0.000000
0.000000 0.152000 0.000000
0.000000 0.150000 0.000000
0.000000 0.148000 0.000000
0.000000 0.146000 0.000000
0.000000 0.144000 0.000000
0.000000 0.142000 0.000000
0.000000 0.140000 0.000000
0.000000 0.138000 0.000000
0.000000 0.136000 0.000000
0.000000 0.134000 0.000000
0.000000 0.132000 0.000000
0.000000 0.130000 0.000000
0.000000 0.128000 0.000000
0.000000 0.126000 0.000000
0.000000 0.124000 0.000000
0.000000 0.122000 0.000000
0.000000 0.120000 0.000000
0.000000 0.118000 0.000000
0.000000 0.116000 0.000000
0.000000 0.114000 0.000000
0.000000 0.112000 0.000000
0.000000 0.110000 0.000000
0.000000 0.108000 0.000000
0.000000 0.106000 0.000000
0.000000 0.104000 0.000000
0.000000 0.102000 0.000000
0.000000 0.100000 0.000000
0.000000 0.098000 0.000000
0.000000 0.096000 0.000000
0.000000 0.094000 0.000000
0.000000 0.092000 0.000000
0.000000 0.090000 0.000000
0.000000 0.088000 0.000000
0.000000 0.086000 0.000000
0.000000 0.084000 0.000000
0.000000 0.082000 0.000000
0.000000 0.080000 0.000000
0.000000 0.078000 0.000000
0.000000 0.076000 0.000000
0.000000 0.074000 0.000000
0.000000 0.072000 0.000000
0.000000 0.070000 0.000000
0.000000 0.068000 0.000000
0.000000 0.066000 0.000000
0.000000 0.064000 0.000000
0.000000 0.062000 0.000000
0.000000 0.060000 0.000000
0.000000 0.058000 0.000000
0.000000 0.056000 0.000000
0.000000 0.054000 0.000000
0.000000 0.052000 0.000000
0.000000 0.050000 0.000000
0.000000 0.048000 0.000000
0.000000 0.046000 0.000000
0.000000 0.044000 0.000000
0.000000 0.042000 0.000000
0.000000 0.040000 0.000000
0.000000 0.038000 0.000000
0.000000 0.036000 0.000000
0.000000 0.034000 0.000000
0.000000 0.032000 0.000000
0.000000 0.030000 0.000000
0.000000 0.028000 0.000000
0.000000 0.026000 0.000000
0.000000 0.024000 0.000000
0.000000 0.022000 0.000000
0.000000 0.020000 0.000000
0.000000 0.018000 0.000000
0.000000 0.016000 0.000000
0.000000 0.014000 0.000000
0.000000 0.012000 0.000000
0.000000 0.010000 0.000000
0.000000 0.008000 0.000000
0.000000 0.006000 0.000000
0.000000 0.004000 0.000000
0.000000 0.002000 0.000000
0.035411 0.076518 0.000000
0.035821 0.076786 0.000000
0.036232 0.077054 0.000000
0.036643 0.077321 0.000000
0.037054 0.077589 0.000000
0.037464 0.077857 0.000000
0.037875 0.078125 0.000000
0.038286 0.078393 0.000000
0.038696 0.078661 0.000000
0.039107 0.078929 0.000000
0.039518 0.079196 0.000000
0.039929 0.079464 0.000000
0.040339 0.079732 0.000000
0.040750 0.080000 0.000000
0.041161 0.080268 0.000000
0.041571 0.080536 0.000000
0.041982 0.080804 0.000000
0.042393 0.081071 0.000000
0.042804 0.081339 0.000000
0.043214 0.081607 0.000000
0.043625 0.081875 0.000000
0.044036 0.082143 0.000000
0.044446 0.082411 0.000000
0.044857 0.082679 0.000000
0.045268 0.082946 0.000000
0.045679 0.083214 0.000000
0.046089 0.083482 0.000000
0.040000 0.002000 0.000000
0.040001 0.158005 0.000000
0.002000 0.116000 0.000000
0.078000 0.048000 0.000000
0.002000 0.106000 0.000000
0.078000 0.058000 0.000000
0.001986 0.042173 0.000000
0.078015 0.117826 0.000000
0.001985 0.094174 0.000000
0.001985 0.084174 0.000000
0.001914 0.056074 0.000000
0.002000 0.072000 0.000000
0.078015 0.065826 0.000000
0.078016 0.075826 0.000000
0.078000 0.088000 0.000000
0.078000 0.104000 0.000000
0.078003 0.029997 0.000000
0.001998 0.130002 0.000000
0.002000 0.032000 0.000000
0.078013 0.128003 0.000000
0.056000 0.158000 0.000000
0.026000 0.002000 0.000000
0.060000 0.002000 0.000000
0.020000 0.158000 0.000000
0.002000 0.020000 0.000000
0.078000 0.142000 0.000000
0.002000 0.146000 0.000000
0.078000 0.020000 0.000000
0.016000 0.002000 0.000000
0.068000 0.002000 0.000000
0.066000 0.158000 0.000000
0.002000 0.014000 0.000000
0.008000 0.158000 0.000000
0.010000 0.002000 0.000000
0.078000 0.148000 0.000000
0.078000 0.008000 0.000000
0.078005 0.037995 0.000000
0.051991 0.001990 0.000000
0.028000 0.158000 0.000000
0.002000 0.008000 0.000000
0.078000 0.094000 0.000000
0.078000 0.110000 0.000000
0.001983 0.066159 0.000000
0.002000 0.050000 0.000000
0.046000 0.158000 0.000000
0.078000 0.134000 0.000000
0.002000 0.140000 0.000000
0.006000 0.002000 0.000000
0.002000 0.154000 0.000000
0.074000 0.002000 0.000000
0.078000 0.152000 0.000000
0.074000 0.158000 0.000000
0.078000 0.080000 0.000000
0.078000 0.070000 0.000000
0.078000 0.122000 0.000000
0.002000 0.090000 0.000000
0.002000 0.080000 0.000000
0.002000 0.038000 0.000000
0.002000 0.102000 0.000000
0.002000 0.112000 0.000000
0.036000 0.002000 0.000000
0.078000 0.042000 0.000000
0.032000 0.002000 0.000000
0.047987 0.001989 0.000000
0.032008 0.158010 0.000000
0.002000 0.028000 0.000000
0.002000 0.126000 0.000000
0.060000 0.158000 0.000000
0.022000 0.002000 0.000000
0.002000 0.136000 0.000000
0.078000 0.024000 0.000000
0.012000 0.158000 0.000000
0.078000 0.158000 0.000000
0.001947 0.003947 0.000000
0.002000 0.158000 0.000000
0.078000 0.012000 0.000000
0.078000 0.096000 0.000000
0.078000 0.098000 0.000000
0.078000 0.082000 0.000000
0.078111 0.099889 0.000000
0.078035 0.083965 0.000000
0.078000 0.090000 0.000000
0.078000 0.106000 0.000000
0.078000 0.072000 0.000000
0.078000 0.112000 0.000000
0.078043 0.061976 0.000000
0.078000 0.114000 0.000000
0.002000 0.064000 0.000000
0.002000 0.062000 0.000000
0.002000 0.088000 0.000000
0.002000 0.078000 0.000000
0.002000 0.060000 0.000000
0.001966 0.076034 0.000000
0.002000 0.070000 0.000000
0.002000 0.054000 0.000000
0.001957 0.098024 0.000000
0.002000 0.048000 0.000000
0.002000 0.046000 0.000000
[...]
POINT_DATA 5510
SCALARS UX float 1
LOOKUP_TABLE default
-0.006907
0.025418
0.000001
-0.031688
-0.005153
-0.000599
-0.006097
-0.005286
-0.004476
-0.003664
-0.002853
-0.002041
-0.001230
-0.000419
0.000391
0.001202
0.002011
0.002820
0.003628
0.004435
0.005242
0.006047
0.006852
0.007657
0.008461
0.009264
0.010067
0.010870
0.011673
0.012476
0.013279
0.014082
0.014886
0.015690
0.016495
0.017300
0.018107
0.018915
0.019723
0.020533
0.021344
0.022157
0.022971
0.023786
0.024601
0.025117
0.024817
0.024520
0.024222
0.023928
0.023633
0.023340
0.023048
0.022758
0.022468
0.022179
0.021892
0.021606
0.021323
0.021042
0.020762
0.020484
0.020207
0.019932
0.019658
0.019385
0.019112
0.018840
0.018567
0.018295
0.018021
0.017744
0.017466
0.017184
0.016900
0.016613
0.016323
0.016031
0.015735
0.015436
0.015136
0.014830
0.014521
0.014209
0.013892
0.013572
0.013245
0.012908
0.012562
0.012210
0.011839
0.011457
0.011068
0.010666
0.010254
0.009845
0.009441
0.009040
0.008658
0.008287
0.007932
0.007581
0.007250
0.006925
0.006606
0.006295
0.005986
0.005683
0.005382
0.005083
0.004786
0.004490
0.004194
0.003899
0.003605
0.003311
0.003017
0.002725
0.002433
0.002143
0.001855
0.001564
0.001245
0.000797
-0.000006
-0.000850
-0.001692
-0.002526
-0.003351
-0.004171
-0.004990
-0.005807
-0.006622
-0.007436
-0.008248
-0.009060
-0.009870
-0.010679
-0.011487
-0.012294
-0.013100
-0.013905
-0.014710
-0.015515
-0.016318
-0.017122
-0.017925
-0.018729
-0.019532
-0.020336
-0.021140
-0.021945
-0.022751
-0.023557
-0.024364
-0.025173
-0.025983
-0.026794
-0.027606
-0.028420
-0.029235
-0.030052
-0.030869
-0.031386
-0.031086
-0.030787
-0.030491
-0.030197
-0.029903
-0.029610
-0.029320
-0.029030
-0.028741
-0.028454
-0.028169
-0.027884
-0.027603
-0.027323
-0.027044
-0.026767
-0.026490
-0.026216
-0.025942
-0.025669
-0.025396
-0.025122
-0.024848
-0.024574
-0.024298
-0.024019
-0.023738
-0.023455
-0.023169
-0.022880
-0.022588
-0.022294
-0.021997
-0.021697
-0.021396
-0.021089
-0.020780
-0.020467
-0.020150
-0.019831
-0.019504
-0.019169
-0.018826
-0.018479
-0.018114
-0.017740
-0.017356
-0.016966
-0.016563
-0.016159
-0.015761
-0.015364
-0.014980
-0.014608
-0.014239
-0.013895
-0.013559
-0.013228
-0.012904
-0.012589
-0.012276
-0.011971
-0.011668
-0.011367
-0.011067
-0.010769
-0.010472
-0.010176
-0.009880
-0.009583
-0.009287
-0.008991
-0.008695
-0.008398
-0.008101
-0.007803
-0.007505
-0.007206
-0.004974
-0.004796
-0.004551
-0.004312
-0.004123
-0.003986
-0.003837
-0.003673
-0.003565
-0.003404
-0.003267
-0.003156
-0.003005
-0.002855
-0.002676
-0.002505
-0.002336
-0.002163
-0.002007
-0.001891
-0.001766
-0.001647
-0.001505
-0.001369
-0.001203
-0.001014
-0.000834
0.008967
-0.015217
-0.024571
0.017744
-0.023207
0.016376
-0.012423
0.006121
-0.021528
-0.020020
-0.014955
-0.018025
0.015265
0.013763
0.011761
0.008579
0.020214
-0.026495
-0.010845
0.004564
-0.008760
0.003329
0.017002
-0.023259
-0.009066
0.002495
-0.028788
0.021645
-0.000719
0.020234
-0.004692
-0.008179
-0.028119
-0.003153
0.001615
0.023405
0.019104
0.013783
-0.020039
-0.007290
0.010635
0.007433
-0.016956
-0.013750
-0.012802
0.003672
-0.027917
-0.004775
-0.029968
0.022669
0.001028
-0.001426
0.013101
0.014643
0.005464
-0.020903
-0.019358
-0.011756
-0.022649
-0.024028
0.007359
0.018556
0.005749
0.012175
-0.018430
-0.010248
-0.025937
-0.007136
0.001711
-0.027342
0.021065
-0.026494
0.000060
-0.006709
-0.030566
0.022814
0.010234
0.009821
0.012779
0.009474
0.012467
0.011398
0.008184
0.014341
0.007078
0.015832
0.006738
-0.016528
-0.016125
-0.020600
-0.019036
-0.015716
-0.018725
-0.017667
-0.014510
-0.022099
-0.013393
-0.013049
0.016930
0.018295
0.017473
-0.023756
-0.025114
0.005160
-0.011449
0.010573
-0.016825
-0.014413
0.019657
-0.011995
-0.011188
-0.025662
0.004943
0.015393
-0.021648
-0.009951
0.004268
0.003377
-0.009656
0.003083
-0.027058
-0.010380
0.020780
-0.028497
-0.006322
0.000902
0.018616
-0.024874
0.002202
0.022227
-0.029377
-0.008770
-0.007883
-0.003874
-0.001530
-0.003058
0.000733
-0.029748
-0.005632
-0.006504
0.023999
0.021856
0.024299
-0.023226
0.016939
-0.020129
-0.018602
-0.017238
-0.014926
-0.012925
0.012348
0.010974
0.008668
0.013870
0.006290
-0.014909
-0.024846
0.003743
-0.010946
0.005447
-0.010088
-0.009432
0.002270
0.001412
-0.026518
0.020242
-0.006839
-0.007958
-0.001018
-0.027969
-0.003589
0.007745
0.017517
-0.007367
0.000204
0.022369
0.011724
0.009026
0.009826
-0.017980
-0.015331
-0.016113
-0.012262
0.011081
0.012164
0.009056
0.013481
0.014063
0.007859
0.015000
0.006435
-0.017357
-0.020320
-0.018424
-0.021261
-0.015336
-0.019737
-0.014152
-0.012742
0.015546
-0.021811
0.016116
-0.022386
0.016674
0.005849
-0.022948
-0.012146
0.017221
-0.023501
-0.024340
0.018029
-0.024855
0.018837
-0.025395
0.009765
-0.016016
0.008160
-0.013604
0.011371
-0.017624
0.004871
-0.011158
0.019381
0.006552
0.012978
-0.019232
-0.011692
0.014587
-0.020841
-0.026215
-0.010549
0.003970
0.019933
-0.009136
0.004136
0.002856
-0.009570
0.016196
-0.022452
-0.009362
0.002791
-0.026775
0.020495
-0.027629
-0.007948
0.002520
-0.028207
0.021354
-0.005508
0.000091
-0.024066
0.017808
-0.025683
0.019424
0.001908
-0.008475
-0.027306
0.021935
-0.029082
0.001323
0.022520
-0.007587
-0.002341
-0.029671
-0.002241
0.023108
0.000417
-0.003964
-0.006993
-0.028933
-0.005884
0.021044
-0.000637
-0.029448
-0.030266
0.023701
0.023183
0.023483
-0.021672
0.015400
-0.014198
0.011073
0.007887
-0.008620
-0.018949
0.014297
-0.022156
0.017510
0.021701
-0.025384
0.001093
0.018574
0.007888
-0.027005
-0.028853
0.010275
0.005642
-0.016552
0.014853
0.014197
-0.021118
-0.020458
0.013286
0.012683
-0.019541
-0.018935
0.015950
-0.022226
0.005011
-0.010340
-0.017325
-0.009732
0.019106
0.003156
-0.025395
0.003837
0.002221
-0.000207
0.019125
-0.027385
-0.026805
-0.002640
-0.006776
-0.028263
0.021115
0.020531
-0.001973
-0.000105
0.022292
0.022070
0.010604
0.011331
-0.016873
0.008238
-0.017588
0.006018
-0.014497
-0.013324
0.017252
0.013583
-0.019839
-0.011944
-0.011277
-0.023519
-0.024043
0.006966
0.007365
0.016417
0.016676
-0.022699
-0.022959
-0.015746
0.009458
0.012041
-0.024577
-0.015743
-0.018295
0.006636
0.018023
0.017762
-0.012612
-0.010646
0.004050
0.012680
0.006272
-0.012490
0.009494
-0.013330
0.003452
-0.025124
-0.020550
-0.009283
0.004641
0.019669
0.019954
-0.025949
-0.026233
0.001975
0.015901
-0.008845
-0.008252
-0.010891
0.002565
0.000604
-0.014121
-0.007650
-0.023767
-0.005213
-0.006027
-0.004400
-0.027676
-0.001829
0.020745
-0.007663
-0.007072
-0.004262
0.021556
-0.002780
-0.005073
0.022885
0.000503
-0.000416
-0.029150
-0.006182
-0.028632
-0.010478
0.016979
-0.022044
0.005155
-0.018188
-0.019731
-0.016176
-0.013760
0.013479
0.011965
0.009837
-0.023792
0.003248
-0.009792
0.005950
0.018853
0.001755
-0.025130
0.001921
-0.005735
-0.007438
-0.000505
-0.026564
-0.006260
-0.012553
-0.013802
0.006257
-0.002502
0.010708
-0.016994
-0.011190
0.016513
0.008700
-0.015011
-0.008921
-0.009846
-0.024312
0.004343
-0.002127
0.001387
-0.027150
-0.000314
0.007414
0.009511
0.005882
-0.015807
0.012993
0.014509
-0.019247
-0.020773
0.015118
-0.021386
-0.023777
0.011295
0.008213
-0.014579
0.015681
-0.021956
-0.011657
-0.017546
0.005263
-0.024288
-0.014042
-0.013504
-0.012990
-0.015405
-0.018115
0.012904
-0.019158
0.018299
-0.022437
-0.011849
0.016157
0.013473
0.007065
0.008676
0.011861
0.004675
0.004365
0.018843
-0.010037
0.015927
-0.008461
0.019390
-0.019749
-0.025670
0.001455
0.002644
-0.011395
0.003027
-0.008551
-0.022216
-0.022765
0.015099
-0.021352
0.019139
0.019711
-0.008330
-0.025415
-0.025984
-0.007353
-0.004922
0.002342
0.016705
-0.022962
-0.027094
0.000307
-0.016532
0.020822
-0.006850
0.001682
-0.024575
0.018317
-0.004114
0.019934
0.021407
0.021257
-0.003451
0.000798
-0.028557
0.021996
-0.005371
-0.026194
0.021773
0.022588
-0.006479
-0.000916
-0.001185
-0.028334
-0.027818
0.010281
0.006613
-0.021274
-0.015117
-0.013470
0.008876
-0.012761
-0.024322
0.001840
0.010780
0.018045
-0.008117
-0.018655
0.014002
0.018018
-0.005442
-0.021860
0.000006
0.020590
0.014853
-0.024277
0.020959
-0.025895
0.007521
-0.021127
0.017765
0.000942
-0.013443
0.012162
-0.018517
-0.020559
-0.019926
0.014288
0.013667
0.007592
-0.024858
-0.008170
-0.007740
0.002726
0.020004
0.000870
-0.005965
-0.027519
-0.012811
0.012671
-0.018928
-0.010783
0.005612
-0.016692
0.010299
0.005504
-0.021465
0.015173
0.015754
-0.013960
0.016731
-0.021811
-0.023287
-0.022997
-0.023535
0.011591
-0.017844
0.010880
0.003543
0.004236
-0.017159
0.006742
-0.017030
-0.016186
0.009045
-0.015327
0.013160
-0.019417
0.006990
-0.010156
0.018572
0.017241
-0.012178
0.012382
0.004866
-0.024582
-0.024046
0.009175
-0.008990
-0.022458
-0.008038
0.003537
0.002944
0.005139
-0.019459
-0.009220
-0.009539
0.016165
-0.011530
0.019423
0.014804
-0.010592
0.018030
-0.012191
-0.025698
-0.026274
0.002051
0.001164
-0.007526
-0.022665
0.016408
-0.007146
0.001114
0.019635
-0.006545
-0.001316
-0.004635
-0.006557
-0.020256
0.000573
-0.000017
0.020446
0.021180
0.021476
-0.003749
-0.002937
-0.005668
-0.004560
-0.026857
-0.003307
-0.027445
-0.028036
-0.014616
-0.001707
-0.000614
0.016197
0.014188
-0.018220
-0.016974
-0.011136
-0.013113
0.011969
0.010760
0.007243
-0.018373
0.013713
-0.021567
-0.008699
-0.005153
-0.025459
-0.006337
-0.022555
0.000062
-0.009689
0.004045
0.014983
0.012855
-0.019106
-0.005745
-0.001613
-0.003235
-0.026334
-0.027222
-0.015110
0.008435
0.006672
0.009970
0.009139
-0.016274
-0.015431
-0.014720
0.015767
0.005886
-0.011840
0.017779
0.001244
0.011280
0.002429
0.018610
0.000814
-0.005153
-0.000830
-0.002223
-0.013540
-0.023007
-0.023518
-0.024052
0.007940
0.007167
-0.022290
0.005173
0.004441
-0.014306
0.013941
-0.020206
-0.020978
-0.020473
-0.020825
0.014552
0.015535
0.004555
0.003894
0.012200
-0.018446
-0.013074
-0.011980
-0.011095
-0.009365
-0.015957
0.002134
0.002762
-0.008726
-0.017848
-0.021467
-0.010489
0.017505
0.013195
-0.007867
0.011582
0.001544
0.009961
-0.007235
0.015163
0.018329
0.005642
-0.021973
-0.024885
-0.024603
-0.008425
0.020296
-0.021055
0.015605
-0.007820
0.000650
-0.000804
0.019189
-0.007058
-0.006249
-0.010298
0.018294
-0.019166
-0.023469
0.018825
-0.025749
0.017212
-0.006927
0.000279
0.020148
0.020366
0.020885
-0.003829
-0.025086
-0.001423
0.020662
-0.004046
-0.004857
-0.026706
-0.027740
0.008381
-0.017497
-0.013095
0.012338
-0.018591
-0.008910
-0.020315
0.014225
-0.014752
-0.017639
0.008126
0.011342
-0.012471
0.001350
-0.007319
-0.023255
-0.018083
0.016971
0.000143
0.000517
0.016111
-0.024648
-0.014889
-0.006430
-0.023979
0.007325
0.003806
-0.019601
-0.020196
0.013335
0.013905
0.014351
-0.010800
-0.008378
0.003104
0.008880
0.016705
0.010485
-0.023796
0.017522
-0.020771
-0.001100
-0.000533
0.017720
0.019337
-0.026925
-0.013446
-0.017918
0.011645
0.004188
0.009549
0.010371
-0.015781
-0.010050
-0.016582
-0.019229
0.012968
0.004869
0.015953
0.014651
0.006273
-0.012761
0.004908
-0.011442
-0.012735
-0.014409
-0.009062
0.012492
0.002466
-0.018745
-0.020536
-0.020666
0.008031
0.017235
-0.023787
0.017503
0.012911
0.006456
-0.010790
0.000744
0.016450
0.010975
0.011301
-0.007919
-0.021703
-0.023247
-0.019961
0.003232
0.000359
0.019482
0.020072
-0.006763
0.001618
-0.007018
-0.025172
-0.017573
-0.016755
0.006435
-0.006042
0.015391
-0.005957
-0.000237
0.018898
-0.009498
-0.026040
-0.004349
-0.006631
-0.002424
-0.024788
-0.026409
-0.003531
0.014509
-0.026629
-0.022367
0.019554
0.019851
-0.005450
-0.001935
-0.001127
-0.004342
-0.003025
0.004844
-0.014328
-0.022756
-0.017193
-0.017905
-0.012094
-0.013711
0.011489
0.008171
-0.019900
0.013630
0.006805
0.010301
0.015407
-0.019729
0.012964
-0.010742
-0.014068
-0.011989
0.008515
-0.006528
0.004548
0.012626
-0.021826
-0.006470
0.018383
-0.021270
-0.005527
-0.019235
-0.018465
0.012208
-0.000744
0.019260
-0.023684
-0.025228
-0.016826
0.010665
0.004019
0.014994
0.010089
0.009305
0.008689
0.013478
0.013996
-0.008232
-0.014110
-0.016341
-0.022235
-0.009173
-0.024359
0.002935
0.001320
-0.004864
-0.002721
-0.002739
0.006937
-0.017368
0.011129
-0.015545
-0.012709
0.007748
0.005928
0.005124
-0.009355
-0.009898
-0.019823
0.004404
-0.020065
-0.012026
-0.012466
0.003420
-0.008583
-0.014038
-0.012441
0.011775
-0.011584
0.001674
-0.018050
0.003497
-0.013253
0.002347
-0.016499
-0.015671
-0.022730
0.016441
0.006826
-0.010009
0.001050
0.012099
-0.006730
0.015655
-0.020733
0.009667
-0.023518
0.014402
-0.024077
0.017241
-0.019679
-0.018873
-0.021221
-0.007662
-0.007565
0.000448
0.016962
0.015308
-0.017797
0.011552
-0.005231
-0.003828
-0.022989
-0.000293
-0.001046
-0.001640
-0.023169
-0.024937
-0.001909
0.018526
0.019776
-0.000148
-0.010014
0.017806
-0.003545
0.016915
0.018748
-0.026113
-0.004934
-0.006126
0.019042
-0.004638
-0.025597
0.005349
-0.025815
0.013417
0.016700
-0.017295
-0.011498
0.007558
0.006243
-0.018980
0.012713
0.003875
0.009794
-0.015044
-0.008500
0.014615
-0.018277
0.012010
-0.016713
0.007887
0.010534
0.006113
-0.013742
0.000899
-0.021962
-0.010556
-0.017008
0.005053
0.015906
-0.022995
0.012332
0.001022
-0.000348
-0.005635
-0.023842
0.011421
-0.017674
-0.004720
-0.001558
0.016720
-0.001396
0.015814
0.018452
0.016183
-0.018596
-0.022876
0.018967
-0.003019
-0.004124
-0.025008
0.006825
-0.014396
0.012311
-0.018573
0.008924
-0.009210
0.009133
-0.015826
-0.021480
-0.019142
0.013731
0.015176
-0.019594
-0.011695
0.005545
-0.019468
-0.011209
0.010330
0.013236
0.002003
0.003090
0.002648
0.010165
-0.011442
-0.022489
-0.014598
0.009292
-0.013361
-0.013688
0.015907
0.000257
-0.015430
-0.016541
-0.021989
-0.009677
0.011005
-0.019852
0.007453
0.011817
0.010723
-0.016956
0.013506
-0.017165
-0.006895
-0.007619
-0.022457
0.005516
-0.000441
-0.023276
-0.008071
0.016175
-0.020962
0.003744
0.018093
0.014625
0.002121
-0.022069
0.018675
-0.007270
0.018227
0.000218
-0.005828
-0.024129
-0.005665
-0.002447
-0.024491
-0.000944
0.016620
-0.006231
-0.001341
0.010843
-0.010372
-0.020475
-0.003257
-0.004062
-0.025302
-0.025521
0.014211
0.006140
-0.008158
0.007726
0.011147
-0.017395
-0.011875
0.004306
-0.012182
0.009727
-0.012923
-0.012346
0.012476
-0.018741
0.008768
-0.009513
0.003266
-0.015257
0.004431
-0.015866
-0.007740
-0.018987
-0.017041
-0.015691
0.010789
-0.013773
-0.011322
0.007178
-0.013547
-0.006083
-0.010183
0.015109
-0.022208
0.000723
-0.006975
0.002659
-0.023040
-0.020974
-0.022586
0.008211
-0.012788
0.015524
-0.010832
-0.018526
0.011851
-0.018118
0.014267
-0.010036
0.015139
0.009970
0.003442
-0.004574
-0.005026
0.001822
-0.011315
0.017288
-0.003316
-0.002957
-0.024712
-0.024200
-0.009294
0.015641
-0.015194
0.002297
-0.019172
0.003703
0.014403
0.011590
-0.017856
-0.018699
0.012585
0.012832
-0.007286
0.004815
0.009520
-0.011127
-0.016176
0.013344
0.001228
-0.021485
-0.021119
-0.020729
-0.016458
0.009198
0.014865
-0.014386
0.000579
0.010219
-0.005942
0.011534
0.005781
-0.001243
0.010930
-0.017164
-0.013395
0.009930
-0.022209
-0.020013
0.013659
-0.005329
-0.017794
-0.012054
-0.000041
0.012263
0.004248
0.017003
-0.020478
0.018161
-0.001852
-0.008871
0.015009
-0.022727
-0.006177
-0.002210
-0.024419
-0.004424
0.016442
-0.002150
-0.000648
0.017942
-0.023553
-0.005748
0.006642
0.005843
-0.000590
0.005191
0.017579
-0.019387
0.017422
0.013121
0.007073
-0.021713
0.004488
-0.012963
-0.016224
0.009205
0.008595
-0.007775
0.006474
0.001910
-0.014696
0.008137
-0.008761
0.003838
0.009371
-0.021794
-0.010199
-0.018825
0.013564
-0.018083
0.011621
-0.016091
-0.013144
0.008904
0.009912
0.005152
-0.013354
0.000474
-0.020771
0.008694
0.005544
-0.005307
0.012036
-0.017523
0.015923
-0.000830
-0.006683
-0.004846
-0.001740
-0.017892
-0.019991
-0.010663
0.004154
0.006155
-0.006922
0.014160
0.014851
-0.012778
-0.021191
0.003320
0.003610
0.001522
0.008518
-0.004227
-0.000885
0.016488
0.003940
0.014718
-0.022756
-0.002509
0.017138
0.007498
-0.008546
0.010832
-0.017092
-0.012898
0.013073
-0.010433
-0.006454
0.001619
0.010117
0.010535
-0.016351
-0.016779
-0.015833
-0.011160
-0.021298
-0.015820
-0.011949
-0.000203
0.009391
0.011218
-0.017489
-0.019139
-0.021688
-0.002048
-0.002659
0.004562
-0.011649
0.010714
-0.021941
0.006829
-0.012322
0.003019
0.013916
-0.022483
0.002622
-0.020234
-0.015939
-0.018479
0.017870
-0.023907
-0.011256
-0.021772
-0.003763
0.016322
-0.007770
0.013866
-0.009373
0.017360
-0.023386
-0.000081
-0.020177
0.015378
0.017650
-0.003614
-0.005376
-0.001131
-0.005452
-0.023326
-0.018306
-0.007412
-0.009659
0.009714
0.007430
0.015389
-0.015162
0.005892
-0.014037
-0.014779
0.002457
0.008356
0.001702
-0.008044
0.003003
-0.021083
-0.015309
-0.018565
0.012627
-0.007931
-0.015325
-0.010734
0.006901
0.005527
0.009365
0.003844
0.014062
-0.013432
-0.017235
-0.020915
-0.021693
-0.001603
0.001228
-0.010092
-0.002538
0.014428
0.012378
-0.012172
-0.021476
-0.005084
-0.015091
-0.011363
-0.010749
0.000872
0.008052
-0.022243
-0.007476
-0.003460
-0.023105
-0.002809
0.017069
-0.000375
0.014601
-0.014870
-0.007016
-0.009296
-0.012733
0.013507
0.012005
0.001141
0.009374
-0.005649
0.009137
-0.020388
-0.015591
0.004867
-0.018180
-0.017900
0.013906
-0.018298
0.000147
0.006519
0.010331
-0.016566
-0.005156
-0.011464
-0.020965
0.008612
0.003837
0.007795
0.010429
0.006561
0.005454
0.009629
-0.019305
-0.012829
-0.016713
-0.000512
-0.004535
0.016042
0.016207
0.004740
-0.016429
-0.021434
-0.017590
0.011365
0.010179
0.003126
0.016777
-0.001696
-0.008567
-0.003918
-0.015572
-0.023617
-0.002355
0.012923
0.002315
-0.001433
0.003750
-0.019751
-0.005883
0.016560
0.014314
0.014364
-0.019890
-0.019093
0.006342
-0.004976
-0.008858
-0.008553
0.016848
0.015647
0.012824
-0.021163
0.011251
-0.007084
-0.014224
-0.014111
0.007922
-0.009875
0.003196
-0.020345
-0.020576
0.001969
0.001790
0.002512
0.012051
-0.014598
0.011014
-0.017277
0.001419
-0.017224
0.010980
-0.012569
-0.014829
0.008319
0.006304
-0.013209
0.006049
0.013273
-0.004893
0.009359
0.011742
-0.020155
0.015131
-0.007181
0.013059
-0.017271
-0.020017
-0.019267
-0.004036
0.002888
0.005840
-0.005594
0.007878
0.004782
0.004107
-0.002217
0.012829
-0.016453
-0.002008
0.015764
0.015697
0.016276
0.004437
-0.003159
-0.022818
-0.018811
0.001004
-0.000272
0.002403
0.010451
-0.016716
-0.012543
0.008833
0.009116
-0.010642
-0.015326
0.012173
0.013361
0.013812
-0.009739
0.006204
-0.006159
0.007218
0.000263
0.008418
-0.017480
0.005223
-0.000623
-0.001287
-0.001905
-0.011121
0.012612
-0.020447
0.009565
0.009953
-0.016195
-0.020679
-0.015796
-0.016858
0.010595
-0.015644
-0.018459
-0.004275
-0.011660
-0.001180
-0.022270
-0.003418
-0.021423
-0.019522
-0.002839
-0.022524
-0.003108
0.013619
0.003629
0.002021
-0.010514
0.003515
-0.009071
-0.008264
-0.018019
0.015232
-0.019664
-0.006687
0.000423
0.007128
-0.021962
-0.004682
0.014582
-0.004545
0.010167
-0.020679
0.013110
-0.017880
-0.007321
-0.014745
-0.013846
-0.010423
-0.015051
-0.014078
-0.013711
0.002302
-0.007990
-0.008607
0.011433
0.010440
-0.016699
-0.012038
0.010784
-0.016803
-0.016116
-0.010418
0.008408
0.004647
-0.000535
-0.012788
-0.004139
0.008250
0.004123
0.001725
-0.016963
-0.002049
-0.014547
0.003226
-0.020907
-0.006297
0.011693
0.012175
-0.011772
-0.010074
0.006582
-0.017259
0.005325
0.008864
-0.013423
-0.003012
-0.003637
-0.020389
-0.021454
-0.000677
-0.002614
0.015481
0.013350
0.013032
0.012415
-0.022027
-0.007259
0.006832
-0.012862
-0.014531
-0.015858
0.001928
0.009612
0.009848
-0.009858
-0.009000
-0.012252
0.008587
-0.014784
0.012639
0.004423
-0.010850
-0.017432
-0.005344
0.008050
-0.011428
0.003214
-0.004807
0.009772
-0.016004
-0.001020
-0.015050
-0.004379
-0.019873
-0.014232
0.011935
-0.019680
-0.015407
-0.014602
0.011327
-0.000954
-0.018614
-0.019035
0.007395
-0.020385
-0.003744
-0.020227
0.015988
0.005998
0.012533
0.014858
0.005239
-0.017008
0.013579
-0.006356
-0.008760
-0.009588
0.010733
-0.017742
0.002824
-0.006385
-0.017647
0.000928
0.007606
-0.001499
0.012702
-0.019597
0.013530
-0.007974
-0.004211
-0.003957
-0.002366
-0.002309
0.014969
0.010955
0.000472
0.015410
-0.019920
-0.009918
0.009091
0.001103
-0.011143
0.002549
-0.019479
-0.008257
0.001712
-0.012621
0.001352
-0.012317
-0.010968
0.005777
-0.001263
-0.018937
0.008052
0.012253
-0.016685
0.011454
-0.009256
-0.002800
-0.018553
-0.016913
0.001423
-0.006884
0.014336
-0.008292
-0.004631
0.011042
0.007777
0.006790
-0.010108