# vtk DataFile Version 2.0
Test
ASCII
DATASET POLYDATA
POINTS 5510 float
0.000000 0.000000 0.000000
0.080000 0.000000 0.000000
0.080000 0.160000 0.000000
0.000000 0.160000 0.000000
0.035000 0.076250 0.000000
0.046500 0.083750 0.000000
0.002000 0.000000 0.000000
0.004000 0.000000 0.000000
0.006000 0.000000 0.000000
0.008000 0.000000 0.000000
0.010000 0.000000 0.000000
0.012000 0.000000 0.000000
0.014000 0.000000 0.000000
0.016000 0.000000 0.000000
0.018000 0.000000 0.000000
0.020000 0.000000 0.000000
0.022000 0.000000 0.000000
0.024000 0.000000 0.000000
0.026000 0.000000 0.000000
0.028000 0.000000 0.000000
0.030000 0.000000 0.000000
0.032000 0.000000 0.000000
0.034000 0.000000 0.000000
0.036000 0.000000 0.000000
0.038000 0.000000 0.000000
0.040000 0.000000 0.000000
0.042000 0.000000 0.000000
0.044000 0.000000 0.000000
0.046000 0.000000 0.000000
0.048000 0.000000 0.000000
0.050000 0.000000 0.000000
0.052000 0.000000 0.000000
0.054000 0.000000 0.000000
0.056000 0.000000 0.000000
0.058000 0.000000 0.000000
0.060000 0.000000 0.000000
0.062000 0.000000 0.000000
0.064000 0.000000 0.000000
0.066000 0.000000 0.000000
0.068000 0.000000 0.000000
0.070000 0.000000 0.000000
0.072000 0.000000 0.000000
0.074000 0.000000 0.000000
0.076000 0.000000 0.000000
0.078000 0.000000 0.000000
0.080000 0.002000 0.000000
0.080000 0.004000 0.000000
0.080000 0.006000 0.000000
0.080000 0.008000 0.000000
0.080000 0.010000 0.000000
0.080000 0.012000 0.000000
0.080000 0.014000 0.000000
0.080000 0.016000 0.000000
0.080000 0.018000 0.000000
0.080000 0.020000 0.000000
0.080000 0.022000 0.000000
0.080000 0.024000 0.000000
0.080000 0.026000 0.000000
0.080000 0.028000 0.000000
0.080000 0.030000 0.000000
0.080000 0.032000 0.000000
0.080000 0.034000 0.000000
0.080000 0.036000 0.000000
0.080000 0.038000 0.000000
0.080000 0.040000 0.000000
0.080000 0.042000 0.000000
0.080000 0.044000 0.000000
0.080000 0.046000 0.000000
0.080000 0.048000 0.000000
0.080000 0.050000 0.000000
0.080000 0.052000 0.000000
0.080000 0.054000 0.000000
0.080000 0.056000 0.000000
0.080000 0.058000 0.000000
0.080000 0.060000 0.000000
0.080000 0.062000 0.000000
0.080000 0.064000 0.000000
0.080000 0.066000 0.000000
0.080000 0.068000 0.000000
0.080000 0.070000 0.000000
0.080000 0.072000 0.000000
0.080000 0.074000 0.000000
0.080000 0.076000 0.000000
0.080000 0.078000 0.000000
0.080000 0.080000 0.000000
0.080000 0.082000 0.000000
0.080000 0.084000 0.000000
0.080000 0.086000 0.000000
0.080000 0.088000 0.000000
0.080000 0.090000 0.000000
0.080000 0.092000 0.000000
0.080000 0.094000 0.000000
0.080000 0.096000 0.000000
0.080000 0.098000 0.000000
0.080000 0.100000 0.000000
0.080000 0.102000 0.000000
0.080000 0.104000 0.000000
0.080000 0.106000 0.000000
0.080000 0.108000 0.000000
0.080000 0.110000 0.000000
0.080000 0.112000 0.000000
0.080000 0.114000 0.000000
0.080000 0.116000 0.000000
0.080000 0.118000 0.000000
0.080000 0.120000 0.000000
0.080000 0.122000 0.000000
0.080000 0.124000 0.000000
0.080000 0.126000 0.000000
0.080000 0.128000 0.000000
0.080000 0.130000 0.000000
0.080000 0.132000 0.000000
0.080000 0.134000 0.000000
0.080000 0.136000 0.000000
0.080000 0.138000 0.000000
0.080000 0.140000 0.000000
0.080000 0.142000 0.000000
0.080000 0.144000 0.000000
0.080000 0.146000 0.000000
0.080000 0.148000 0.000000
0.080000 0.150000 0.000000
0.080000 0.152000 0.000000
0.080000 0.154000 0.000000
0.080000 0.156000 0.000000
0.080000 0.158000 0.000000
0.078000 0.160000 0.000000
0.076000 0.160000 0.000000
0.074000 0.160000 0.000000
0.072000 0.160000 0.000000
0.070000 0.160000 0.000000
0.068000 0.160000 0.000000
0.066000 0.160000 0.000000
0.064000 0.160000 0.000000
0.062000 0.160000 0.000000
0.060000 0.160000 0.000000
0.058000 0.160000 0.000000
0.056000 0.160000 0.000000
0.054000 0.160000 0.000000
0.052000 0.160000 0.000000
0.050000 0.160000 0.000000
0.048000 0.160000 0.000000
0.046000 0.160000 0.000000
0.044000 0.160000 0.000000
0.042000 0.160000 0.000000
0.040000 0.160000 0.000000
0.038000 0.160000 0.000000
0.036000 0.160000 0.000000
0.034000 0.160000 0.000000
0.032000 0.160000 0.000000
0.030000 0.160000 0.000000
0.028000 0.160000 0.000000
0.026000 0.160000 0.000000
0.024000 0.160000 0.000000
0.022000 0.160000 0.000000
0.020000 0.160000 0.000000
0.018000 0.160000 0.000000
0.016000 0.160000 0.000000
0.014000 0.160000 0.000000
0.012000 0.160000 0.000000
0.010000 0.160000 0.000000
0.008000 0.160000 0.000000
0.006000 0.160000 0.000000
0.004000 0.160000 0.000000
0.002000 0.160000 0.000000
0.000000 0.158000 0.000000
0.000000 0.156000 0.000000
0.000000 0.154000 0.000000
0.000000 0.152000 0.000000
0.000000 0.150000 0.000000
0.000000 0.148000 0.000000
0.000000 0.146000 0.000000
0.000000 0.144000 0.000000
0.000000 0.142000 0.000000
0.000000 0.140000 0.000000
0.000000 0.138000 0.000000
0.000000 0.136000 0.000000
0.000000 0.134000 0.000000
0.000000 0.132000 0.000000
0.000000 0.130000 0.000000
0.000000 0.128000 0.000000
0.000000 0.126000 0.000000
0.000000 0.124000 0.000000
0.000000 0.122000 0.000000
0.000000 0.120000 0.000000
0.000000 0.118000 0.000000
0.000000 0.116000 0.000000
0.000000 0.114000 0.000000
0.000000 0.112000 0.000000
0.000000 0.110000 0.000000
0.000000 0.108000 0.000000
0.000000 0.106000 0.000000
0.000000 0.104000 0.000000
0.000000 0.102000 0.000000
0.000000 0.100000 0.000000
0.000000 0.098000 0.000000
0.000000 0.096000 0.000000
0.000000 0.094000 0.000000
0.000000 0.092000 0.000000
0.000000 0.090000 0.000000
0.000000 0.088000 0.000000
0.000000 0.086000 0.000000
0.000000 0.084000 0.000000
0.000000 0.082000 0.000000
0.000000 0.080000 0.000000
0.000000 0.078000 0.000000
0.000000 0.076000 0.000000
0.000000 0.074000 0.000000
0.000000 0.072000 0.000000
0.000000 0.070000 0.000000
0.000000 0.068000 0.000000
0.000000 0.066000 0.000000
0.000000 0.064000 0.000000
0.000000 0.062000 0.000000
0.000000 0.060000 0.000000
0.000000 0.058000 0.000000
0.000000 0.056000 0.000000
0.000000 0.054000 0.000000
0.000000 0.052000 0.000000
0.000000 0.050000 0.000000
0.000000 0.048000 0.000000
0.000000 0.046000 0.000000
0.000000 0.044000 0.000000
0.000000 0.042000 0.000000
0.000000 0.040000 0.000000
0.000000 0.038000 0.000000
0.000000 0.036000 0.000000
0.000000 0.034000 0.000000
0.000000 0.032000 0.000000
0.000000 0.030000 0.000000
0.000000 0.028000 0.000000
0.000000 0.026000 0.000000
0.000000 0.024000 0.000000
0.000000 0.022000 0.000000
0.000000 0.020000 0.000000
0.000000 0.018000 0.000000
0.000000 0.016000 0.000000
0.000000 0.014000 0.000000
0.000000 0.012000 0.000000
0.000000 0.010000 0.000000
0.000000 0.008000 0.000000
0.000000 0.006000 0.000000
0.000000 0.004000 0.000000
0.000000 0.002000 0.000000
0.035411 0.076518 0.000000
0.035821 0.076786 0.000000
0.036232 0.077054 0.000000
0.036643 0.077321 0.000000
0.037054 0.077589 0.000000
0.037464 0.077857 0.000000
0.037875 0.078125 0.000000
0.038286 0.078393 0.000000
0.038696 0.078661 0.000000
0.039107 0.078929 0.000000
0.039518 0.079196 0.000000
0.039929 0.079464 0.000000
0.040339 0.079732 0.000000
0.040750 0.080000 0.000000
0.041161 0.080268 0.000000
0.041571 0.080536 0.000000
0.041982 0.080804 0.000000
0.042393 0.081071 0.000000
0.042804 0.081339 0.000000
0.043214 0.081607 0.000000
0.043625 0.081875 0.000000
0.044036 0.082143 0.000000
0.044446 0.082411 0.000000
0.044857 0.082679 0.000000
0.045268 0.082946 0.000000
0.045679 0.083214 0.000000
0.046089 0.083482 0.000000
0.040000 0.002000 0.000000
0.040001 0.158005 0.000000
0.002000 0.116000 0.000000
0.078000 0.048000 0.000000
0.002000 0.106000 0.000000
0.078000 0.058000 0.000000
0.001986 0.042173 0.000000
0.078015 0.117826 0.000000
0.001985 0.094174 0.000000
0.001985 0.084174 0.000000
0.001914 0.056074 0.000000
0.002000 0.072000 0.000000
0.078015 0.065826 0.000000
0.078016 0.075826 0.000000
0.078000 0.088000 0.000000
0.078000 0.104000 0.000000
0.078003 0.029997 0.000000
0.001998 0.130002 0.000000
0.002000 0.032000 0.000000
0.078013 0.128003 0.000000
0.056000 0.158000 0.000000
0.026000 0.002000 0.000000
0.060000 0.002000 0.000000
0.020000 0.158000 0.000000
0.002000 0.020000 0.000000
0.078000 0.142000 0.000000
0.002000 0.146000 0.000000
0.078000 0.020000 0.000000
0.016000 0.002000 0.000000
0.068000 0.002000 0.000000
0.066000 0.158000 0.000000
0.002000 0.014000 0.000000
0.008000 0.158000 0.000000
0.010000 0.002000 0.000000
0.078000 0.148000 0.000000
0.078000 0.008000 0.000000
0.078005 0.037995 0.000000
0.051991 0.001990 0.000000
0.028000 0.158000 0.000000
0.002000 0.008000 0.000000
0.078000 0.094000 0.000000
0.078000 0.110000 0.000000
0.001983 0.066159 0.000000
0.002000 0.050000 0.000000
0.046000 0.158000 0.000000
0.078000 0.134000 0.000000
0.002000 0.140000 0.000000
0.006000 0.002000 0.000000
0.002000 0.154000 0.000000
0.074000 0.002000 0.000000
0.078000 0.152000 0.000000
0.074000 0.158000 0.000000
0.078000 0.080000 0.000000
0.078000 0.070000 0.000000
0.078000 0.122000 0.000000
0.002000 0.090000 0.000000
0.002000 0.080000 0.000000
0.002000 0.038000 0.000000
0.002000 0.102000 0.000000
0.002000 0.112000 0.000000
0.036000 0.002000 0.000000
0.078000 0.042000 0.000000
0.032000 0.002000 0.000000
0.047987 0.001989 0.000000
0.032008 0.158010 0.000000
0.002000 0.028000 0.000000
0.002000 0.126000 0.000000
0.060000 0.158000 0.000000
0.022000 0.002000 0.000000
0.002000 0.136000 0.000000
0.078000 0.024000 0.000000
0.012000 0.158000 0.000000
0.078000 0.158000 0.000000
0.001947 0.003947 0.000000
0.002000 0.158000 0.000000
0.078000 0.012000 0.000000
0.078000 0.096000 0.000000
0.078000 0.098000 0.000000
0.078000 0.082000 0.000000
0.078111 0.099889 0.000000
0.078035 0.083965 0.000000
0.078000 0.090000 0.000000
0.078000 0.106000 0.000000
0.078000 0.072000 0.000000
0.078000 0.112000 0.000000
0.078043 0.061976 0.000000
0.078000 0.114000 0.000000
0.002000 0.064000 0.000000
0.002000 0.062000 0.000000
0.002000 0.088000 0.000000
0.002000 0.078000 0.000000
0.002000 0.060000 0.000000
0.001966 0.076034 0.000000
0.002000 0.070000 0.000000
0.002000 0.054000 0.000000
0.001957 0.098024 0.000000
0.002000 0.048000 0.000000
0.002000 0.046000 0.000000
[...]
POINT_DATA 5510
SCALARS UX float 1
LOOKUP_TABLE default
0.084801
0.207835
0.000006
-0.120841
0.037428
0.050622
0.087893
0.090986
0.094078
0.097170
0.100263
0.103357
0.106452
0.109548
0.112644
0.115740
0.118835
0.121927
0.125016
0.128100
0.131179
0.134250
0.137318
0.140382
0.143439
0.146491
0.149537
0.152576
0.155611
0.158641
0.161669
0.164694
0.167719
0.170744
0.173772
0.176804
0.179845
0.182893
0.185955
0.189025
0.192108
0.195208
0.198333
0.201490
0.204650
0.205690
0.203592
0.201554
0.199512
0.197559
0.195605
0.193723
0.191840
0.189969
0.188103
0.186243
0.184401
0.182556
0.180688
0.178800
0.176887
0.174944
0.172966
0.170951
0.168898
0.166805
0.164723
0.162612
0.160483
0.158361
0.156196
0.154024
0.151851
0.149682
0.147514
0.145347
0.143183
0.141019
0.138853
0.136682
0.134510
0.132326
0.130140
0.127948
0.125744
0.123539
0.121311
0.119067
0.116813
0.114556
0.112216
0.109813
0.107315
0.104068
0.098085
0.091727
0.084224
0.076398
0.069217
0.063180
0.058306
0.053697
0.050734
0.047932
0.045435
0.043151
0.040883
0.038714
0.036548
0.034386
0.032230
0.030077
0.027925
0.025779
0.023639
0.021502
0.019367
0.017244
0.015119
0.012984
0.010855
0.008645
0.006256
0.003407
-0.000052
-0.003018
-0.006191
-0.009371
-0.012491
-0.015615
-0.018762
-0.021898
-0.025019
-0.028136
-0.031241
-0.034340
-0.037433
-0.040522
-0.043610
-0.046689
-0.049765
-0.052838
-0.055906
-0.058972
-0.062034
-0.065092
-0.068146
-0.071197
-0.074247
-0.077295
-0.080344
-0.083393
-0.086444
-0.089500
-0.092564
-0.095640
-0.098727
-0.101826
-0.104933
-0.108059
-0.111213
-0.114408
-0.117608
-0.118668
-0.116565
-0.114448
-0.112458
-0.110479
-0.108520
-0.106617
-0.104726
-0.102835
-0.100953
-0.099080
-0.097208
-0.095337
-0.093432
-0.091505
-0.089550
-0.087556
-0.085578
-0.083565
-0.081548
-0.079514
-0.077473
-0.075414
-0.073342
-0.071278
-0.069177
-0.067067
-0.064948
-0.062825
-0.060694
-0.058554
-0.056408
-0.054257
-0.052096
-0.049927
-0.047756
-0.045574
-0.043389
-0.041198
-0.038998
-0.036799
-0.034581
-0.032360
-0.030137
-0.027930
-0.025656
-0.023332
-0.020857
-0.018077
-0.012927
-0.007061
-0.000745
0.006227
0.013856
0.020925
0.027577
0.031515
0.034952
0.038147
0.040989
0.043511
0.045950
0.048127
0.050299
0.052464
0.054627
0.056788
0.058947
0.061104
0.063262
0.065419
0.067575
0.069731
0.071886
0.074039
0.076192
0.078345
0.080498
0.082650
0.037892
0.038407
0.039118
0.039823
0.040376
0.040776
0.041196
0.041660
0.041975
0.042449
0.042857
0.043189
0.043621
0.044059
0.044563
0.045051
0.045579
0.046057
0.046520
0.046960
0.047369
0.047723
0.048145
0.048546
0.049028
0.049550
0.050016
0.144368
-0.056844
-0.074336
0.157382
-0.064025
0.146608
0.041485
0.044781
-0.051416
-0.040543
0.004725
-0.027078
0.138159
0.127277
0.113716
0.077465
0.175384
-0.088126
0.053420
0.033443
-0.032182
0.122866
0.174705
-0.087381
0.066361
0.018393
-0.103210
0.184706
0.107395
0.186900
-0.016610
0.072826
-0.105887
0.098112
0.011967
0.196252
0.167690
0.162593
-0.075178
0.079286
0.106539
0.058155
-0.020317
0.027151
-0.047624
0.026966
-0.097528
0.091927
-0.111164
0.196162
0.007627
-0.004256
0.122673
0.133611
0.039944
-0.046871
-0.035948
0.046853
-0.059785
-0.070277
0.138250
0.163637
0.132114
0.156529
-0.069075
0.057738
-0.084277
-0.025966
0.116681
-0.093774
0.180962
-0.099674
0.000735
0.083566
-0.115370
0.192302
0.103621
0.098686
0.120460
0.092980
0.118316
0.111395
0.070018
0.131431
0.053530
0.142366
0.050011
-0.017423
-0.013113
-0.044694
-0.033743
-0.007639
-0.031611
-0.024820
0.012825
-0.055601
0.031983
0.035552
0.150947
0.161602
0.155249
-0.068204
-0.078346
0.037755
0.049083
0.150464
-0.062966
-0.053772
0.171601
-0.044545
-0.041461
-0.082306
0.129040
0.168649
-0.081277
0.059895
0.031289
0.024818
0.062051
0.022674
-0.091895
-0.038373
0.179109
-0.101319
-0.022852
0.113586
0.180784
-0.093507
0.016254
0.188479
-0.107146
0.068516
0.074980
-0.013478
0.104300
-0.010388
0.005415
-0.112170
0.088750
0.085543
0.200330
0.193058
0.202446
-0.067207
0.154282
-0.043848
-0.032992
-0.024025
-0.002649
0.032203
0.119703
0.110622
0.086857
0.130575
0.049745
-0.054686
-0.079068
0.030318
0.049977
0.129964
-0.036255
0.060845
0.019583
0.114530
-0.090339
0.177546
-0.023816
0.071613
0.105245
-0.099883
-0.011468
0.070771
0.158565
0.075922
0.004410
0.194022
0.115424
0.093880
0.103079
-0.028745
-0.008686
-0.016828
0.039154
0.109323
0.116280
0.086271
0.125246
0.129369
0.064203
0.136150
0.047309
-0.022825
-0.042629
-0.029594
-0.049407
-0.001669
-0.038511
0.019948
0.038615
0.140219
-0.053467
0.144539
-0.057750
0.148873
0.042694
-0.061998
0.043855
0.153193
-0.066207
-0.072560
0.159544
-0.076403
0.165712
-0.080365
0.147410
-0.059894
0.141305
-0.050693
0.153492
-0.066013
0.035645
0.051202
0.169666
0.135179
0.159560
-0.072122
-0.042388
0.165618
-0.078224
-0.086212
0.055562
0.029133
0.173499
0.063000
0.125954
0.023861
-0.035280
0.171674
-0.084326
0.064200
0.020538
-0.090017
0.177248
-0.095646
-0.029079
0.119775
-0.099421
0.182823
-0.019732
0.110491
-0.090440
0.177739
-0.096584
0.183834
0.014113
0.070672
-0.102777
0.186579
-0.105164
0.009814
0.190374
0.077133
0.101206
-0.109130
-0.007312
0.194236
0.003113
0.095020
0.081439
-0.109016
0.086684
0.189972
-0.001487
-0.110004
-0.113223
0.198260
0.197145
0.199286
-0.055243
0.142015
0.001860
0.151385
0.081972
0.063944
-0.070064
0.163555
-0.082219
0.175642
0.187073
-0.094458
0.010990
0.166398
0.139293
-0.100626
-0.105864
0.105865
0.044008
-0.019436
0.137595
0.132874
-0.050862
-0.046114
0.126283
0.121975
-0.039559
-0.035221
0.146213
-0.059358
0.039214
0.054319
-0.063895
0.058684
0.170068
0.026033
-0.082854
0.123809
0.117622
0.108340
0.181728
-0.096027
-0.092225
0.099056
0.080227
-0.101852
0.183235
0.179423
-0.005471
0.002134
0.191011
0.191913
0.108195
0.112779
-0.021664
0.078518
-0.026131
0.047085
0.004239
0.026649
0.156414
0.128427
-0.041697
0.042318
0.047615
-0.069295
-0.073215
0.057816
0.063748
0.150078
0.152137
-0.063126
-0.065121
-0.057883
0.099169
0.117614
-0.077123
-0.013226
-0.030913
0.053732
0.162493
0.160541
0.035717
0.052135
0.032502
0.157460
0.133126
-0.045439
0.145403
-0.048659
0.028194
-0.080994
-0.076132
-0.033175
0.126885
0.173798
0.175667
-0.086576
-0.088458
0.017432
0.169589
0.065137
0.069462
-0.039323
0.021730
0.111441
-0.051677
-0.026920
-0.088325
-0.017604
-0.020716
-0.014506
-0.097927
0.102151
0.187847
0.073766
0.078074
0.092869
0.190926
-0.008459
0.089776
0.195052
0.006643
-0.000109
-0.107912
0.084532
-0.106853
0.050733
0.157457
-0.060841
0.043166
-0.032281
-0.043275
-0.019100
-0.049316
0.130016
0.119098
0.105309
-0.074034
0.029452
-0.034115
0.130903
0.170397
0.018649
-0.083168
0.115470
-0.018610
0.072563
0.106194
-0.092651
0.081169
0.031748
0.008363
0.054163
-0.006610
0.110690
-0.024164
0.045320
0.153613
0.094984
-0.009320
0.061779
0.055185
-0.077656
0.124744
0.100001
0.013143
-0.096578
0.003465
0.072309
0.102761
0.049568
-0.016486
0.124217
0.135159
-0.037492
-0.048425
0.139816
-0.053067
-0.071293
0.114654
0.088078
-0.003855
0.144202
-0.057391
0.044897
-0.027974
0.041189
-0.075040
0.012827
0.022031
-0.046375
-0.055608
-0.066890
0.125916
-0.039191
0.164473
-0.061134
0.039327
0.148030
0.160448
0.136144
0.142281
0.154362
0.036929
0.034733
0.168261
0.056490
0.149387
-0.030027
0.171953
-0.073097
-0.084717
0.016477
0.025125
-0.040252
0.120708
0.067284
-0.062407
-0.066303
0.166572
-0.079175
0.172282
0.176058
0.066070
-0.085049
-0.088826
-0.024779
-0.015539
0.022927
0.172616
-0.085272
-0.094121
0.109298
-0.060869
0.181323
0.076865
0.015291
-0.091387
0.178678
-0.012528
0.184781
0.185134
0.188816
0.095962
0.008825
-0.103835
0.189026
0.087625
-0.097533
0.189843
0.193005
0.082380
-0.001002
-0.002741
-0.104732
-0.103731
0.148377
0.059114
-0.057849
-0.013803
0.006876
0.100314
-0.044523
-0.079804
0.022031
0.149295
0.167046
0.064844
-0.067958
0.161461
0.176586
-0.016570
-0.080108
0.107139
0.181851
0.140677
-0.089276
0.186732
-0.095418
0.082905
-0.053897
0.163064
0.015541
0.015718
0.120597
-0.034290
-0.049596
-0.044746
0.136319
0.131481
0.137181
-0.081342
-0.027906
0.070376
0.118552
0.177979
0.012197
0.083320
-0.101603
0.027113
0.124134
-0.037430
0.048520
0.050849
-0.022311
0.108242
0.046018
-0.056480
0.143276
0.147773
-0.000739
0.155510
-0.059117
-0.070219
-0.068054
-0.072207
0.116633
-0.030059
0.112185
0.031577
0.036329
-0.025571
0.133925
-0.061791
-0.058576
0.098992
-0.012919
0.127856
-0.041135
0.065217
0.052996
0.168522
0.159363
0.035969
0.155353
0.040933
-0.079489
-0.075836
0.143207
-0.031050
-0.064278
0.068203
0.121659
0.027291
0.127792
-0.071009
0.059635
0.057358
0.151299
0.042343
0.174162
0.164486
-0.037183
0.164881
-0.043306
-0.086928
-0.090734
0.020803
0.014344
0.069133
-0.083161
0.170524
0.074706
0.112383
0.182677
-0.021693
0.103094
-0.013576
0.079012
-0.074034
0.010030
0.005685
0.185741
0.185812
0.187814
0.093813
0.096910
0.085474
0.090718
-0.094611
-0.009561
-0.098595
-0.102652
-0.052587
-0.003823
0.001216
0.154316
0.138477
-0.034684
-0.025972
0.042486
0.006183
0.121402
0.112787
0.134852
-0.065902
0.159393
-0.078015
-0.028939
-0.014609
-0.087403
0.077792
-0.067503
0.009113
0.053794
0.122606
0.144770
0.127623
-0.040881
0.082111
0.100951
0.094758
-0.093355
-0.099500
-0.053497
0.096351
0.065725
0.107715
0.102193
-0.021389
-0.016141
-0.010410
0.150682
0.054534
0.035828
0.165243
0.017714
0.116470
0.116411
0.170828
0.110228
0.086416
0.002538
-0.004824
-0.047496
-0.070861
-0.074384
-0.077989
0.088891
0.076566
-0.065506
0.046769
0.040675
-0.005657
0.133556
-0.046834
-0.055598
-0.051736
-0.051627
0.138369
0.146128
0.038700
0.033985
0.123281
-0.036555
0.014081
-0.041523
-0.038114
0.056034
-0.056726
0.024147
0.028605
0.060515
-0.064897
-0.059559
0.047977
0.161241
0.158423
-0.025751
0.152329
0.019888
0.146185
0.071257
0.146443
0.168942
0.128731
-0.063281
-0.083564
-0.081682
0.062666
0.179902
-0.077062
0.167503
0.066990
0.013413
0.104043
0.174667
-0.022669
-0.019600
-0.035061
0.166676
-0.068912
-0.086211
0.179625
-0.089363
0.173550
0.073488
0.007872
0.183654
0.182645
0.183822
-0.010622
-0.092345
-0.001897
0.184677
0.091662
0.088568
-0.098498
-0.100608
0.140175
-0.029600
0.022122
0.121923
-0.035209
0.056821
-0.053318
0.141874
-0.013139
-0.032610
0.096449
0.119094
-0.042434
0.021165
0.067890
-0.074683
-0.063812
0.161885
0.012495
0.108083
0.168434
-0.084140
-0.051679
0.074345
-0.087165
0.085113
0.035424
-0.045001
-0.049573
0.131717
0.136231
0.140072
-0.035999
-0.026731
0.030885
0.141099
0.157931
0.147196
-0.078347
0.165637
-0.075001
0.101899
0.004750
0.174495
0.180591
-0.097425
0.000719
-0.032658
0.119279
0.038579
0.105275
0.110558
-0.018538
0.051613
-0.023701
-0.042353
0.129067
0.043836
0.152412
0.142252
0.059760
0.020395
0.047131
0.039445
0.012292
-0.010445
0.058159
0.125340
0.026494
-0.038615
-0.055101
-0.053436
0.137861
0.161580
-0.076201
0.163388
0.156370
0.071029
0.045545
0.016815
0.156127
0.114461
0.150280
0.063678
-0.061369
-0.072557
-0.071931
0.119489
0.011282
0.176646
0.180636
-0.020602
0.113305
0.070056
-0.085477
-0.062871
-0.059760
0.131758
0.079942
0.148271
-0.017586
0.006932
0.172747
-0.031993
-0.091344
-0.011661
0.075639
0.097851
-0.090234
-0.096393
0.092608
0.162398
-0.095381
-0.081052
0.179527
0.181584
0.084262
-0.002800
0.000307
0.089512
-0.007691
0.125663
-0.050507
-0.069102
-0.027601
-0.031941
0.032405
-0.003175
0.118026
0.092864
-0.047352
0.134081
0.069676
0.109603
0.151074
-0.051240
0.131825
0.042943
-0.010000
0.018898
0.138723
0.070922
0.123537
0.154310
-0.064691
-0.018599
0.171472
-0.075907
0.080882
-0.045082
-0.038498
0.125207
0.006031
0.177492
-0.085068
-0.088143
-0.027002
0.114064
0.039993
0.147576
0.110104
0.104981
0.100256
0.135843
0.140040
0.061563
-0.048700
-0.023494
-0.067716
-0.029769
-0.082175
0.117351
0.111162
-0.012676
0.095702
-0.005791
0.132698
-0.030747
0.117491
-0.018470
0.006587
0.092718
0.060718
0.050164
0.054218
0.050218
-0.049481
0.043350
-0.051378
0.025673
0.017954
0.033151
0.059019
-0.006863
0.026515
0.122444
-0.039052
0.023398
-0.035848
0.036045
-0.045417
0.027998
-0.057803
-0.054651
-0.071132
0.158275
0.077710
-0.032969
0.019021
0.153301
0.072162
0.152837
-0.056750
0.144080
-0.076479
0.143462
-0.080245
0.163742
-0.069875
-0.066815
-0.060310
0.065628
-0.023637
0.014681
0.159720
0.165412
-0.034020
0.120747
0.083045
0.090456
-0.072885
0.104985
0.003820
-0.000604
-0.084095
-0.086130
0.098808
0.177534
0.178633
0.010369
0.048748
0.167558
-0.008729
0.171464
0.176461
-0.094299
0.085204
0.076544
0.178521
0.087360
-0.093304
0.126611
-0.092211
0.157298
0.160048
-0.060827
0.035225
0.089838
0.066050
-0.042990
0.129718
0.036353
0.107613
-0.015182
0.057446
0.147782
-0.040458
0.127212
-0.028180
0.096649
0.115147
0.072016
-0.046325
0.020432
-0.067965
-0.034134
-0.058752
0.124481
0.156763
-0.075080
0.152214
0.109018
0.011629
0.077380
-0.080947
0.121920
-0.035204
0.083977
0.002894
0.162383
0.099756
0.166342
0.174398
0.156511
-0.064775
-0.082006
0.175472
0.093548
0.088306
-0.089123
0.084117
-0.012333
0.126379
-0.039673
0.102751
0.053010
0.105015
-0.020847
-0.062112
-0.047004
0.137932
0.149259
-0.047666
0.025124
0.055030
-0.049401
0.038877
0.111961
0.133937
0.025709
0.032737
0.030072
0.144990
-0.037574
-0.069474
-0.049584
0.141677
-0.002815
-0.006715
0.154594
0.015951
-0.052756
-0.025100
-0.066003
-0.030732
0.148173
-0.052517
0.092890
0.151248
0.116709
-0.029954
0.139057
-0.029178
0.068486
0.063586
-0.071390
0.059770
0.008235
-0.077008
-0.024618
0.158618
-0.058479
0.120453
0.169497
0.145219
0.114231
-0.078945
0.173464
-0.021594
0.175446
0.105936
0.078704
-0.082958
-0.015622
-0.003708
-0.088127
0.007334
0.169384
0.073055
0.001630
0.115567
0.046074
-0.072896
-0.006757
-0.009729
-0.091210
-0.090180
0.160296
0.129634
0.059693
0.135703
0.120022
-0.033312
0.029908
0.044226
-0.040355
0.107913
0.002076
0.012525
0.127785
-0.041071
0.101424
0.052618
0.034342
-0.016612
0.042594
-0.020431
0.060362
-0.048283
-0.032773
-0.020966
0.119485
-0.009690
0.024310
0.092990
-0.044618
0.071635
-0.031728
0.153490
-0.071920
0.106873
-0.019598
0.032608
-0.077810
-0.073803
-0.079924
0.136572
0.000173
0.164274
0.038976
-0.042367
0.125652
-0.038931
0.144622
0.046183
0.151442
0.111343
0.118298
-0.010696
0.081775
0.112086
0.031160
0.166304
0.091397
-0.004616
-0.087047
-0.086050
0.051663
0.154938
-0.017830
0.029539
-0.046507
0.039588
0.146074
0.123457
-0.036771
-0.046169
0.131078
0.133641
0.065769
0.050299
0.108054
-0.035404
-0.024467
0.137612
0.022630
-0.064675
-0.061905
-0.059074
-0.026396
0.140343
0.149547
-0.047809
0.018220
0.113136
0.075165
0.149189
0.065731
0.005156
0.118355
-0.031598
-0.006738
0.143110
-0.069671
-0.053949
0.140511
0.079585
-0.061729
0.011417
0.013816
0.129114
0.121392
0.164326
-0.057334
0.172362
0.000715
-0.027655
0.163310
-0.073231
-0.016631
0.096642
-0.084990
0.086128
0.160474
-0.001509
0.009478
0.173410
-0.078945
0.073907
0.130575
0.127503
0.102843
0.054748
0.168312
-0.067783
0.172407
0.155194
0.088283
-0.066262
0.046824
-0.043332
-0.055774
0.106087
0.102058
0.062094
0.077993
0.027278
-0.014308
0.098738
0.055464
0.041088
0.103813
-0.064025
0.050262
-0.044457
0.142686
-0.043988
0.126628
-0.025762
-0.006731
0.105600
0.112692
0.061168
-0.042931
0.019765
-0.061754
0.137455
0.125367
0.074613
0.150105
-0.059713
0.159196
0.010778
-0.017624
0.080390
0.004268
-0.039904
-0.056053
-0.032754
0.046776
0.079472
0.066306
0.146703
0.151680
-0.041671
-0.064800
0.037116
0.041178
0.109941
0.102534
0.084829
0.100707
0.163163
0.119214
0.161235
-0.075804
0.094485
0.170371
0.095699
0.055545
0.120326
-0.033622
-0.002154
0.135716
0.042889
0.069171
0.025232
0.114397
0.117675
-0.027666
-0.030956
-0.022271
0.028333
-0.063255
-0.023826
-0.038498
0.015167
0.109142
0.123312
-0.036584
-0.049737
-0.068264
0.002038
-0.002421
0.050930
0.018428
0.146078
-0.070050
0.089260
0.005939
0.034953
0.158205
-0.073859
0.115154
-0.055597
-0.053709
-0.044488
0.170333
-0.083971
0.034182
-0.076842
-0.007672
0.167294
-0.022573
0.142151
-0.028632
0.169298
-0.082960
0.103790
-0.070786
0.155370
0.171349
0.089241
-0.013667
0.008634
0.076028
-0.079840
-0.062692
0.062541
0.049072
0.109567
0.133577
0.153187
-0.050757
0.073837
-0.011637
-0.015395
0.030992
0.100361
0.027343
0.058248
0.036530
-0.061168
-0.018885
-0.044179
0.131905
0.057839
-0.022087
0.028495
0.092881
0.074518
0.110751
0.046746
0.148452
-0.008970
-0.057640
-0.065154
-0.070755
0.007812
0.107813
0.042979
0.001164
0.159165
0.132932
0.003659
-0.074736
-0.011660
-0.018606
-0.035328
0.034348
0.022145
0.099875
-0.074720
-0.020583
-0.005507
-0.080917
0.092324
0.167249
0.101659
0.149916
-0.048670
0.063120
0.049475
-0.040562
0.141476
0.129694
0.024242
0.140027
0.072343
0.107314
-0.058924
-0.024008
0.055841
-0.041917
-0.042438
0.144982
-0.045664
0.017551
0.085396
0.116078
-0.029343
0.078174
0.015503
-0.063200
0.103703
0.043697
0.097927
0.144044
0.089552
0.067024
0.110839
-0.051162
-0.003949
-0.056646
0.012995
0.082621
0.165266
0.161187
0.122288
-0.030427
-0.066492
-0.037842
0.124773
0.117154
0.116093
0.165188
0.097599
-0.025572
0.087045
-0.022118
-0.081898
-0.000184
0.137541
0.112980
0.006479
0.037983
-0.054392
-0.014647
0.166259
0.150264
0.148223
-0.068714
-0.065686
0.128432
0.076857
0.052444
0.054690
0.168311
0.157264
0.153088
-0.066949
0.147129
0.064735
-0.013218
-0.045798
0.134480
-0.029630
0.038217
-0.058143
-0.060296
0.029946
0.028484
0.033679
0.129020
-0.015235
0.121654
-0.034925
0.028061
-0.039940
0.124134
-0.003967
-0.020337
0.103250
0.089616
-0.041532
0.126314
0.145257
0.075232
0.138955
0.147998
-0.062152
0.156079
-0.018592
0.141170
-0.037424
-0.058666
-0.053073
0.083517
0.038067
0.080142
-0.012628
0.099865
0.061033
0.049831
0.003450
0.136431
-0.054681
0.095395
0.163243
0.160106
0.164225
0.120131
-0.003308
-0.078856
-0.063635
0.024658
0.016902
0.034187
0.119624
-0.032885
-0.001064
0.107000
0.108953
0.037468
-0.020426
0.131304
0.143295
0.146663
0.046095
0.085382
0.069205
0.095523
0.020016
0.135444
-0.041770
0.068555
0.014490
0.009992
0.005667
0.021504
0.134671
-0.061790
0.112340
0.115478
-0.028743
-0.063452
-0.025613
-0.034217
0.120994
-0.051608
-0.047065
-0.008614
0.010709
0.098572
-0.077752
0.087937
-0.068824
-0.052772
-0.001013
-0.076743
0.090171
0.156103
0.117031
0.110860
0.032949
0.043599
-0.026573
-0.023531
-0.060621
0.162200
-0.055950
0.065306
0.104721
0.131429
-0.072708
0.078972
0.152162
0.077535
0.142018
-0.071701
0.139044
-0.041583
0.061056
-0.016470
-0.043850
-0.030974
-0.020278
-0.013263
-0.010868
0.032032
0.056592
0.052344
0.126714
0.118956
-0.032224
-0.037891
0.124226
-0.038846
-0.030587
0.027890
0.105694
0.064595
0.016754
-0.039082
0.078128
0.133759
0.117937
0.108732
-0.055644
0.007073
-0.018490
0.043639
-0.067706
0.065879
0.130248
0.134467
0.003952
0.038393
0.092281
-0.039232
0.077177
0.108946
-0.010363
0.000346
-0.004123
-0.069622
-0.071709
0.099502
0.091057
0.161204
0.154104
0.143488
0.138712
-0.075854
0.060380
0.129304
-0.006391
-0.016652
-0.028142
0.031639
0.114896
0.117334
0.042246
0.049491
-0.001066
0.105271
-0.018446
0.138659
0.054597
0.020261
-0.038894
0.072677
0.101429
0.009528
0.040758
-0.009642
0.113989
-0.027243
0.013845
-0.021979
0.081135
-0.057453
-0.014621
0.132062
-0.058703
-0.049745
-0.046695
0.127215
0.012248
-0.048418
-0.051470
0.097068
-0.063899
0.085647
-0.060194
0.162175
0.086295
0.151002
0.154137
0.123207
-0.035620
0.144969
0.067490
-0.024502
-0.027635
0.122379
-0.058597
0.113944
-0.015604
-0.043161
0.105669
0.132324
0.096347
0.138220
-0.066624
0.147128
-0.021558
0.079778
-0.006385
0.004888
0.093233
0.160230
0.145016
0.021781
0.158067
-0.060409
0.036970
0.136950
0.025925
-0.033456
0.035664
-0.054544
0.054692
0.030052
-0.039285
0.029401
-0.003822
0.012009
0.086832
0.013703
-0.055747
0.132080
0.140344
-0.053627
0.145918
-0.025501
0.004178
-0.050130
-0.039933
0.106585
-0.016562
0.152971
0.052542
0.075346
0.127659
0.100942
0.094172
0.027103
0.021673
0.124484
-0.035061
0.124361
0.037956
0.084240
-0.053378
-0.064569
-0.044840
0.088796
0.158186
0.141817
-0.059129
0.111778
0.009298
0.103411
-0.014806
-0.011731
0.136695
0.098106
-0.016580
-0.036430
0.046514
0.041918
0.003181
0.048007
0.058324
-0.036937
0.070642
0.107310
0.018525
0.040704
-0.018512
-0.055660
-0.023642
-0.026361
0.110410
0.113127
0.081888
-0.010424
-0.007231
0.002735
-0.041884