# vtk DataFile Version 2.0
Test
ASCII
DATASET POLYDATA
POINTS 5510 float
0.000000 0.000000 0.000000
0.080000 0.000000 0.000000
0.080000 0.160000 0.000000
0.000000 0.160000 0.000000
0.035000 0.076250 0.000000
0.046500 0.083750 0.000000
0.002000 0.000000 0.000000
0.004000 0.000000 0.000000
0.006000 0.000000 0.000000
0.008000 0.000000 0.000000
0.010000 0.000000 0.000000
0.012000 0.000000 0.000000
0.014000 0.000000 0.000000
0.016000 0.000000 0.000000
0.018000 0.000000 0.000000
0.020000 0.000000 0.000000
0.022000 0.000000 0.000000
0.024000 0.000000 0.000000
0.026000 0.000000 0.000000
0.028000 0.000000 0.000000
0.030000 0.000000 0.000000
0.032000 0.000000 0.000000
0.034000 0.000000 0.000000
0.036000 0.000000 0.000000
0.038000 0.000000 0.000000
0.040000 0.000000 0.000000
0.042000 0.000000 0.000000
0.044000 0.000000 0.000000
0.046000 0.000000 0.000000
0.048000 0.000000 0.000000
0.050000 0.000000 0.000000
0.052000 0.000000 0.000000
0.054000 0.000000 0.000000
0.056000 0.000000 0.000000
0.058000 0.000000 0.000000
0.060000 0.000000 0.000000
0.062000 0.000000 0.000000
0.064000 0.000000 0.000000
0.066000 0.000000 0.000000
0.068000 0.000000 0.000000
0.070000 0.000000 0.000000
0.072000 0.000000 0.000000
0.074000 0.000000 0.000000
0.076000 0.000000 0.000000
0.078000 0.000000 0.000000
0.080000 0.002000 0.000000
0.080000 0.004000 0.000000
0.080000 0.006000 0.000000
0.080000 0.008000 0.000000
0.080000 0.010000 0.000000
0.080000 0.012000 0.000000
0.080000 0.014000 0.000000
0.080000 0.016000 0.000000
0.080000 0.018000 0.000000
0.080000 0.020000 0.000000
0.080000 0.022000 0.000000
0.080000 0.024000 0.000000
0.080000 0.026000 0.000000
0.080000 0.028000 0.000000
0.080000 0.030000 0.000000
0.080000 0.032000 0.000000
0.080000 0.034000 0.000000
0.080000 0.036000 0.000000
0.080000 0.038000 0.000000
0.080000 0.040000 0.000000
0.080000 0.042000 0.000000
0.080000 0.044000 0.000000
0.080000 0.046000 0.000000
0.080000 0.048000 0.000000
0.080000 0.050000 0.000000
0.080000 0.052000 0.000000
0.080000 0.054000 0.000000
0.080000 0.056000 0.000000
0.080000 0.058000 0.000000
0.080000 0.060000 0.000000
0.080000 0.062000 0.000000
0.080000 0.064000 0.000000
0.080000 0.066000 0.000000
0.080000 0.068000 0.000000
0.080000 0.070000 0.000000
0.080000 0.072000 0.000000
0.080000 0.074000 0.000000
0.080000 0.076000 0.000000
0.080000 0.078000 0.000000
0.080000 0.080000 0.000000
0.080000 0.082000 0.000000
0.080000 0.084000 0.000000
0.080000 0.086000 0.000000
0.080000 0.088000 0.000000
0.080000 0.090000 0.000000
0.080000 0.092000 0.000000
0.080000 0.094000 0.000000
0.080000 0.096000 0.000000
0.080000 0.098000 0.000000
0.080000 0.100000 0.000000
0.080000 0.102000 0.000000
0.080000 0.104000 0.000000
0.080000 0.106000 0.000000
0.080000 0.108000 0.000000
0.080000 0.110000 0.000000
0.080000 0.112000 0.000000
0.080000 0.114000 0.000000
0.080000 0.116000 0.000000
0.080000 0.118000 0.000000
0.080000 0.120000 0.000000
0.080000 0.122000 0.000000
0.080000 0.124000 0.000000
0.080000 0.126000 0.000000
0.080000 0.128000 0.000000
0.080000 0.130000 0.000000
0.080000 0.132000 0.000000
0.080000 0.134000 0.000000
0.080000 0.136000 0.000000
0.080000 0.138000 0.000000
0.080000 0.140000 0.000000
0.080000 0.142000 0.000000
0.080000 0.144000 0.000000
0.080000 0.146000 0.000000
0.080000 0.148000 0.000000
0.080000 0.150000 0.000000
0.080000 0.152000 0.000000
0.080000 0.154000 0.000000
0.080000 0.156000 0.000000
0.080000 0.158000 0.000000
0.078000 0.160000 0.000000
0.076000 0.160000 0.000000
0.074000 0.160000 0.000000
0.072000 0.160000 0.000000
0.070000 0.160000 0.000000
0.068000 0.160000 0.000000
0.066000 0.160000 0.000000
0.064000 0.160000 0.000000
0.062000 0.160000 0.000000
0.060000 0.160000 0.000000
0.058000 0.160000 0.000000
0.056000 0.160000 0.000000
0.054000 0.160000 0.000000
0.052000 0.160000 0.000000
0.050000 0.160000 0.000000
0.048000 0.160000 0.000000
0.046000 0.160000 0.000000
0.044000 0.160000 0.000000
0.042000 0.160000 0.000000
0.040000 0.160000 0.000000
0.038000 0.160000 0.000000
0.036000 0.160000 0.000000
0.034000 0.160000 0.000000
0.032000 0.160000 0.000000
0.030000 0.160000 0.000000
0.028000 0.160000 0.000000
0.026000 0.160000 0.000000
0.024000 0.160000 0.000000
0.022000 0.160000 0.000000
0.020000 0.160000 0.000000
0.018000 0.160000 0.000000
0.016000 0.160000 0.000000
0.014000 0.160000 0.000000
0.012000 0.160000 0.000000
0.010000 0.160000 0.000000
0.008000 0.160000 0.000000
0.006000 0.160000 0.000000
0.004000 0.160000 0.000000
0.002000 0.160000 0.000000
0.000000 0.158000 0.000000
0.000000 0.156000 0.000000
0.000000 0.154000 0.000000
0.000000 0.152000 0.000000
0.000000 0.150000 0.000000
0.000000 0.148000 0.000000
0.000000 0.146000 0.000000
0.000000 0.144000 0.000000
0.000000 0.142000 0.000000
0.000000 0.140000 0.000000
0.000000 0.138000 0.000000
0.000000 0.136000 0.000000
0.000000 0.134000 0.000000
0.000000 0.132000 0.000000
0.000000 0.130000 0.000000
0.000000 0.128000 0.000000
0.000000 0.126000 0.000000
0.000000 0.124000 0.000000
0.000000 0.122000 0.000000
0.000000 0.120000 0.000000
0.000000 0.118000 0.000000
0.000000 0.116000 0.000000
0.000000 0.114000 0.000000
0.000000 0.112000 0.000000
0.000000 0.110000 0.000000
0.000000 0.108000 0.000000
0.000000 0.106000 0.000000
0.000000 0.104000 0.000000
0.000000 0.102000 0.000000
0.000000 0.100000 0.000000
0.000000 0.098000 0.000000
0.000000 0.096000 0.000000
0.000000 0.094000 0.000000
0.000000 0.092000 0.000000
0.000000 0.090000 0.000000
0.000000 0.088000 0.000000
0.000000 0.086000 0.000000
0.000000 0.084000 0.000000
0.000000 0.082000 0.000000
0.000000 0.080000 0.000000
0.000000 0.078000 0.000000
0.000000 0.076000 0.000000
0.000000 0.074000 0.000000
0.000000 0.072000 0.000000
0.000000 0.070000 0.000000
0.000000 0.068000 0.000000
0.000000 0.066000 0.000000
0.000000 0.064000 0.000000
0.000000 0.062000 0.000000
0.000000 0.060000 0.000000
0.000000 0.058000 0.000000
0.000000 0.056000 0.000000
0.000000 0.054000 0.000000
0.000000 0.052000 0.000000
0.000000 0.050000 0.000000
0.000000 0.048000 0.000000
0.000000 0.046000 0.000000
0.000000 0.044000 0.000000
0.000000 0.042000 0.000000
0.000000 0.040000 0.000000
0.000000 0.038000 0.000000
0.000000 0.036000 0.000000
0.000000 0.034000 0.000000
0.000000 0.032000 0.000000
0.000000 0.030000 0.000000
0.000000 0.028000 0.000000
0.000000 0.026000 0.000000
0.000000 0.024000 0.000000
0.000000 0.022000 0.000000
0.000000 0.020000 0.000000
0.000000 0.018000 0.000000
0.000000 0.016000 0.000000
0.000000 0.014000 0.000000
0.000000 0.012000 0.000000
0.000000 0.010000 0.000000
0.000000 0.008000 0.000000
0.000000 0.006000 0.000000
0.000000 0.004000 0.000000
0.000000 0.002000 0.000000
0.035411 0.076518 0.000000
0.035821 0.076786 0.000000
0.036232 0.077054 0.000000
0.036643 0.077321 0.000000
0.037054 0.077589 0.000000
0.037464 0.077857 0.000000
0.037875 0.078125 0.000000
0.038286 0.078393 0.000000
0.038696 0.078661 0.000000
0.039107 0.078929 0.000000
0.039518 0.079196 0.000000
0.039929 0.079464 0.000000
0.040339 0.079732 0.000000
0.040750 0.080000 0.000000
0.041161 0.080268 0.000000
0.041571 0.080536 0.000000
0.041982 0.080804 0.000000
0.042393 0.081071 0.000000
0.042804 0.081339 0.000000
0.043214 0.081607 0.000000
0.043625 0.081875 0.000000
0.044036 0.082143 0.000000
0.044446 0.082411 0.000000
0.044857 0.082679 0.000000
0.045268 0.082946 0.000000
0.045679 0.083214 0.000000
0.046089 0.083482 0.000000
0.040000 0.002000 0.000000
0.040001 0.158005 0.000000
0.002000 0.116000 0.000000
0.078000 0.048000 0.000000
0.002000 0.106000 0.000000
0.078000 0.058000 0.000000
0.001986 0.042173 0.000000
0.078015 0.117826 0.000000
0.001985 0.094174 0.000000
0.001985 0.084174 0.000000
0.001914 0.056074 0.000000
0.002000 0.072000 0.000000
0.078015 0.065826 0.000000
0.078016 0.075826 0.000000
0.078000 0.088000 0.000000
0.078000 0.104000 0.000000
0.078003 0.029997 0.000000
0.001998 0.130002 0.000000
0.002000 0.032000 0.000000
0.078013 0.128003 0.000000
0.056000 0.158000 0.000000
0.026000 0.002000 0.000000
0.060000 0.002000 0.000000
0.020000 0.158000 0.000000
0.002000 0.020000 0.000000
0.078000 0.142000 0.000000
0.002000 0.146000 0.000000
0.078000 0.020000 0.000000
0.016000 0.002000 0.000000
0.068000 0.002000 0.000000
0.066000 0.158000 0.000000
0.002000 0.014000 0.000000
0.008000 0.158000 0.000000
0.010000 0.002000 0.000000
0.078000 0.148000 0.000000
0.078000 0.008000 0.000000
0.078005 0.037995 0.000000
0.051991 0.001990 0.000000
0.028000 0.158000 0.000000
0.002000 0.008000 0.000000
0.078000 0.094000 0.000000
0.078000 0.110000 0.000000
0.001983 0.066159 0.000000
0.002000 0.050000 0.000000
0.046000 0.158000 0.000000
0.078000 0.134000 0.000000
0.002000 0.140000 0.000000
0.006000 0.002000 0.000000
0.002000 0.154000 0.000000
0.074000 0.002000 0.000000
0.078000 0.152000 0.000000
0.074000 0.158000 0.000000
0.078000 0.080000 0.000000
0.078000 0.070000 0.000000
0.078000 0.122000 0.000000
0.002000 0.090000 0.000000
0.002000 0.080000 0.000000
0.002000 0.038000 0.000000
0.002000 0.102000 0.000000
0.002000 0.112000 0.000000
0.036000 0.002000 0.000000
0.078000 0.042000 0.000000
0.032000 0.002000 0.000000
0.047987 0.001989 0.000000
0.032008 0.158010 0.000000
0.002000 0.028000 0.000000
0.002000 0.126000 0.000000
0.060000 0.158000 0.000000
0.022000 0.002000 0.000000
0.002000 0.136000 0.000000
0.078000 0.024000 0.000000
0.012000 0.158000 0.000000
0.078000 0.158000 0.000000
0.001947 0.003947 0.000000
0.002000 0.158000 0.000000
0.078000 0.012000 0.000000
0.078000 0.096000 0.000000
0.078000 0.098000 0.000000
0.078000 0.082000 0.000000
0.078111 0.099889 0.000000
0.078035 0.083965 0.000000
0.078000 0.090000 0.000000
0.078000 0.106000 0.000000
0.078000 0.072000 0.000000
0.078000 0.112000 0.000000
0.078043 0.061976 0.000000
0.078000 0.114000 0.000000
0.002000 0.064000 0.000000
0.002000 0.062000 0.000000
0.002000 0.088000 0.000000
0.002000 0.078000 0.000000
0.002000 0.060000 0.000000
0.001966 0.076034 0.000000
0.002000 0.070000 0.000000
0.002000 0.054000 0.000000
0.001957 0.098024 0.000000
0.002000 0.048000 0.000000
0.002000 0.046000 0.000000
[...]
POINT_DATA 5510
SCALARS UX float 1
LOOKUP_TABLE default
-0.008969
0.016289
0.000001
-0.024753
-0.005933
-0.002128
-0.008335
-0.007701
-0.007067
-0.006433
-0.005799
-0.005165
-0.004531
-0.003898
-0.003265
-0.002633
-0.002001
-0.001369
-0.000738
-0.000108
0.000521
0.001150
0.001779
0.002407
0.003035
0.003663
0.004291
0.004918
0.005546
0.006173
0.006801
0.007429
0.008057
0.008686
0.009316
0.009946
0.010576
0.011208
0.011840
0.012474
0.013108
0.013743
0.014378
0.015015
0.015651
0.016098
0.015909
0.015720
0.015532
0.015345
0.015158
0.014973
0.014787
0.014603
0.014419
0.014235
0.014054
0.013873
0.013693
0.013515
0.013338
0.013163
0.012989
0.012817
0.012645
0.012476
0.012306
0.012138
0.011971
0.011804
0.011636
0.011468
0.011299
0.011128
0.010955
0.010780
0.010602
0.010423
0.010240
0.010053
0.009866
0.009671
0.009474
0.009273
0.009065
0.008855
0.008637
0.008411
0.008177
0.007938
0.007687
0.007430
0.007168
0.006901
0.006631
0.006365
0.006104
0.005846
0.005600
0.005362
0.005134
0.004909
0.004697
0.004488
0.004284
0.004085
0.003887
0.003695
0.003503
0.003313
0.003125
0.002938
0.002751
0.002565
0.002379
0.002194
0.002008
0.001824
0.001640
0.001457
0.001276
0.001094
0.000893
0.000593
-0.000004
-0.000668
-0.001325
-0.001976
-0.002619
-0.003260
-0.003899
-0.004536
-0.005172
-0.005807
-0.006441
-0.007074
-0.007706
-0.008338
-0.008969
-0.009599
-0.010228
-0.010857
-0.011486
-0.012114
-0.012742
-0.013370
-0.013998
-0.014626
-0.015255
-0.015883
-0.016512
-0.017141
-0.017771
-0.018402
-0.019033
-0.019665
-0.020299
-0.020933
-0.021567
-0.022203
-0.022840
-0.023477
-0.024115
-0.024562
-0.024373
-0.024184
-0.023996
-0.023809
-0.023623
-0.023438
-0.023253
-0.023070
-0.022887
-0.022705
-0.022524
-0.022343
-0.022165
-0.021988
-0.021813
-0.021638
-0.021464
-0.021293
-0.021122
-0.020952
-0.020783
-0.020614
-0.020445
-0.020277
-0.020108
-0.019938
-0.019767
-0.019594
-0.019419
-0.019241
-0.019062
-0.018880
-0.018696
-0.018507
-0.018318
-0.018123
-0.017925
-0.017724
-0.017517
-0.017307
-0.017091
-0.016866
-0.016635
-0.016401
-0.016155
-0.015903
-0.015646
-0.015387
-0.015122
-0.014860
-0.014602
-0.014345
-0.014100
-0.013861
-0.013624
-0.013404
-0.013188
-0.012976
-0.012769
-0.012567
-0.012367
-0.012173
-0.011980
-0.011789
-0.011599
-0.011409
-0.011222
-0.011035
-0.010847
-0.010660
-0.010473
-0.010286
-0.010099
-0.009912
-0.009724
-0.009536
-0.009347
-0.009158
-0.005782
-0.005633
-0.005428
-0.005229
-0.005071
-0.004957
-0.004832
-0.004695
-0.004604
-0.004470
-0.004355
-0.004263
-0.004137
-0.004012
-0.003862
-0.003718
-0.003578
-0.003433
-0.003303
-0.003208
-0.003105
-0.003006
-0.002887
-0.002774
-0.002635
-0.002478
-0.002327
0.003475
-0.011926
-0.020139
0.011328
-0.019302
0.010495
-0.012346
0.003858
-0.018277
-0.017328
-0.013977
-0.016009
0.009819
0.008878
0.007550
0.005439
0.012871
-0.021344
-0.011337
0.002864
-0.006885
-0.000927
0.009757
-0.018213
-0.010211
0.001556
-0.022797
0.013778
-0.004087
0.012284
-0.003710
-0.009651
-0.022013
-0.005989
0.001001
0.014894
0.012172
0.007239
-0.015695
-0.009090
0.006787
0.004701
-0.015287
-0.013198
-0.010040
0.002298
-0.022245
-0.007257
-0.023545
0.014187
0.000631
-0.001160
0.008448
0.009434
0.003436
-0.017887
-0.016898
-0.011918
-0.018962
-0.019804
0.002219
0.011829
0.000962
0.005982
-0.014437
-0.010958
-0.020992
-0.005618
-0.002190
-0.021880
0.013410
-0.020743
0.000015
-0.008726
-0.023923
0.014520
0.006519
0.006246
0.008235
0.006024
0.008028
0.007303
0.005184
0.009244
0.004472
0.010167
0.004254
-0.015000
-0.014734
-0.017697
-0.016686
-0.014466
-0.016480
-0.015767
-0.013685
-0.018630
-0.012968
-0.012747
0.010831
0.011669
0.011162
-0.019637
-0.020477
0.003242
-0.011722
0.004730
-0.013183
-0.011298
0.012520
-0.009410
-0.008780
-0.020819
0.000333
0.008498
-0.016953
-0.010770
0.002676
0.002112
-0.010584
0.001927
-0.021700
-0.008149
0.013230
-0.022613
-0.004983
-0.002822
0.011019
-0.019476
0.001371
0.014147
-0.023170
-0.010024
-0.009464
-0.003072
-0.004721
-0.002435
0.000447
-0.023285
-0.007931
-0.008619
0.015271
0.013552
0.015460
-0.019179
0.010701
-0.017284
-0.016308
-0.015394
-0.013852
-0.012560
0.007861
0.006937
0.005408
0.008831
0.003858
-0.011730
-0.020184
0.002222
-0.011287
0.000771
-0.007966
-0.010321
0.001291
-0.002379
-0.021239
0.012769
-0.005430
-0.009389
-0.004276
-0.022158
-0.002893
0.004796
0.011065
-0.009016
-0.000011
0.013998
0.007448
0.005625
0.006159
-0.015898
-0.014113
-0.014635
-0.012133
0.007091
0.007826
0.005750
0.008698
0.009071
0.004977
0.009658
0.004061
-0.015559
-0.017521
-0.016279
-0.018114
-0.014221
-0.017147
-0.013458
-0.012552
0.009993
-0.018453
0.010340
-0.018805
0.010678
0.003685
-0.019147
-0.012169
0.011010
-0.019484
-0.019998
0.011505
-0.020317
0.012006
-0.020653
0.004099
-0.012550
0.002844
-0.010666
0.005354
-0.013807
0.003060
-0.011537
0.012346
0.001589
0.006610
-0.015064
-0.009218
0.007868
-0.016322
-0.021168
-0.011150
0.002487
0.012694
-0.010133
-0.000297
0.001661
-0.007517
0.009126
-0.017582
-0.010398
0.001742
-0.021521
0.013049
-0.022062
-0.006252
-0.001558
-0.022428
0.013593
-0.004347
-0.003454
-0.018844
0.010388
-0.020109
0.011651
0.001186
-0.009838
-0.021377
0.013962
-0.022983
0.000817
0.014333
-0.009277
-0.005355
-0.023357
-0.001797
0.014706
0.000246
-0.006623
-0.008902
-0.022649
-0.008080
0.012918
-0.000539
-0.023095
-0.023733
0.015082
0.014634
0.014823
-0.018236
0.009770
-0.013283
0.005165
0.004792
-0.009686
-0.014887
0.007686
-0.017396
0.010199
0.013695
-0.019920
0.000549
0.011717
0.002676
-0.021187
-0.022719
0.006473
0.003444
-0.014941
0.009449
0.009039
-0.017909
-0.017495
0.008467
0.008082
-0.016916
-0.016529
0.010108
-0.018578
0.003042
-0.010899
-0.013617
-0.010511
0.012050
0.001851
-0.020530
-0.000486
-0.001748
-0.003643
0.011462
-0.021788
-0.021421
-0.005543
-0.008643
-0.022344
0.013323
0.012952
-0.001628
-0.000205
0.014069
0.013809
0.006688
0.007185
-0.015150
0.005133
-0.015636
0.003687
-0.013575
-0.012825
0.010905
0.008654
-0.017105
-0.011935
-0.011502
-0.019364
-0.019686
0.004297
0.004554
0.010385
0.010543
-0.018859
-0.019018
-0.012383
0.005915
0.007657
-0.020017
-0.014389
-0.016105
0.004083
0.011372
0.011211
-0.012360
-0.011095
0.002420
0.006421
0.001414
-0.009840
0.003931
-0.010496
0.002039
-0.020360
-0.016139
-0.007338
0.000141
0.012406
0.012587
-0.020879
-0.021058
0.001105
0.008940
-0.009950
-0.009574
-0.008592
0.001477
-0.003010
-0.011114
-0.006063
-0.018656
-0.004162
-0.004797
-0.003527
-0.021972
-0.004909
0.012728
-0.009203
-0.008830
-0.006811
0.013363
-0.002260
-0.007446
0.014445
0.000177
-0.000402
-0.022907
-0.008268
-0.022459
-0.010880
0.010600
-0.018339
0.003027
-0.015947
-0.016929
-0.014599
-0.010876
0.008481
0.007524
0.006081
-0.019404
0.001793
-0.007779
0.001207
0.011771
0.000844
-0.020241
-0.001937
-0.004613
-0.008939
-0.003831
-0.021148
-0.008195
-0.012227
-0.013024
0.003739
-0.002085
0.006684
-0.015159
-0.011341
0.010328
0.005326
-0.013821
-0.009879
-0.010471
-0.019727
-0.000048
-0.005098
0.000734
-0.021519
-0.000461
0.004493
0.005874
0.003499
-0.014358
0.008279
0.009232
-0.016727
-0.017690
0.009600
-0.018064
-0.019520
0.007076
0.004998
-0.013533
0.009941
-0.018409
-0.011757
-0.015522
0.003199
-0.019837
-0.013282
-0.012924
-0.010274
-0.012160
-0.014234
0.008118
-0.016567
0.011544
-0.018699
-0.011766
0.010226
0.007041
0.002033
0.003292
0.005781
0.002822
0.002622
0.011886
-0.010706
0.009954
-0.006696
0.012231
-0.015512
-0.020703
0.000654
0.001407
-0.009030
-0.001118
-0.009764
-0.018433
-0.018781
0.008312
-0.016767
0.011952
0.012313
-0.009503
-0.020421
-0.020781
-0.005876
-0.003978
0.001215
0.009569
-0.018026
-0.021604
-0.003197
-0.012997
0.013137
-0.008567
0.000920
-0.019287
0.010830
-0.003346
0.012095
0.013508
0.013173
-0.006177
0.000363
-0.022531
0.013881
-0.007634
-0.020553
0.013620
0.014257
-0.008456
-0.000839
-0.001009
-0.022269
-0.021822
0.004546
0.003965
-0.017741
-0.013810
-0.012720
0.005366
-0.010139
-0.019611
0.000780
0.004979
0.011141
-0.009250
-0.014701
0.007499
0.010640
-0.004428
-0.017208
-0.003388
0.012870
0.009310
-0.019099
0.012985
-0.020364
0.004464
-0.017778
0.011088
0.000209
-0.012799
0.007647
-0.016173
-0.017431
-0.017048
0.008967
0.008594
0.002489
-0.020070
-0.006513
-0.009130
-0.001309
0.012499
0.000285
-0.008009
-0.021633
-0.012390
0.007976
-0.016426
-0.011077
0.003232
-0.014952
0.006399
0.003251
-0.017983
0.009500
0.009858
-0.013042
0.010451
-0.018194
-0.019100
-0.018922
-0.019244
0.007274
-0.015717
0.006786
0.001982
0.002435
-0.015257
0.001825
-0.013430
-0.012770
0.005551
-0.014024
0.008275
-0.016726
0.004211
-0.010671
0.011595
0.010762
-0.011978
0.006232
0.002841
-0.019897
-0.019560
0.003725
-0.007153
-0.018580
-0.009319
-0.000676
0.001598
0.000574
-0.015330
-0.010070
-0.010274
0.010097
-0.011560
0.012131
0.008126
-0.008404
0.011254
-0.009651
-0.020600
-0.020965
0.001032
0.000471
-0.008874
-0.017838
0.009381
-0.008754
-0.002567
0.011905
-0.005245
-0.004465
-0.003797
-0.008382
-0.015953
0.000098
-0.000274
0.012539
0.013245
0.013432
-0.006365
-0.005731
-0.007821
-0.007000
-0.021334
-0.002715
-0.021707
-0.022081
-0.011544
-0.001460
-0.000649
0.009989
0.008777
-0.015874
-0.015067
-0.011206
-0.012402
0.007428
0.006649
0.002260
-0.014525
0.007317
-0.017023
-0.006970
-0.004244
-0.020329
-0.008121
-0.018520
-0.000346
-0.010265
-0.000236
0.009259
0.007992
-0.016440
-0.007747
-0.004652
-0.005919
-0.020883
-0.021445
-0.011973
0.005065
0.003930
0.006111
0.005544
-0.014597
-0.014015
-0.013539
0.009746
0.003403
-0.011676
0.010975
0.000402
0.006988
-0.001497
0.011498
-0.002758
-0.007374
-0.000908
-0.001908
-0.010747
-0.018791
-0.019108
-0.019442
0.004752
0.004234
-0.018361
0.002931
0.002455
-0.013268
0.008761
-0.017220
-0.017560
-0.017252
-0.017592
0.009126
0.009721
0.002638
0.002211
0.007564
-0.016006
-0.012462
-0.009529
-0.008840
-0.010054
-0.012635
0.000968
0.001372
-0.009642
-0.014069
-0.017848
-0.010787
0.010926
0.006868
-0.006321
0.005606
0.000592
0.004340
-0.008691
0.009358
0.011320
0.001011
-0.018162
-0.019967
-0.019789
-0.009448
0.012684
-0.016578
0.008753
-0.009061
0.000025
-0.004020
0.011864
-0.005690
-0.005058
-0.008217
0.011419
-0.015145
-0.018467
0.011272
-0.020513
0.010010
-0.008495
-0.000087
0.012350
0.012609
0.013057
-0.003166
-0.019731
-0.001281
0.012797
-0.006553
-0.007187
-0.020998
-0.021894
0.003105
-0.015408
-0.012572
0.007757
-0.016203
-0.009659
-0.017031
0.008666
-0.013493
-0.015413
0.004788
0.006932
-0.009956
0.000356
-0.008627
-0.018821
-0.014342
0.010346
-0.000414
-0.002946
0.009193
-0.019696
-0.011844
-0.008062
-0.018910
0.004270
0.002070
-0.016725
-0.017085
0.008265
0.008606
0.008862
-0.008653
-0.006762
0.001598
0.003539
0.010303
0.004793
-0.019160
0.010691
-0.016400
-0.004208
-0.000721
0.010452
0.011716
-0.021257
-0.012619
-0.015676
0.007213
0.002301
0.005811
0.006374
-0.014250
-0.010515
-0.014791
-0.016490
0.008034
0.002739
0.009844
0.009052
0.003658
-0.012264
0.002684
-0.011403
-0.012149
-0.013260
-0.009859
0.007749
0.001182
-0.016197
-0.017161
-0.017359
0.002875
0.010634
-0.019276
0.010801
0.006690
0.003685
-0.010982
-0.000032
0.010145
0.006784
0.005431
-0.009015
-0.017991
-0.018939
-0.015767
-0.000870
-0.000159
0.012049
0.012423
-0.005502
-0.002130
-0.008434
-0.020148
-0.013899
-0.013259
0.001629
-0.007935
0.009495
-0.004873
-0.000535
0.011679
-0.007593
-0.020697
-0.003615
-0.008308
-0.005286
-0.019543
-0.020810
-0.006107
0.007940
-0.021070
-0.017649
0.011975
0.012162
-0.007561
-0.001726
-0.001095
-0.006740
-0.002536
0.000387
-0.011363
-0.018636
-0.015206
-0.015695
-0.011838
-0.012790
0.007119
0.004898
-0.016904
0.008440
0.003999
0.006345
0.009374
-0.016566
0.007907
-0.010861
-0.012962
-0.011580
0.003297
-0.008010
0.000200
0.006511
-0.017947
-0.005316
0.011235
-0.016836
-0.007489
-0.016371
-0.015935
0.007483
-0.000975
0.011789
-0.018724
-0.020063
-0.014884
0.006508
0.002087
0.009145
0.006127
0.005594
0.005194
0.008219
0.008528
-0.009220
-0.011236
-0.014573
-0.018189
-0.007384
-0.019514
-0.001058
-0.002318
-0.004062
-0.005474
-0.002356
0.002065
-0.015237
0.006800
-0.014030
-0.012059
0.004527
0.003346
0.002813
-0.009969
-0.010320
-0.016734
0.002328
-0.016880
-0.011691
-0.011981
0.001801
-0.009444
-0.013008
-0.012061
0.007195
-0.009262
0.000567
-0.015659
0.001754
-0.010566
0.001007
-0.013102
-0.012456
-0.018493
0.010015
0.003927
-0.008035
0.000163
0.006055
-0.008253
0.009527
-0.017275
0.004154
-0.018985
0.008765
-0.019336
0.010514
-0.015591
-0.014960
-0.017577
-0.008855
-0.006129
-0.000220
0.010463
0.008565
-0.015500
0.007059
-0.007302
-0.006294
-0.018655
-0.003578
-0.001167
-0.001541
-0.018276
-0.019879
-0.004839
0.011082
0.012235
-0.000599
-0.010376
0.010870
-0.002986
0.009822
0.011344
-0.020622
-0.007114
-0.007869
0.011530
-0.006927
-0.020175
0.000825
-0.020434
0.007130
0.010176
-0.013725
-0.011362
0.004410
0.003557
-0.016222
0.007761
0.002096
0.005949
-0.013689
-0.009298
0.008757
-0.015665
0.007204
-0.014727
0.004567
0.006337
0.003379
-0.010991
-0.000038
-0.017894
-0.008504
-0.013545
0.000638
0.009557
-0.018535
0.006326
-0.002508
-0.000841
-0.007441
-0.019067
0.006880
-0.015328
-0.006858
-0.001610
0.010065
-0.004395
0.009006
0.011157
0.009854
-0.014788
-0.018092
0.011603
-0.005663
-0.006481
-0.019803
0.003852
-0.013187
0.007528
-0.015984
0.005323
-0.009784
0.005431
-0.014197
-0.017740
-0.016196
0.008368
0.009239
-0.016597
-0.011400
0.003095
-0.016399
-0.011179
0.006279
0.008072
0.000779
0.001509
0.001203
0.004587
-0.009193
-0.018345
-0.011660
0.003904
-0.012490
-0.012701
0.009682
-0.000454
-0.012311
-0.014696
-0.018038
-0.007819
0.005244
-0.016625
0.004265
0.005878
0.006448
-0.014880
0.008106
-0.015113
-0.008253
-0.008728
-0.018199
0.003002
-0.000784
-0.018712
-0.006566
0.009725
-0.017413
-0.000427
0.011051
0.008898
-0.001693
-0.017461
0.011419
-0.005941
0.010893
-0.003135
-0.007680
-0.019248
-0.004688
-0.002172
-0.019355
-0.001220
0.009636
-0.007820
-0.001352
0.006612
-0.010616
-0.016213
-0.002805
-0.003434
-0.019989
-0.020248
0.007751
0.001443
-0.009071
0.002681
0.006703
-0.015147
-0.011614
0.002215
-0.009773
0.005875
-0.012187
-0.011816
0.007622
-0.016081
0.005227
-0.010051
0.001607
-0.013833
0.002377
-0.014252
-0.008704
-0.015990
-0.014833
-0.014066
0.006385
-0.012701
-0.011068
0.004017
-0.010881
-0.007619
-0.008257
0.008935
-0.017920
-0.002698
-0.005754
0.001106
-0.018441
-0.016649
-0.017909
0.003103
-0.012041
0.008823
-0.010847
-0.015816
0.007121
-0.015582
0.008579
-0.010312
0.009081
0.005966
-0.000619
-0.003878
-0.007053
-0.001883
-0.011146
0.010422
-0.005850
-0.002614
-0.019616
-0.019172
-0.009813
0.009392
-0.013726
0.000895
-0.016247
0.001806
0.008638
0.006971
-0.015430
-0.015812
0.007580
0.007703
-0.008506
0.002536
0.005675
-0.008990
-0.014378
0.008016
0.000179
-0.017602
-0.017391
-0.017156
-0.014562
0.003874
0.008912
-0.011537
-0.000247
0.006125
-0.007636
0.005701
0.003163
-0.001410
0.006572
-0.015004
-0.012439
0.004447
-0.018046
-0.016712
0.008185
-0.007247
-0.014160
-0.011553
-0.000645
0.007361
0.000010
0.010243
-0.016999
0.010973
-0.001796
-0.007190
0.008375
-0.018367
-0.005130
-0.005031
-0.019431
-0.006671
0.009891
-0.001984
-0.001032
0.010714
-0.018885
-0.007400
0.001878
0.001255
-0.003765
0.002790
0.010607
-0.015406
0.010263
0.006943
0.004011
-0.017741
0.002319
-0.010383
-0.012931
0.005458
0.005041
-0.008812
0.003622
0.000626
-0.013396
0.004732
-0.009462
0.001880
0.005703
-0.017949
-0.010600
-0.016008
0.007979
-0.015321
0.006860
-0.014243
-0.012211
0.005196
0.005853
0.002674
-0.010773
-0.000411
-0.017044
0.003522
0.001065
-0.007014
0.006139
-0.013992
0.009443
-0.001260
-0.005567
-0.006825
-0.001841
-0.015323
-0.016584
-0.008668
0.002022
0.003332
-0.008185
0.008357
0.008776
-0.010281
-0.017293
0.001545
0.001670
-0.002074
0.004950
-0.006430
-0.003952
0.009798
-0.000187
0.008192
-0.018262
-0.005220
0.010085
0.004237
-0.009263
0.006388
-0.014843
-0.012095
0.007842
-0.010579
-0.007865
0.000438
0.005972
0.006224
-0.014405
-0.014665
-0.014147
-0.010977
-0.017495
-0.014069
-0.009634
-0.000855
0.005511
0.006623
-0.015088
-0.016068
-0.017597
-0.002037
-0.002426
0.002298
-0.011283
0.005061
-0.017754
0.003779
-0.011719
0.001348
0.007565
-0.018092
-0.001259
-0.016846
-0.012752
-0.015677
0.010790
-0.018987
-0.011136
-0.017273
-0.003244
0.009447
-0.006374
0.008308
-0.007625
0.010347
-0.018536
-0.003325
-0.016024
0.009103
0.010530
-0.006039
-0.004504
-0.001452
-0.007211
-0.018621
-0.014605
-0.008487
-0.010059
0.005797
0.002493
0.009236
-0.012144
0.003169
-0.012877
-0.013431
0.000984
0.004879
0.000426
-0.008902
0.001270
-0.017396
-0.013791
-0.015773
0.007584
-0.008778
-0.013675
-0.010611
0.003770
0.002849
0.005417
0.001748
0.008161
-0.012408
-0.013810
-0.016994
-0.017474
-0.001863
-0.002261
-0.010273
-0.002462
0.008010
0.007303
-0.011559
-0.017085
-0.004319
-0.013599
-0.009218
-0.010697
-0.000137
0.004613
-0.017818
-0.006186
-0.003051
-0.018359
-0.005411
0.010164
-0.003512
0.008621
-0.011960
-0.008137
-0.009738
-0.010288
0.007987
0.007091
0.000028
0.004055
-0.007240
0.005347
-0.016821
-0.013843
0.002491
-0.015507
-0.015217
0.008196
-0.015449
-0.000626
0.003571
0.006101
-0.014535
-0.007023
-0.011092
-0.017156
0.004995
0.001811
0.004442
0.004880
0.003538
0.002868
0.005664
-0.016160
-0.011995
-0.013358
-0.001054
-0.006626
0.009273
0.009622
0.000437
-0.014353
-0.017441
-0.015127
0.006699
0.005907
-0.000822
0.009980
-0.004586
-0.006995
-0.006232
-0.013907
-0.018804
-0.002232
0.007612
-0.001455
-0.001645
0.001914
-0.016433
-0.004943
0.009721
0.008315
0.008477
-0.015844
-0.015220
0.001688
-0.006797
-0.009437
-0.009236
0.009903
0.009271
0.006755
-0.017146
0.005524
-0.008271
-0.012994
-0.011365
0.002921
-0.008058
0.001385
-0.016823
-0.016932
0.000566
0.000460
0.000922
0.007164
-0.013268
0.006502
-0.014960
0.000125
-0.014682
0.006362
-0.011762
-0.013281
0.004741
0.003306
-0.010698
0.001502
0.007545
-0.006648
0.004088
0.005952
-0.016399
0.008824
-0.005998
0.007554
-0.014841
-0.016456
-0.016021
-0.006193
0.001109
0.003054
-0.004760
0.004452
0.002358
0.001918
-0.002256
0.007575
-0.013198
-0.004785
0.009099
0.009179
0.009543
0.000244
-0.002859
-0.018179
-0.015044
-0.000120
-0.000994
0.000799
0.006057
-0.014516
-0.011802
0.005073
0.005259
-0.010653
-0.013746
0.007180
0.007739
0.008007
-0.010037
0.003296
-0.007587
0.003986
-0.000622
0.003350
-0.014842
0.002654
-0.001223
-0.001658
-0.002056
-0.010864
0.007448
-0.016711
0.005537
0.005767
-0.014207
-0.016851
-0.013968
-0.014591
0.006133
-0.012565
-0.015537
-0.003687
-0.011205
-0.004139
-0.017707
-0.005798
-0.017306
-0.016291
-0.002654
-0.017994
-0.005601
0.007377
-0.000387
-0.001642
-0.010477
0.001525
-0.007431
-0.006801
-0.014424
0.008639
-0.016257
-0.007920
-0.002889
0.002302
-0.017642
-0.006609
0.008482
-0.006418
0.004720
-0.016462
0.007720
-0.015236
-0.008337
-0.013359
-0.011200
-0.008520
-0.013492
-0.012857
-0.012602
0.000793
-0.008783
-0.009201
0.006679
0.006076
-0.014530
-0.009746
0.006172
-0.014326
-0.014046
-0.010332
0.004727
0.002202
-0.001238
-0.010407
-0.006060
0.003263
0.000042
-0.001830
-0.013641
-0.002252
-0.013092
0.001265
-0.016860
-0.007574
0.006768
0.007031
-0.011216
-0.010173
0.003497
-0.014749
0.002647
0.005019
-0.012352
-0.002875
-0.003275
-0.016279
-0.017201
-0.003704
-0.005172
0.008921
0.007210
0.007398
0.007039
-0.017560
-0.008250
0.002114
-0.011964
-0.013152
-0.013911
0.000455
0.005467
0.005585
-0.010052
-0.009466
-0.011545
0.004913
-0.013318
0.007269
0.002123
-0.010618
-0.014929
-0.006965
0.004557
-0.010991
0.001326
-0.004146
0.005661
-0.014092
-0.001571
-0.013419
-0.006415
-0.016381
-0.012951
0.006916
-0.016111
-0.012423
-0.011792
0.006556
-0.001439
-0.015620
-0.015876
0.004099
-0.016538
-0.006008
-0.016579
0.009362
0.003098
0.006571
0.008653
0.000870
-0.014671
0.007866
-0.007700
-0.007231
-0.007876
0.006204
-0.014251
-0.001015
-0.005377
-0.014937
-0.002452
0.002716
-0.004345
0.007357
-0.015659
0.007703
-0.006617
-0.006199
-0.003482
-0.002459
-0.004978
0.008477
0.005337
-0.000501
0.008999
-0.016258
-0.010016
0.003922
-0.000083
-0.009094
0.000879
-0.016151
-0.008961
0.000317
-0.010239
0.000005
-0.011538
-0.010625
0.002894
-0.001796
-0.015530
0.003150
0.006790
-0.013467
0.005771
-0.007659
-0.002839
-0.015466
-0.014379
-0.002022
-0.005808