# vtk DataFile Version 2.0
Test
ASCII
DATASET POLYDATA
POINTS 5510 float
0.000000 0.000000 0.000000
0.080000 0.000000 0.000000
0.080000 0.160000 0.000000
0.000000 0.160000 0.000000
0.035000 0.076250 0.000000
0.046500 0.083750 0.000000
0.002000 0.000000 0.000000
0.004000 0.000000 0.000000
0.006000 0.000000 0.000000
0.008000 0.000000 0.000000
0.010000 0.000000 0.000000
0.012000 0.000000 0.000000
0.014000 0.000000 0.000000
0.016000 0.000000 0.000000
0.018000 0.000000 0.000000
0.020000 0.000000 0.000000
0.022000 0.000000 0.000000
0.024000 0.000000 0.000000
0.026000 0.000000 0.000000
0.028000 0.000000 0.000000
0.030000 0.000000 0.000000
0.032000 0.000000 0.000000
0.034000 0.000000 0.000000
0.036000 0.000000 0.000000
0.038000 0.000000 0.000000
0.040000 0.000000 0.000000
0.042000 0.000000 0.000000
0.044000 0.000000 0.000000
0.046000 0.000000 0.000000
0.048000 0.000000 0.000000
0.050000 0.000000 0.000000
0.052000 0.000000 0.000000
0.054000 0.000000 0.000000
0.056000 0.000000 0.000000
0.058000 0.000000 0.000000
0.060000 0.000000 0.000000
0.062000 0.000000 0.000000
0.064000 0.000000 0.000000
0.066000 0.000000 0.000000
0.068000 0.000000 0.000000
0.070000 0.000000 0.000000
0.072000 0.000000 0.000000
0.074000 0.000000 0.000000
0.076000 0.000000 0.000000
0.078000 0.000000 0.000000
0.080000 0.002000 0.000000
0.080000 0.004000 0.000000
0.080000 0.006000 0.000000
0.080000 0.008000 0.000000
0.080000 0.010000 0.000000
0.080000 0.012000 0.000000
0.080000 0.014000 0.000000
0.080000 0.016000 0.000000
0.080000 0.018000 0.000000
0.080000 0.020000 0.000000
0.080000 0.022000 0.000000
0.080000 0.024000 0.000000
0.080000 0.026000 0.000000
0.080000 0.028000 0.000000
0.080000 0.030000 0.000000
0.080000 0.032000 0.000000
0.080000 0.034000 0.000000
0.080000 0.036000 0.000000
0.080000 0.038000 0.000000
0.080000 0.040000 0.000000
0.080000 0.042000 0.000000
0.080000 0.044000 0.000000
0.080000 0.046000 0.000000
0.080000 0.048000 0.000000
0.080000 0.050000 0.000000
0.080000 0.052000 0.000000
0.080000 0.054000 0.000000
0.080000 0.056000 0.000000
0.080000 0.058000 0.000000
0.080000 0.060000 0.000000
0.080000 0.062000 0.000000
0.080000 0.064000 0.000000
0.080000 0.066000 0.000000
0.080000 0.068000 0.000000
0.080000 0.070000 0.000000
0.080000 0.072000 0.000000
0.080000 0.074000 0.000000
0.080000 0.076000 0.000000
0.080000 0.078000 0.000000
0.080000 0.080000 0.000000
0.080000 0.082000 0.000000
0.080000 0.084000 0.000000
0.080000 0.086000 0.000000
0.080000 0.088000 0.000000
0.080000 0.090000 0.000000
0.080000 0.092000 0.000000
0.080000 0.094000 0.000000
0.080000 0.096000 0.000000
0.080000 0.098000 0.000000
0.080000 0.100000 0.000000
0.080000 0.102000 0.000000
0.080000 0.104000 0.000000
0.080000 0.106000 0.000000
0.080000 0.108000 0.000000
0.080000 0.110000 0.000000
0.080000 0.112000 0.000000
0.080000 0.114000 0.000000
0.080000 0.116000 0.000000
0.080000 0.118000 0.000000
0.080000 0.120000 0.000000
0.080000 0.122000 0.000000
0.080000 0.124000 0.000000
0.080000 0.126000 0.000000
0.080000 0.128000 0.000000
0.080000 0.130000 0.000000
0.080000 0.132000 0.000000
0.080000 0.134000 0.000000
0.080000 0.136000 0.000000
0.080000 0.138000 0.000000
0.080000 0.140000 0.000000
0.080000 0.142000 0.000000
0.080000 0.144000 0.000000
0.080000 0.146000 0.000000
0.080000 0.148000 0.000000
0.080000 0.150000 0.000000
0.080000 0.152000 0.000000
0.080000 0.154000 0.000000
0.080000 0.156000 0.000000
0.080000 0.158000 0.000000
0.078000 0.160000 0.000000
0.076000 0.160000 0.000000
0.074000 0.160000 0.000000
0.072000 0.160000 0.000000
0.070000 0.160000 0.000000
0.068000 0.160000 0.000000
0.066000 0.160000 0.000000
0.064000 0.160000 0.000000
0.062000 0.160000 0.000000
0.060000 0.160000 0.000000
0.058000 0.160000 0.000000
0.056000 0.160000 0.000000
0.054000 0.160000 0.000000
0.052000 0.160000 0.000000
0.050000 0.160000 0.000000
0.048000 0.160000 0.000000
0.046000 0.160000 0.000000
0.044000 0.160000 0.000000
0.042000 0.160000 0.000000
0.040000 0.160000 0.000000
0.038000 0.160000 0.000000
0.036000 0.160000 0.000000
0.034000 0.160000 0.000000
0.032000 0.160000 0.000000
0.030000 0.160000 0.000000
0.028000 0.160000 0.000000
0.026000 0.160000 0.000000
0.024000 0.160000 0.000000
0.022000 0.160000 0.000000
0.020000 0.160000 0.000000
0.018000 0.160000 0.000000
0.016000 0.160000 0.000000
0.014000 0.160000 0.000000
0.012000 0.160000 0.000000
0.010000 0.160000 0.000000
0.008000 0.160000 0.000000
0.006000 0.160000 0.000000
0.004000 0.160000 0.000000
0.002000 0.160000 0.000000
0.000000 0.158000 0.000000
0.000000 0.156000 0.000000
0.000000 0.154000 0.000000
0.000000 0.152000 0.000000
0.000000 0.150000 0.000000
0.000000 0.148000 0.000000
0.000000 0.146000 0.000000
0.000000 0.144000 0.000000
0.000000 0.142000 0.000000
0.000000 0.140000 0.000000
0.000000 0.138000 0.000000
0.000000 0.136000 0.000000
0.000000 0.134000 0.000000
0.000000 0.132000 0.000000
0.000000 0.130000 0.000000
0.000000 0.128000 0.000000
0.000000 0.126000 0.000000
0.000000 0.124000 0.000000
0.000000 0.122000 0.000000
0.000000 0.120000 0.000000
0.000000 0.118000 0.000000
0.000000 0.116000 0.000000
0.000000 0.114000 0.000000
0.000000 0.112000 0.000000
0.000000 0.110000 0.000000
0.000000 0.108000 0.000000
0.000000 0.106000 0.000000
0.000000 0.104000 0.000000
0.000000 0.102000 0.000000
0.000000 0.100000 0.000000
0.000000 0.098000 0.000000
0.000000 0.096000 0.000000
0.000000 0.094000 0.000000
0.000000 0.092000 0.000000
0.000000 0.090000 0.000000
0.000000 0.088000 0.000000
0.000000 0.086000 0.000000
0.000000 0.084000 0.000000
0.000000 0.082000 0.000000
0.000000 0.080000 0.000000
0.000000 0.078000 0.000000
0.000000 0.076000 0.000000
0.000000 0.074000 0.000000
0.000000 0.072000 0.000000
0.000000 0.070000 0.000000
0.000000 0.068000 0.000000
0.000000 0.066000 0.000000
0.000000 0.064000 0.000000
0.000000 0.062000 0.000000
0.000000 0.060000 0.000000
0.000000 0.058000 0.000000
0.000000 0.056000 0.000000
0.000000 0.054000 0.000000
0.000000 0.052000 0.000000
0.000000 0.050000 0.000000
0.000000 0.048000 0.000000
0.000000 0.046000 0.000000
0.000000 0.044000 0.000000
0.000000 0.042000 0.000000
0.000000 0.040000 0.000000
0.000000 0.038000 0.000000
0.000000 0.036000 0.000000
0.000000 0.034000 0.000000
0.000000 0.032000 0.000000
0.000000 0.030000 0.000000
0.000000 0.028000 0.000000
0.000000 0.026000 0.000000
0.000000 0.024000 0.000000
0.000000 0.022000 0.000000
0.000000 0.020000 0.000000
0.000000 0.018000 0.000000
0.000000 0.016000 0.000000
0.000000 0.014000 0.000000
0.000000 0.012000 0.000000
0.000000 0.010000 0.000000
0.000000 0.008000 0.000000
0.000000 0.006000 0.000000
0.000000 0.004000 0.000000
0.000000 0.002000 0.000000
0.035411 0.076518 0.000000
0.035821 0.076786 0.000000
0.036232 0.077054 0.000000
0.036643 0.077321 0.000000
0.037054 0.077589 0.000000
0.037464 0.077857 0.000000
0.037875 0.078125 0.000000
0.038286 0.078393 0.000000
0.038696 0.078661 0.000000
0.039107 0.078929 0.000000
0.039518 0.079196 0.000000
0.039929 0.079464 0.000000
0.040339 0.079732 0.000000
0.040750 0.080000 0.000000
0.041161 0.080268 0.000000
0.041571 0.080536 0.000000
0.041982 0.080804 0.000000
0.042393 0.081071 0.000000
0.042804 0.081339 0.000000
0.043214 0.081607 0.000000
0.043625 0.081875 0.000000
0.044036 0.082143 0.000000
0.044446 0.082411 0.000000
0.044857 0.082679 0.000000
0.045268 0.082946 0.000000
0.045679 0.083214 0.000000
0.046089 0.083482 0.000000
0.040000 0.002000 0.000000
0.040001 0.158005 0.000000
0.002000 0.116000 0.000000
0.078000 0.048000 0.000000
0.002000 0.106000 0.000000
0.078000 0.058000 0.000000
0.001986 0.042173 0.000000
0.078015 0.117826 0.000000
0.001985 0.094174 0.000000
0.001985 0.084174 0.000000
0.001914 0.056074 0.000000
0.002000 0.072000 0.000000
0.078015 0.065826 0.000000
0.078016 0.075826 0.000000
0.078000 0.088000 0.000000
0.078000 0.104000 0.000000
0.078003 0.029997 0.000000
0.001998 0.130002 0.000000
0.002000 0.032000 0.000000
0.078013 0.128003 0.000000
0.056000 0.158000 0.000000
0.026000 0.002000 0.000000
0.060000 0.002000 0.000000
0.020000 0.158000 0.000000
0.002000 0.020000 0.000000
0.078000 0.142000 0.000000
0.002000 0.146000 0.000000
0.078000 0.020000 0.000000
0.016000 0.002000 0.000000
0.068000 0.002000 0.000000
0.066000 0.158000 0.000000
0.002000 0.014000 0.000000
0.008000 0.158000 0.000000
0.010000 0.002000 0.000000
0.078000 0.148000 0.000000
0.078000 0.008000 0.000000
0.078005 0.037995 0.000000
0.051991 0.001990 0.000000
0.028000 0.158000 0.000000
0.002000 0.008000 0.000000
0.078000 0.094000 0.000000
0.078000 0.110000 0.000000
0.001983 0.066159 0.000000
0.002000 0.050000 0.000000
0.046000 0.158000 0.000000
0.078000 0.134000 0.000000
0.002000 0.140000 0.000000
0.006000 0.002000 0.000000
0.002000 0.154000 0.000000
0.074000 0.002000 0.000000
0.078000 0.152000 0.000000
0.074000 0.158000 0.000000
0.078000 0.080000 0.000000
0.078000 0.070000 0.000000
0.078000 0.122000 0.000000
0.002000 0.090000 0.000000
0.002000 0.080000 0.000000
0.002000 0.038000 0.000000
0.002000 0.102000 0.000000
0.002000 0.112000 0.000000
0.036000 0.002000 0.000000
0.078000 0.042000 0.000000
0.032000 0.002000 0.000000
0.047987 0.001989 0.000000
0.032008 0.158010 0.000000
0.002000 0.028000 0.000000
0.002000 0.126000 0.000000
0.060000 0.158000 0.000000
0.022000 0.002000 0.000000
0.002000 0.136000 0.000000
0.078000 0.024000 0.000000
0.012000 0.158000 0.000000
0.078000 0.158000 0.000000
0.001947 0.003947 0.000000
0.002000 0.158000 0.000000
0.078000 0.012000 0.000000
0.078000 0.096000 0.000000
0.078000 0.098000 0.000000
0.078000 0.082000 0.000000
0.078111 0.099889 0.000000
0.078035 0.083965 0.000000
0.078000 0.090000 0.000000
0.078000 0.106000 0.000000
0.078000 0.072000 0.000000
0.078000 0.112000 0.000000
0.078043 0.061976 0.000000
0.078000 0.114000 0.000000
0.002000 0.064000 0.000000
0.002000 0.062000 0.000000
0.002000 0.088000 0.000000
0.002000 0.078000 0.000000
0.002000 0.060000 0.000000
0.001966 0.076034 0.000000
0.002000 0.070000 0.000000
0.002000 0.054000 0.000000
0.001957 0.098024 0.000000
0.002000 0.048000 0.000000
0.002000 0.046000 0.000000
[...]
POINT_DATA 5510
SCALARS UX float 1
LOOKUP_TABLE default
-0.009597
0.007708
0.000000
-0.016953
-0.005911
-0.003059
-0.009163
-0.008728
-0.008293
-0.007858
-0.007424
-0.006989
-0.006555
-0.006121
-0.005688
-0.005255
-0.004823
-0.004390
-0.003959
-0.003527
-0.003096
-0.002666
-0.002235
-0.001805
-0.001375
-0.000945
-0.000515
-0.000085
0.000345
0.000775
0.001206
0.001636
0.002067
0.002499
0.002930
0.003362
0.003795
0.004228
0.004662
0.005096
0.005530
0.005965
0.006400
0.006836
0.007272
0.007621
0.007535
0.007448
0.007362
0.007277
0.007191
0.007106
0.007022
0.006937
0.006853
0.006769
0.006686
0.006604
0.006522
0.006442
0.006362
0.006283
0.006205
0.006128
0.006053
0.005979
0.005905
0.005833
0.005761
0.005691
0.005621
0.005551
0.005482
0.005411
0.005340
0.005268
0.005194
0.005118
0.005040
0.004958
0.004875
0.004786
0.004693
0.004596
0.004493
0.004387
0.004274
0.004155
0.004031
0.003904
0.003771
0.003635
0.003498
0.003360
0.003223
0.003090
0.002961
0.002833
0.002713
0.002598
0.002488
0.002380
0.002278
0.002179
0.002083
0.001990
0.001897
0.001808
0.001720
0.001632
0.001546
0.001460
0.001374
0.001290
0.001205
0.001121
0.001037
0.000953
0.000870
0.000788
0.000706
0.000625
0.000533
0.000375
-0.000002
-0.000459
-0.000909
-0.001354
-0.001794
-0.002233
-0.002670
-0.003106
-0.003541
-0.003975
-0.004409
-0.004842
-0.005275
-0.005707
-0.006139
-0.006570
-0.007001
-0.007432
-0.007862
-0.008293
-0.008723
-0.009154
-0.009584
-0.010015
-0.010445
-0.010876
-0.011308
-0.011739
-0.012171
-0.012604
-0.013037
-0.013470
-0.013904
-0.014338
-0.014773
-0.015209
-0.015644
-0.016081
-0.016517
-0.016866
-0.016780
-0.016694
-0.016608
-0.016523
-0.016437
-0.016353
-0.016268
-0.016185
-0.016101
-0.016018
-0.015936
-0.015854
-0.015773
-0.015693
-0.015614
-0.015536
-0.015458
-0.015382
-0.015307
-0.015232
-0.015159
-0.015086
-0.015014
-0.014943
-0.014872
-0.014801
-0.014730
-0.014658
-0.014585
-0.014511
-0.014435
-0.014358
-0.014277
-0.014194
-0.014109
-0.014019
-0.013926
-0.013828
-0.013726
-0.013621
-0.013510
-0.013393
-0.013271
-0.013148
-0.013018
-0.012886
-0.012752
-0.012618
-0.012484
-0.012353
-0.012225
-0.012098
-0.011979
-0.011863
-0.011749
-0.011643
-0.011540
-0.011440
-0.011342
-0.011247
-0.011153
-0.011063
-0.010973
-0.010885
-0.010797
-0.010710
-0.010624
-0.010539
-0.010453
-0.010368
-0.010283
-0.010198
-0.010113
-0.010027
-0.009942
-0.009856
-0.009770
-0.009684
-0.005797
-0.005686
-0.005533
-0.005383
-0.005265
-0.005179
-0.005085
-0.004982
-0.004914
-0.004814
-0.004727
-0.004658
-0.004564
-0.004470
-0.004358
-0.004249
-0.004144
-0.004036
-0.003939
-0.003870
-0.003793
-0.003719
-0.003629
-0.003545
-0.003441
-0.003323
-0.003209
-0.001030
-0.008207
-0.014719
0.005321
-0.014365
0.004977
-0.011006
0.001746
-0.013939
-0.013512
-0.011799
-0.012841
0.004699
0.004280
0.003601
0.002510
0.006002
-0.015254
-0.010533
0.001282
-0.004756
-0.004045
0.003276
-0.012518
-0.010017
0.000684
-0.015915
0.006415
-0.006208
0.005009
-0.002584
-0.009762
-0.015122
-0.007510
0.000433
0.006926
0.005689
0.001549
-0.010791
-0.009507
0.003195
0.002149
-0.012461
-0.011413
-0.006915
0.001022
-0.015663
-0.008379
-0.016257
0.006313
0.000265
-0.000838
0.004069
0.004533
0.001547
-0.013768
-0.013301
-0.010804
-0.014224
-0.014575
-0.001890
0.005537
-0.002751
0.000688
-0.009928
-0.010359
-0.015095
-0.003889
-0.004909
-0.015497
0.006247
-0.014252
-0.000022
-0.009345
-0.016430
0.006755
0.003055
0.002915
0.003961
0.002809
0.003855
0.003469
0.002385
0.004449
0.002039
0.004847
0.001934
-0.012310
-0.012174
-0.013683
-0.013194
-0.012038
-0.013090
-0.012713
-0.011651
-0.014090
-0.011303
-0.011196
0.005114
0.005469
0.005251
-0.014505
-0.014866
0.001456
-0.010712
-0.000170
-0.009068
-0.007777
0.005844
-0.006484
-0.006053
-0.015018
-0.003182
0.002413
-0.011653
-0.010272
0.001195
0.000937
-0.010187
0.000852
-0.015415
-0.005621
0.006165
-0.015831
-0.003455
-0.005341
0.004142
-0.013384
0.000600
0.006584
-0.016086
-0.009932
-0.009677
-0.002148
-0.006642
-0.001711
0.000182
-0.015993
-0.008846
-0.009323
0.007098
0.005878
0.007185
-0.014149
0.004894
-0.013356
-0.012899
-0.012421
-0.011619
-0.010982
0.003669
0.003182
0.002397
0.004122
0.001618
-0.008115
-0.014584
0.000842
-0.010373
-0.002840
-0.005539
-0.009922
0.000417
-0.004995
-0.015059
0.005810
-0.003804
-0.009496
-0.006294
-0.015478
-0.002067
0.002076
0.005058
-0.009327
-0.000174
0.006227
0.003458
0.002488
0.002768
-0.012691
-0.011748
-0.012020
-0.010776
0.003358
0.003750
0.002669
0.004196
0.004373
0.002286
0.004634
0.001845
-0.012605
-0.013605
-0.012986
-0.013872
-0.011918
-0.013428
-0.011542
-0.011106
0.004774
-0.014016
0.004917
-0.014163
0.005055
0.001666
-0.014304
-0.010925
0.005191
-0.014443
-0.014661
0.005399
-0.014798
0.005616
-0.014945
-0.000604
-0.008634
-0.001463
-0.007344
0.000257
-0.009496
0.001373
-0.010627
0.005766
-0.002322
0.001118
-0.010358
-0.006396
0.001980
-0.011220
-0.015174
-0.010447
0.001109
0.005922
-0.009836
-0.003613
0.000585
-0.005189
0.002844
-0.012085
-0.010103
0.000769
-0.015334
0.006083
-0.015580
-0.004323
-0.004477
-0.015747
0.006331
-0.003020
-0.005774
-0.012950
0.003709
-0.013817
0.004575
0.000516
-0.009847
-0.014686
0.006499
-0.016000
0.000349
0.006669
-0.009592
-0.007076
-0.016171
-0.001274
0.006840
0.000090
-0.007945
-0.009421
-0.015557
-0.008900
0.005443
-0.000409
-0.015906
-0.016343
0.007012
0.006662
0.006749
-0.013764
0.004517
-0.011228
0.000169
0.001968
-0.009487
-0.010279
0.001898
-0.012000
0.003622
0.006233
-0.013731
0.000080
0.005337
-0.001536
-0.014600
-0.015734
0.002946
0.001424
-0.012193
0.004399
0.004217
-0.013640
-0.013456
0.003962
0.003780
-0.013193
-0.013012
0.004661
-0.013911
0.001238
-0.010192
-0.009408
-0.010010
0.005483
0.000673
-0.014739
-0.003700
-0.004563
-0.005861
0.004489
-0.015309
-0.015142
-0.007162
-0.009157
-0.015563
0.006062
0.005893
-0.001200
-0.000263
0.006404
0.006140
0.003052
0.003321
-0.012295
0.002264
-0.012556
0.001542
-0.011483
-0.011121
0.004996
0.004047
-0.013279
-0.010689
-0.010478
-0.014233
-0.014369
0.001836
0.001960
0.004766
0.004831
-0.014018
-0.014084
-0.008562
0.002644
0.003564
-0.014512
-0.011894
-0.012795
0.001730
0.005183
0.005115
-0.010888
-0.010284
0.000936
0.001031
-0.002399
-0.006821
-0.000676
-0.007270
0.000759
-0.014663
-0.011138
-0.005109
-0.003270
0.005644
0.005726
-0.014895
-0.014977
0.000332
0.002759
-0.009752
-0.009580
-0.005967
0.000502
-0.005427
-0.007693
-0.004237
-0.012864
-0.002936
-0.003371
-0.002501
-0.015393
-0.006727
0.005357
-0.009412
-0.009242
-0.008031
0.005791
-0.001633
-0.008466
0.006576
-0.000089
-0.000352
-0.015820
-0.008986
-0.015470
-0.010054
0.004696
-0.013654
0.001102
-0.012615
-0.013071
-0.011911
-0.007572
0.003838
0.003402
0.002630
-0.014091
0.000507
-0.005454
-0.002499
0.005210
0.000068
-0.014460
-0.004650
-0.003288
-0.009145
-0.005946
-0.014872
-0.008807
-0.010714
-0.011097
0.001449
-0.001554
0.002965
-0.012216
-0.010278
0.004599
0.002241
-0.011507
-0.009578
-0.009857
-0.014231
-0.003357
-0.006813
0.000163
-0.015041
-0.000525
0.001827
0.002536
0.001334
-0.011793
0.003872
0.004301
-0.013103
-0.013541
0.004449
-0.013694
-0.014296
0.003168
0.002065
-0.011356
0.004587
-0.013835
-0.010612
-0.012397
0.001306
-0.014433
-0.011339
-0.011150
-0.007161
-0.008452
-0.009832
0.003673
-0.012905
0.005259
-0.013951
-0.010482
0.004699
0.001456
-0.001975
-0.001114
0.000592
0.001127
0.001032
0.005412
-0.010101
0.004424
-0.004670
0.005565
-0.010708
-0.014816
-0.000019
0.000326
-0.006310
-0.004132
-0.009667
-0.013679
-0.013839
0.002328
-0.011568
0.005292
0.005456
-0.009404
-0.014542
-0.014705
-0.004152
-0.002853
0.000238
0.003190
-0.012432
-0.015225
-0.005512
-0.008984
0.005977
-0.008976
0.000248
-0.013297
0.004055
-0.002420
0.004922
0.006147
0.005705
-0.007596
-0.000004
-0.015649
0.006318
-0.008551
-0.014165
0.006054
0.006490
-0.009072
-0.000696
-0.000772
-0.015384
-0.015035
-0.000254
0.001554
-0.013247
-0.011408
-0.010846
0.002175
-0.007110
-0.014029
-0.000102
0.000085
0.004780
-0.009147
-0.010194
0.001813
0.003968
-0.003203
-0.011914
-0.005600
0.005711
0.004170
-0.013211
0.005619
-0.014079
0.001704
-0.013418
0.004907
-0.000367
-0.010992
0.003456
-0.012740
-0.013274
-0.013120
0.004029
0.003883
-0.001621
-0.014383
-0.004588
-0.009233
-0.004220
0.005542
-0.000187
-0.008722
-0.014948
-0.010790
0.003615
-0.012847
-0.010150
0.001098
-0.012102
0.002804
0.001209
-0.013502
0.004244
0.004397
-0.011011
0.004638
-0.013590
-0.013971
-0.013897
-0.014022
0.003271
-0.012494
0.003002
0.000596
0.000820
-0.012252
-0.002075
-0.009323
-0.008870
0.002354
-0.011604
0.003739
-0.012972
0.001679
-0.009953
0.005132
0.004765
-0.010585
0.000944
0.001014
-0.014307
-0.014157
-0.000775
-0.005026
-0.013740
-0.009320
-0.003787
0.000415
-0.002931
-0.010626
-0.009667
-0.009763
0.004482
-0.010383
0.005374
0.002244
-0.005881
0.004980
-0.006734
-0.014622
-0.014789
0.000154
-0.000102
-0.008973
-0.012346
0.003105
-0.009061
-0.005081
0.004836
-0.003720
-0.006380
-0.002771
-0.008892
-0.011054
-0.000272
-0.000441
0.005270
0.005882
0.005968
-0.007682
-0.007247
-0.008637
-0.008117
-0.014957
-0.001987
-0.015127
-0.015298
-0.008030
-0.001124
-0.000610
0.004277
0.003791
-0.012469
-0.012078
-0.010095
-0.010592
0.003239
0.002866
-0.001736
-0.010116
0.001732
-0.011831
-0.004943
-0.003119
-0.014354
-0.008627
-0.013567
-0.000620
-0.009635
-0.003443
0.003989
0.003503
-0.012735
-0.008457
-0.006465
-0.007333
-0.014606
-0.014862
-0.008366
0.002011
0.001455
0.002575
0.002270
-0.011831
-0.011509
-0.011262
0.004201
0.001175
-0.010342
0.004707
-0.000277
0.003033
-0.004306
0.004940
-0.005168
-0.008287
-0.000875
-0.001474
-0.007527
-0.013671
-0.013808
-0.013955
0.001865
0.001588
-0.013504
0.000930
0.000698
-0.011125
0.003951
-0.013192
-0.013171
-0.013043
-0.013340
0.004093
0.004335
0.000914
0.000709
0.003289
-0.012516
-0.010715
-0.006693
-0.006222
-0.009531
-0.008820
-0.000014
0.000178
-0.009333
-0.009761
-0.013278
-0.009891
0.004836
0.001380
-0.004499
0.000515
-0.000189
-0.000353
-0.008889
0.004016
0.004861
-0.002591
-0.013415
-0.014189
-0.014109
-0.009242
0.005626
-0.011482
0.002673
-0.009059
-0.000450
-0.006033
0.005107
-0.004067
-0.003635
-0.005796
0.005053
-0.010542
-0.012778
0.004401
-0.014437
0.003536
-0.008798
-0.000356
0.005184
0.005447
0.005796
-0.002338
-0.013645
-0.001043
0.005533
-0.007767
-0.008202
-0.014513
-0.015212
-0.001199
-0.012246
-0.010878
0.003504
-0.012733
-0.009222
-0.012799
0.003582
-0.011159
-0.012146
0.001787
0.002894
-0.007026
-0.000434
-0.008720
-0.013529
-0.010033
0.004277
-0.000794
-0.005254
0.003019
-0.013921
-0.008319
-0.008459
-0.013125
0.001533
0.000541
-0.012831
-0.012977
0.003589
0.003723
0.003810
-0.006136
-0.004843
0.000293
-0.000860
0.004411
-0.000000
-0.013679
0.004430
-0.011403
-0.006118
-0.000790
0.003882
0.004749
-0.014777
-0.010701
-0.012370
0.003129
0.000634
0.002400
0.002706
-0.011632
-0.009774
-0.011919
-0.012724
0.003486
0.000843
0.004223
0.003898
0.001306
-0.010622
0.000723
-0.010189
-0.010456
-0.011035
-0.009437
0.003375
0.000088
-0.012607
-0.012847
-0.013076
-0.001314
0.004555
-0.013881
0.004630
0.001301
0.001216
-0.009987
-0.000616
0.004344
0.002926
0.000437
-0.008907
-0.013337
-0.013733
-0.010969
-0.003877
-0.000534
0.005191
0.005362
-0.003981
-0.004739
-0.008630
-0.014272
-0.009687
-0.009248
-0.002167
-0.008542
0.004071
-0.003550
-0.000706
0.005023
-0.005369
-0.014521
-0.002688
-0.008712
-0.006899
-0.013559
-0.014427
-0.007418
0.002159
-0.014691
-0.012260
0.005013
0.005098
-0.008372
-0.001392
-0.000959
-0.007853
-0.001906
-0.003017
-0.007948
-0.013605
-0.012141
-0.012411
-0.010418
-0.010784
0.003092
0.001933
-0.012900
0.003656
0.001471
0.002712
0.003857
-0.012473
0.003279
-0.009823
-0.010799
-0.010078
-0.000984
-0.008298
-0.003103
0.001221
-0.013169
-0.003896
0.004676
-0.011745
-0.008194
-0.012524
-0.012384
0.003149
-0.001051
0.004928
-0.013041
-0.014087
-0.011888
0.002704
0.000409
0.003791
0.002511
0.002224
0.002032
0.003407
0.003528
-0.009010
-0.007903
-0.011741
-0.013259
-0.005268
-0.013838
-0.003963
-0.004825
-0.003036
-0.006985
-0.001824
-0.001827
-0.012061
0.002837
-0.011445
-0.010330
0.001641
0.001052
0.000773
-0.009397
-0.009567
-0.012679
0.000515
-0.012738
-0.010229
-0.010380
0.000390
-0.009114
-0.010899
-0.010527
0.003001
-0.006551
-0.000330
-0.012242
0.000254
-0.007445
-0.000111
-0.009183
-0.008739
-0.013386
0.004132
0.001339
-0.005714
-0.000524
0.000865
-0.008547
0.003921
-0.012886
-0.000438
-0.013600
0.003611
-0.013758
0.004351
-0.010890
-0.010458
-0.013016
-0.008837
-0.004410
-0.000703
0.004480
0.002588
-0.012171
0.002944
-0.008109
-0.007504
-0.013457
-0.005687
-0.001138
-0.001309
-0.012690
-0.014003
-0.006550
0.004314
0.005276
-0.000878
-0.009571
0.004511
-0.002257
0.003450
0.004580
-0.014342
-0.008023
-0.008369
0.004665
-0.007938
-0.013992
-0.002675
-0.014256
0.001646
0.004202
-0.009610
-0.010082
0.001590
0.001164
-0.012470
0.003228
0.000533
0.002440
-0.011262
-0.008936
0.003436
-0.012081
0.002838
-0.011713
0.001601
0.002522
0.000971
-0.007777
-0.000744
-0.012976
-0.006074
-0.009529
-0.002761
0.003778
-0.013252
0.001137
-0.004912
-0.001127
-0.008034
-0.013490
0.002747
-0.011979
-0.007762
-0.001485
0.004002
-0.006203
0.002933
0.004495
0.004062
-0.010382
-0.012607
0.004843
-0.007072
-0.007589
-0.013823
0.001220
-0.010924
0.003146
-0.012385
0.002065
-0.009202
0.002084
-0.011509
-0.013089
-0.012305
0.003463
0.003809
-0.012626
-0.009999
0.000923
-0.012395
-0.009997
0.002580
0.003347
-0.000227
0.000155
-0.000014
-0.000099
-0.006544
-0.013324
-0.008236
-0.000567
-0.010554
-0.010657
0.003988
-0.000946
-0.008682
-0.011791
-0.013195
-0.005608
0.000352
-0.012478
0.001431
0.000787
0.002562
-0.011782
0.003199
-0.012009
-0.008422
-0.008660
-0.013104
0.000794
-0.000963
-0.013331
-0.004750
0.003852
-0.012942
-0.003532
0.004593
0.003663
-0.004398
-0.012174
0.004760
-0.004323
0.004228
-0.005342
-0.008282
-0.013572
-0.003465
-0.001741
-0.013473
-0.001304
0.003366
-0.008209
-0.001223
0.002743
-0.009698
-0.011318
-0.002175
-0.002606
-0.013908
-0.014171
0.002072
-0.002252
-0.008819
-0.001405
0.002663
-0.011892
-0.010216
0.000403
-0.006943
0.002368
-0.010382
-0.010202
0.003177
-0.012417
0.002025
-0.009414
0.000185
-0.011338
0.000575
-0.011569
-0.008528
-0.012083
-0.011639
-0.011394
0.002408
-0.010590
-0.009734
0.001229
-0.007743
-0.007990
-0.005948
0.003353
-0.012830
-0.005000
-0.004236
-0.000183
-0.013061
-0.011660
-0.012525
-0.001073
-0.010245
0.002851
-0.009732
-0.012143
0.002822
-0.012064
0.003405
-0.009450
0.003574
0.002335
-0.003621
-0.002952
-0.007853
-0.004485
-0.009864
0.004162
-0.007157
-0.002086
-0.013738
-0.013391
-0.009186
0.003706
-0.011208
-0.000258
-0.012367
0.000183
0.003399
0.002771
-0.012011
-0.012005
0.003026
0.003043
-0.008545
0.000549
0.002195
-0.006447
-0.011543
0.003173
-0.000633
-0.012855
-0.012784
-0.012692
-0.011634
-0.000546
0.003501
-0.008193
-0.000846
0.002410
-0.008124
0.000708
0.000862
-0.001391
0.002610
-0.011831
-0.010443
-0.000153
-0.013040
-0.012500
0.003215
-0.007943
-0.009951
-0.009987
-0.001035
0.002906
-0.003191
0.004082
-0.012622
0.004412
-0.001569
-0.005177
0.002501
-0.013178
-0.003810
-0.006639
-0.013654
-0.007677
0.003924
-0.001655
-0.001217
0.004148
-0.013407
-0.007880
-0.001912
-0.002338
-0.005773
0.000687
0.004246
-0.010807
0.003796
0.001560
0.001297
-0.012911
0.000437
-0.007361
-0.009108
0.002074
0.001847
-0.008680
0.001102
-0.000411
-0.011040
0.001684
-0.009008
0.000203
0.002356
-0.013198
-0.009802
-0.012234
0.002944
-0.011659
0.002565
-0.011383
-0.010257
0.001868
0.002192
0.000527
-0.007710
-0.001039
-0.012472
-0.000746
-0.002427
-0.007575
0.001051
-0.009878
0.003576
-0.001455
-0.004150
-0.007611
-0.001728
-0.011806
-0.012303
-0.006265
0.000199
0.000866
-0.008289
0.003117
0.003285
-0.007332
-0.012564
0.000041
0.000027
-0.004574
0.001755
-0.007426
-0.005859
0.003734
-0.003283
0.002418
-0.012980
-0.006726
0.003717
0.001350
-0.008842
0.002381
-0.011617
-0.010250
0.003090
-0.009591
-0.008115
-0.000502
0.002234
0.002334
-0.011455
-0.011561
-0.011419
-0.009703
-0.012820
-0.011301
-0.006890
-0.001260
0.002021
0.002477
-0.011722
-0.012096
-0.012691
-0.001819
-0.002000
0.000349
-0.009845
0.000269
-0.012757
0.001099
-0.010061
-0.000056
0.001987
-0.012906
-0.004058
-0.012554
-0.009027
-0.011949
0.004329
-0.013307
-0.009891
-0.012088
-0.002518
0.003279
-0.004660
0.003261
-0.005516
0.003982
-0.012954
-0.005429
-0.011231
0.003427
0.004065
-0.007245
-0.003381
-0.001546
-0.007791
-0.013142
-0.010299
-0.008418
-0.009317
0.002250
-0.001491
0.003640
-0.008609
0.000792
-0.010682
-0.011035
-0.000232
0.001760
-0.000584
-0.008625
-0.000174
-0.012820
-0.011229
-0.012042
0.003001
-0.008507
-0.011024
-0.009420
0.001030
0.000540
0.001885
-0.000019
0.002864
-0.010364
-0.009796
-0.012278
-0.012483
-0.001868
-0.004659
-0.009344
-0.002152
0.002336
0.002724
-0.009913
-0.012002
-0.003296
-0.011075
-0.006646
-0.009550
-0.000886
0.001550
-0.012634
-0.004574
-0.002428
-0.012876
-0.006815
0.003899
-0.005515
0.003220
-0.008525
-0.008139
-0.009060
-0.007378
0.003002
0.002656
-0.000818
-0.000379
-0.007690
0.001942
-0.012394
-0.011102
0.000438
-0.011894
-0.011625
0.003044
-0.011708
-0.001146
0.000989
0.002285
-0.011507
-0.007704
-0.009670
-0.012509
0.001758
0.000091
0.001463
0.000186
0.000902
0.000623
0.002094
-0.012122
-0.010138
-0.009443
-0.001356
-0.007518
0.003202
0.003656
-0.002856
-0.011310
-0.012625
-0.011711
0.002491
0.002080
-0.003718
0.003817
-0.006292
-0.005086
-0.007334
-0.011221
-0.013224
-0.001910
0.002823
-0.004150
-0.001637
0.000326
-0.012236
-0.003723
0.003553
0.002929
0.003161
-0.011150
-0.010722
-0.002000
-0.007466
-0.008894
-0.008793
0.003635
0.003500
0.001474
-0.012341
0.000629
-0.008309
-0.010732
-0.008117
-0.001157
-0.005853
-0.000129
-0.012430
-0.012434
-0.000554
-0.000595
-0.000376
0.002742
-0.010902
0.002432
-0.011671
-0.000868
-0.011253
0.002226
-0.009949
-0.010747
0.001558
0.000715
-0.007696
-0.002085
0.002443
-0.007284
-0.000314
0.000966
-0.011869
0.003151
-0.004486
0.002621
-0.011480
-0.012068
-0.011919
-0.007180
-0.000354
0.000645
-0.003639
0.001415
0.000284
0.000063
-0.002054
0.002833
-0.009375
-0.006386
0.003126
0.003310
0.003474
-0.002946
-0.002339
-0.012796
-0.010643
-0.000959
-0.001438
-0.000498
0.002121
-0.011361
-0.010035
0.001720
0.001812
-0.009557
-0.011140
0.002677
0.002699
0.002799
-0.009220
0.000772
-0.007879
0.001146
-0.001227
-0.000823
-0.011324
0.000444
-0.001551
-0.001768
-0.001959
-0.009550
0.002788
-0.012164
0.001932
0.002019
-0.011244
-0.012219
-0.011152
-0.011379
0.002139
-0.008941
-0.011732
-0.002863
-0.009712
-0.005944
-0.012429
-0.006994
-0.012409
-0.012175
-0.002241
-0.012712
-0.006903
0.001901
-0.003378
-0.004236
-0.009364
-0.000139
-0.005425
-0.004994
-0.010217
0.002767
-0.012009
-0.008029
-0.005089
-0.001580
-0.012555
-0.007379
0.003002
-0.007166
0.000121
-0.011574
0.002860
-0.011672
-0.008239
-0.010940
-0.008044
-0.006202
-0.010930
-0.010616
-0.010472
-0.000432
-0.008471
-0.008693
0.002407
0.002160
-0.011397
-0.007008
0.002060
-0.010982
-0.011038
-0.009199
0.001468
0.000132
-0.001642
-0.007533
-0.006881
-0.000838
-0.003043
-0.004323
-0.009722
-0.002175
-0.010649
-0.000351
-0.012061
-0.007753
0.002358
0.002427
-0.009648
-0.009193
0.000819
-0.011337
0.000360
0.001606
-0.010276
-0.002475
-0.002665
-0.011491
-0.012210
-0.005605
-0.006567
0.003047
0.001830
0.002383
0.002257
-0.012371
-0.008142
-0.001666
-0.010060
-0.010760
-0.011010
-0.000707
0.001781
0.001796
-0.009154
-0.008835
-0.009830
0.001640
-0.010842
0.002469
0.000166
-0.009349
-0.011504
-0.007467
0.001457
-0.009535
-0.000241
-0.003219
0.001980
-0.011200
-0.001826
-0.010808
-0.007287
-0.012054
-0.010654
0.002420
-0.011752
-0.008885
-0.008452
0.002284
-0.001659
-0.011752
-0.011856
0.001198
-0.011923
-0.007095
-0.012113
0.003392
0.000602
0.001391
0.003076
-0.002518
-0.011398
0.002743
-0.007916
-0.005329
-0.005770
0.002152
-0.010141
-0.003807
-0.004061
-0.011354
-0.004748
-0.001256
-0.006043
0.002567
-0.011065
0.002510
-0.004909
-0.007056
-0.002765
-0.002276
-0.006476
0.002699
0.000543
-0.001185
0.003230
-0.011813
-0.009051
-0.000385
-0.000971
-0.006607
-0.000476
-0.011974
-0.008562
-0.000771
-0.007381
-0.001016
-0.009769
-0.009277
0.000430