# vtk DataFile Version 2.0
Test
ASCII
DATASET POLYDATA
POINTS 5510 float
0.000000 0.000000 0.000000
0.080000 0.000000 0.000000
0.080000 0.160000 0.000000
0.000000 0.160000 0.000000
0.035000 0.076250 0.000000
0.046500 0.083750 0.000000
0.002000 0.000000 0.000000
0.004000 0.000000 0.000000
0.006000 0.000000 0.000000
0.008000 0.000000 0.000000
0.010000 0.000000 0.000000
0.012000 0.000000 0.000000
0.014000 0.000000 0.000000
0.016000 0.000000 0.000000
0.018000 0.000000 0.000000
0.020000 0.000000 0.000000
0.022000 0.000000 0.000000
0.024000 0.000000 0.000000
0.026000 0.000000 0.000000
0.028000 0.000000 0.000000
0.030000 0.000000 0.000000
0.032000 0.000000 0.000000
0.034000 0.000000 0.000000
0.036000 0.000000 0.000000
0.038000 0.000000 0.000000
0.040000 0.000000 0.000000
0.042000 0.000000 0.000000
0.044000 0.000000 0.000000
0.046000 0.000000 0.000000
0.048000 0.000000 0.000000
0.050000 0.000000 0.000000
0.052000 0.000000 0.000000
0.054000 0.000000 0.000000
0.056000 0.000000 0.000000
0.058000 0.000000 0.000000
0.060000 0.000000 0.000000
0.062000 0.000000 0.000000
0.064000 0.000000 0.000000
0.066000 0.000000 0.000000
0.068000 0.000000 0.000000
0.070000 0.000000 0.000000
0.072000 0.000000 0.000000
0.074000 0.000000 0.000000
0.076000 0.000000 0.000000
0.078000 0.000000 0.000000
0.080000 0.002000 0.000000
0.080000 0.004000 0.000000
0.080000 0.006000 0.000000
0.080000 0.008000 0.000000
0.080000 0.010000 0.000000
0.080000 0.012000 0.000000
0.080000 0.014000 0.000000
0.080000 0.016000 0.000000
0.080000 0.018000 0.000000
0.080000 0.020000 0.000000
0.080000 0.022000 0.000000
0.080000 0.024000 0.000000
0.080000 0.026000 0.000000
0.080000 0.028000 0.000000
0.080000 0.030000 0.000000
0.080000 0.032000 0.000000
0.080000 0.034000 0.000000
0.080000 0.036000 0.000000
0.080000 0.038000 0.000000
0.080000 0.040000 0.000000
0.080000 0.042000 0.000000
0.080000 0.044000 0.000000
0.080000 0.046000 0.000000
0.080000 0.048000 0.000000
0.080000 0.050000 0.000000
0.080000 0.052000 0.000000
0.080000 0.054000 0.000000
0.080000 0.056000 0.000000
0.080000 0.058000 0.000000
0.080000 0.060000 0.000000
0.080000 0.062000 0.000000
0.080000 0.064000 0.000000
0.080000 0.066000 0.000000
0.080000 0.068000 0.000000
0.080000 0.070000 0.000000
0.080000 0.072000 0.000000
0.080000 0.074000 0.000000
0.080000 0.076000 0.000000
0.080000 0.078000 0.000000
0.080000 0.080000 0.000000
0.080000 0.082000 0.000000
0.080000 0.084000 0.000000
0.080000 0.086000 0.000000
0.080000 0.088000 0.000000
0.080000 0.090000 0.000000
0.080000 0.092000 0.000000
0.080000 0.094000 0.000000
0.080000 0.096000 0.000000
0.080000 0.098000 0.000000
0.080000 0.100000 0.000000
0.080000 0.102000 0.000000
0.080000 0.104000 0.000000
0.080000 0.106000 0.000000
0.080000 0.108000 0.000000
0.080000 0.110000 0.000000
0.080000 0.112000 0.000000
0.080000 0.114000 0.000000
0.080000 0.116000 0.000000
0.080000 0.118000 0.000000
0.080000 0.120000 0.000000
0.080000 0.122000 0.000000
0.080000 0.124000 0.000000
0.080000 0.126000 0.000000
0.080000 0.128000 0.000000
0.080000 0.130000 0.000000
0.080000 0.132000 0.000000
0.080000 0.134000 0.000000
0.080000 0.136000 0.000000
0.080000 0.138000 0.000000
0.080000 0.140000 0.000000
0.080000 0.142000 0.000000
0.080000 0.144000 0.000000
0.080000 0.146000 0.000000
0.080000 0.148000 0.000000
0.080000 0.150000 0.000000
0.080000 0.152000 0.000000
0.080000 0.154000 0.000000
0.080000 0.156000 0.000000
0.080000 0.158000 0.000000
0.078000 0.160000 0.000000
0.076000 0.160000 0.000000
0.074000 0.160000 0.000000
0.072000 0.160000 0.000000
0.070000 0.160000 0.000000
0.068000 0.160000 0.000000
0.066000 0.160000 0.000000
0.064000 0.160000 0.000000
0.062000 0.160000 0.000000
0.060000 0.160000 0.000000
0.058000 0.160000 0.000000
0.056000 0.160000 0.000000
0.054000 0.160000 0.000000
0.052000 0.160000 0.000000
0.050000 0.160000 0.000000
0.048000 0.160000 0.000000
0.046000 0.160000 0.000000
0.044000 0.160000 0.000000
0.042000 0.160000 0.000000
0.040000 0.160000 0.000000
0.038000 0.160000 0.000000
0.036000 0.160000 0.000000
0.034000 0.160000 0.000000
0.032000 0.160000 0.000000
0.030000 0.160000 0.000000
0.028000 0.160000 0.000000
0.026000 0.160000 0.000000
0.024000 0.160000 0.000000
0.022000 0.160000 0.000000
0.020000 0.160000 0.000000
0.018000 0.160000 0.000000
0.016000 0.160000 0.000000
0.014000 0.160000 0.000000
0.012000 0.160000 0.000000
0.010000 0.160000 0.000000
0.008000 0.160000 0.000000
0.006000 0.160000 0.000000
0.004000 0.160000 0.000000
0.002000 0.160000 0.000000
0.000000 0.158000 0.000000
0.000000 0.156000 0.000000
0.000000 0.154000 0.000000
0.000000 0.152000 0.000000
0.000000 0.150000 0.000000
0.000000 0.148000 0.000000
0.000000 0.146000 0.000000
0.000000 0.144000 0.000000
0.000000 0.142000 0.000000
0.000000 0.140000 0.000000
0.000000 0.138000 0.000000
0.000000 0.136000 0.000000
0.000000 0.134000 0.000000
0.000000 0.132000 0.000000
0.000000 0.130000 0.000000
0.000000 0.128000 0.000000
0.000000 0.126000 0.000000
0.000000 0.124000 0.000000
0.000000 0.122000 0.000000
0.000000 0.120000 0.000000
0.000000 0.118000 0.000000
0.000000 0.116000 0.000000
0.000000 0.114000 0.000000
0.000000 0.112000 0.000000
0.000000 0.110000 0.000000
0.000000 0.108000 0.000000
0.000000 0.106000 0.000000
0.000000 0.104000 0.000000
0.000000 0.102000 0.000000
0.000000 0.100000 0.000000
0.000000 0.098000 0.000000
0.000000 0.096000 0.000000
0.000000 0.094000 0.000000
0.000000 0.092000 0.000000
0.000000 0.090000 0.000000
0.000000 0.088000 0.000000
0.000000 0.086000 0.000000
0.000000 0.084000 0.000000
0.000000 0.082000 0.000000
0.000000 0.080000 0.000000
0.000000 0.078000 0.000000
0.000000 0.076000 0.000000
0.000000 0.074000 0.000000
0.000000 0.072000 0.000000
0.000000 0.070000 0.000000
0.000000 0.068000 0.000000
0.000000 0.066000 0.000000
0.000000 0.064000 0.000000
0.000000 0.062000 0.000000
0.000000 0.060000 0.000000
0.000000 0.058000 0.000000
0.000000 0.056000 0.000000
0.000000 0.054000 0.000000
0.000000 0.052000 0.000000
0.000000 0.050000 0.000000
0.000000 0.048000 0.000000
0.000000 0.046000 0.000000
0.000000 0.044000 0.000000
0.000000 0.042000 0.000000
0.000000 0.040000 0.000000
0.000000 0.038000 0.000000
0.000000 0.036000 0.000000
0.000000 0.034000 0.000000
0.000000 0.032000 0.000000
0.000000 0.030000 0.000000
0.000000 0.028000 0.000000
0.000000 0.026000 0.000000
0.000000 0.024000 0.000000
0.000000 0.022000 0.000000
0.000000 0.020000 0.000000
0.000000 0.018000 0.000000
0.000000 0.016000 0.000000
0.000000 0.014000 0.000000
0.000000 0.012000 0.000000
0.000000 0.010000 0.000000
0.000000 0.008000 0.000000
0.000000 0.006000 0.000000
0.000000 0.004000 0.000000
0.000000 0.002000 0.000000
0.035411 0.076518 0.000000
0.035821 0.076786 0.000000
0.036232 0.077054 0.000000
0.036643 0.077321 0.000000
0.037054 0.077589 0.000000
0.037464 0.077857 0.000000
0.037875 0.078125 0.000000
0.038286 0.078393 0.000000
0.038696 0.078661 0.000000
0.039107 0.078929 0.000000
0.039518 0.079196 0.000000
0.039929 0.079464 0.000000
0.040339 0.079732 0.000000
0.040750 0.080000 0.000000
0.041161 0.080268 0.000000
0.041571 0.080536 0.000000
0.041982 0.080804 0.000000
0.042393 0.081071 0.000000
0.042804 0.081339 0.000000
0.043214 0.081607 0.000000
0.043625 0.081875 0.000000
0.044036 0.082143 0.000000
0.044446 0.082411 0.000000
0.044857 0.082679 0.000000
0.045268 0.082946 0.000000
0.045679 0.083214 0.000000
0.046089 0.083482 0.000000
0.040000 0.002000 0.000000
0.040001 0.158005 0.000000
0.002000 0.116000 0.000000
0.078000 0.048000 0.000000
0.002000 0.106000 0.000000
0.078000 0.058000 0.000000
0.001986 0.042173 0.000000
0.078015 0.117826 0.000000
0.001985 0.094174 0.000000
0.001985 0.084174 0.000000
0.001914 0.056074 0.000000
0.002000 0.072000 0.000000
0.078015 0.065826 0.000000
0.078016 0.075826 0.000000
0.078000 0.088000 0.000000
0.078000 0.104000 0.000000
0.078003 0.029997 0.000000
0.001998 0.130002 0.000000
0.002000 0.032000 0.000000
0.078013 0.128003 0.000000
0.056000 0.158000 0.000000
0.026000 0.002000 0.000000
0.060000 0.002000 0.000000
0.020000 0.158000 0.000000
0.002000 0.020000 0.000000
0.078000 0.142000 0.000000
0.002000 0.146000 0.000000
0.078000 0.020000 0.000000
0.016000 0.002000 0.000000
0.068000 0.002000 0.000000
0.066000 0.158000 0.000000
0.002000 0.014000 0.000000
0.008000 0.158000 0.000000
0.010000 0.002000 0.000000
0.078000 0.148000 0.000000
0.078000 0.008000 0.000000
0.078005 0.037995 0.000000
0.051991 0.001990 0.000000
0.028000 0.158000 0.000000
0.002000 0.008000 0.000000
0.078000 0.094000 0.000000
0.078000 0.110000 0.000000
0.001983 0.066159 0.000000
0.002000 0.050000 0.000000
0.046000 0.158000 0.000000
0.078000 0.134000 0.000000
0.002000 0.140000 0.000000
0.006000 0.002000 0.000000
0.002000 0.154000 0.000000
0.074000 0.002000 0.000000
0.078000 0.152000 0.000000
0.074000 0.158000 0.000000
0.078000 0.080000 0.000000
0.078000 0.070000 0.000000
0.078000 0.122000 0.000000
0.002000 0.090000 0.000000
0.002000 0.080000 0.000000
0.002000 0.038000 0.000000
0.002000 0.102000 0.000000
0.002000 0.112000 0.000000
0.036000 0.002000 0.000000
0.078000 0.042000 0.000000
0.032000 0.002000 0.000000
0.047987 0.001989 0.000000
0.032008 0.158010 0.000000
0.002000 0.028000 0.000000
0.002000 0.126000 0.000000
0.060000 0.158000 0.000000
0.022000 0.002000 0.000000
0.002000 0.136000 0.000000
0.078000 0.024000 0.000000
0.012000 0.158000 0.000000
0.078000 0.158000 0.000000
0.001947 0.003947 0.000000
0.002000 0.158000 0.000000
0.078000 0.012000 0.000000
0.078000 0.096000 0.000000
0.078000 0.098000 0.000000
0.078000 0.082000 0.000000
0.078111 0.099889 0.000000
0.078035 0.083965 0.000000
0.078000 0.090000 0.000000
0.078000 0.106000 0.000000
0.078000 0.072000 0.000000
0.078000 0.112000 0.000000
0.078043 0.061976 0.000000
0.078000 0.114000 0.000000
0.002000 0.064000 0.000000
0.002000 0.062000 0.000000
0.002000 0.088000 0.000000
0.002000 0.078000 0.000000
0.002000 0.060000 0.000000
0.001966 0.076034 0.000000
0.002000 0.070000 0.000000
0.002000 0.054000 0.000000
0.001957 0.098024 0.000000
0.002000 0.048000 0.000000
0.002000 0.046000 0.000000
[...]
POINT_DATA 5510
SCALARS UX float 1
LOOKUP_TABLE default
0.048093
0.155736
0.000005
-0.105673
0.020002
0.031683
0.050794
0.053495
0.056196
0.058898
0.061601
0.064306
0.067013
0.069721
0.072432
0.075143
0.077855
0.080567
0.083275
0.085980
0.088678
0.091371
0.094058
0.096741
0.099417
0.102087
0.104752
0.107411
0.110065
0.112717
0.115367
0.118015
0.120664
0.123313
0.125965
0.128621
0.131284
0.133953
0.136633
0.139319
0.142015
0.144725
0.147454
0.150206
0.152962
0.153920
0.152139
0.150400
0.148659
0.146981
0.145303
0.143676
0.142049
0.140434
0.138823
0.137217
0.135629
0.134039
0.132438
0.130827
0.129203
0.127559
0.125893
0.124201
0.122482
0.120731
0.118989
0.117222
0.115438
0.113661
0.111845
0.110020
0.108191
0.106363
0.104534
0.102705
0.100877
0.099049
0.097220
0.095387
0.093553
0.091714
0.089874
0.088032
0.086186
0.084341
0.082492
0.080643
0.078796
0.076956
0.075094
0.073201
0.071269
0.069064
0.066002
0.062814
0.059274
0.055640
0.052261
0.049256
0.046627
0.044085
0.042051
0.040063
0.038168
0.036336
0.034507
0.032700
0.030891
0.029082
0.027274
0.025465
0.023657
0.021850
0.020048
0.018248
0.016449
0.014660
0.012872
0.011076
0.009288
0.007432
0.005420
0.002993
-0.000040
-0.002673
-0.005465
-0.008258
-0.011000
-0.013743
-0.016500
-0.019247
-0.021983
-0.024717
-0.027442
-0.030162
-0.032877
-0.035589
-0.038298
-0.040996
-0.043688
-0.046376
-0.049057
-0.051732
-0.054403
-0.057069
-0.059730
-0.062388
-0.065046
-0.067702
-0.070359
-0.073017
-0.075677
-0.078341
-0.081014
-0.083696
-0.086389
-0.089093
-0.091805
-0.094533
-0.097285
-0.100070
-0.102858
-0.103835
-0.102050
-0.100258
-0.098560
-0.096873
-0.095201
-0.093569
-0.091948
-0.090329
-0.088718
-0.087115
-0.085515
-0.083913
-0.082295
-0.080662
-0.079010
-0.077329
-0.075657
-0.073957
-0.072252
-0.070531
-0.068802
-0.067058
-0.065298
-0.063544
-0.061758
-0.059965
-0.058165
-0.056363
-0.054555
-0.052743
-0.050926
-0.049107
-0.047283
-0.045452
-0.043621
-0.041784
-0.039945
-0.038103
-0.036258
-0.034414
-0.032563
-0.030714
-0.028865
-0.027027
-0.025166
-0.023283
-0.021327
-0.019265
-0.016444
-0.013383
-0.010184
-0.006796
-0.003316
-0.000053
0.003076
0.005397
0.007573
0.009680
0.011677
0.013581
0.015460
0.017271
0.019081
0.020892
0.022705
0.024517
0.026332
0.028146
0.029960
0.031775
0.033590
0.035404
0.037217
0.039030
0.040843
0.042656
0.044468
0.046280
0.020421
0.020871
0.021494
0.022090
0.022571
0.022929
0.023307
0.023723
0.024011
0.024428
0.024789
0.025091
0.025479
0.025868
0.026314
0.026743
0.027198
0.027628
0.028036
0.028404
0.028758
0.029076
0.029452
0.029812
0.030241
0.030711
0.031139
0.100293
-0.049938
-0.066052
0.112717
-0.057299
0.103684
0.012371
0.037427
-0.046619
-0.037453
-0.006844
-0.026210
0.096552
0.087377
0.076138
0.055433
0.127877
-0.077738
0.021804
0.028183
-0.028334
0.081455
0.126847
-0.076560
0.032667
0.015528
-0.090651
0.135905
0.067904
0.137524
-0.014678
0.038107
-0.092706
0.059788
0.010116
0.145843
0.121351
0.116239
-0.065922
0.043544
0.070511
0.045920
-0.020753
0.003593
-0.041878
0.022748
-0.085782
0.054384
-0.097419
0.145624
0.006466
-0.003823
0.083513
0.092711
0.033582
-0.042783
-0.033591
0.016375
-0.053702
-0.062606
0.094937
0.117950
0.089562
0.110932
-0.060604
0.025419
-0.074471
-0.022881
0.076034
-0.082564
0.132672
-0.087283
0.000630
0.047146
-0.100977
0.142458
0.068426
0.065707
0.081668
0.062877
0.079902
0.074288
0.051923
0.090874
0.043367
0.100108
0.041162
-0.018562
-0.016017
-0.040948
-0.031746
-0.013078
-0.029974
-0.024359
-0.003045
-0.050158
0.006200
0.008427
0.107331
0.116249
0.110932
-0.060846
-0.069451
0.031775
0.018194
0.105626
-0.055279
-0.047256
0.124655
-0.039181
-0.036476
-0.072803
0.086867
0.121542
-0.071238
0.027230
0.026375
0.020940
0.029043
0.019135
-0.080957
-0.033767
0.131077
-0.089029
-0.020150
0.073324
0.132170
-0.081902
0.013726
0.139162
-0.094004
0.034480
0.039920
-0.011932
0.065197
-0.009217
0.004605
-0.098188
0.051602
0.048794
0.149317
0.142911
0.151109
-0.059915
0.109999
-0.040147
-0.031016
-0.023580
-0.009937
0.006858
0.080939
0.073510
0.059299
0.090071
0.040569
-0.048113
-0.069983
0.025448
0.019083
0.087743
-0.031975
0.028135
0.016431
0.074219
-0.079618
0.129740
-0.021062
0.037185
0.066092
-0.087789
-0.010222
0.051645
0.113589
0.040811
0.003654
0.143819
0.077403
0.062656
0.067765
-0.027477
-0.013058
-0.017876
0.011169
0.072670
0.078233
0.059568
0.085672
0.089139
0.049107
0.094857
0.039277
-0.022747
-0.039210
-0.028302
-0.044924
-0.010031
-0.035746
0.000220
0.010418
0.098294
-0.048354
0.101942
-0.051978
0.105591
0.035800
-0.055581
0.014086
0.109214
-0.059153
-0.064547
0.114528
-0.067806
0.119689
-0.071162
0.102954
-0.052600
0.097612
-0.044562
0.108275
-0.057936
0.030021
0.019952
0.123017
0.092247
0.113584
-0.063259
-0.037352
0.118888
-0.068577
-0.076111
0.023596
0.024568
0.126268
0.029945
0.084162
0.020032
-0.031052
0.124191
-0.073896
0.030850
0.017335
-0.079350
0.129475
-0.084169
-0.025611
0.078745
-0.087404
0.134280
-0.017415
0.070613
-0.079227
0.129504
-0.084586
0.134841
0.011922
0.036294
-0.089991
0.137523
-0.092317
0.008305
0.140798
0.041732
0.062492
-0.095693
-0.006512
0.144122
0.002659
0.057085
0.045357
-0.095437
0.049870
0.140212
-0.001364
-0.096367
-0.099166
0.147558
0.146547
0.148352
-0.049775
0.099729
-0.007084
0.106492
0.056299
0.030847
-0.061528
0.117144
-0.072124
0.127730
0.137954
-0.082798
0.009192
0.120183
0.095911
-0.088182
-0.092868
0.069848
0.036577
-0.019922
0.096007
0.092014
-0.046075
-0.042062
0.086459
0.082841
-0.036536
-0.032889
0.103259
-0.053264
0.032820
0.022676
-0.056149
0.026324
0.123310
0.021857
-0.073208
0.082348
0.076927
0.068799
0.133060
-0.084493
-0.081235
0.060679
0.044434
-0.089464
0.134648
0.131360
-0.004941
0.001735
0.141330
0.142036
0.071605
0.075252
-0.021666
0.055389
-0.025320
0.038795
-0.006446
0.003999
0.111795
0.088263
-0.038336
0.013281
0.017189
-0.061692
-0.065019
0.045198
0.048291
0.106489
0.108210
-0.056455
-0.058146
-0.050905
0.065493
0.079206
-0.068333
-0.015662
-0.029280
0.042896
0.116880
0.115240
0.008973
0.020861
0.027273
0.111809
0.090512
-0.040026
0.101259
-0.042844
0.023669
-0.071622
-0.066818
-0.029272
0.085045
0.126513
0.128120
-0.076394
-0.078006
0.014618
0.122428
0.031740
0.035375
-0.034665
0.018238
0.071514
-0.045483
-0.023785
-0.077449
-0.015614
-0.018343
-0.012896
-0.086122
0.063385
0.138417
0.038996
0.042622
0.055274
0.141111
-0.007573
0.052572
0.144775
0.005533
-0.000167
-0.094601
0.048058
-0.093618
0.019872
0.112551
-0.054442
0.035666
-0.030331
-0.039587
-0.019470
-0.043477
0.089530
0.080352
0.069179
-0.065644
0.024598
-0.030165
0.088628
0.123593
0.015541
-0.073467
0.075113
-0.016561
0.038085
0.066991
-0.081597
0.045325
0.007112
-0.003860
0.042683
-0.005987
0.073423
-0.023581
0.015729
0.109336
0.062680
-0.012948
0.029033
0.023531
-0.068738
0.083235
0.061575
0.011004
-0.084942
0.002757
0.051823
0.067326
0.040046
-0.017466
0.084721
0.093945
-0.034795
-0.044013
0.097876
-0.047934
-0.063386
0.076657
0.059202
-0.010003
0.101568
-0.051594
0.015127
-0.026728
0.034389
-0.066567
-0.002411
0.001928
-0.040905
-0.048975
-0.058761
0.086070
-0.036142
0.118551
-0.054766
0.011665
0.104776
0.114424
0.093155
0.098527
0.109098
0.030952
0.029131
0.121767
0.024488
0.105789
-0.026510
0.124927
-0.064172
-0.074801
0.013713
0.020981
-0.035544
0.079631
0.033544
-0.055761
-0.059074
0.119786
-0.069470
0.125216
0.128469
0.032631
-0.075081
-0.078320
-0.021976
-0.013862
0.019137
0.125080
-0.074786
-0.082861
0.069708
-0.053511
0.132999
0.041704
0.012814
-0.080120
0.130390
-0.011209
0.135734
0.136286
0.139328
0.057976
0.007369
-0.091150
0.139631
0.050760
-0.085482
0.140282
0.143034
0.046246
-0.001010
-0.002511
-0.091834
-0.090892
0.103861
0.045379
-0.051824
-0.015297
-0.004026
0.065380
-0.039342
-0.070580
0.018268
0.104725
0.120718
0.031719
-0.059753
0.115374
0.128619
-0.014826
-0.070348
0.067890
0.133456
0.098511
-0.078343
0.137564
-0.083703
0.056183
-0.048559
0.117304
0.012819
-0.000474
0.081601
-0.032029
-0.044920
-0.040827
0.094845
0.090765
0.094123
-0.071900
-0.024719
0.036247
0.077812
0.130123
0.010107
0.047136
-0.089103
0.004902
0.084575
-0.034663
0.018115
0.040394
-0.022056
0.071451
0.037740
-0.050745
0.100688
0.104451
-0.007860
0.110916
-0.052979
-0.062402
-0.060562
-0.064088
0.078292
-0.028463
0.074617
0.026367
0.030301
-0.024723
0.091274
-0.054373
-0.051567
0.064920
-0.015042
0.087703
-0.037778
0.048397
0.021718
0.121980
0.114160
0.009554
0.110026
0.033965
-0.070309
-0.067181
0.099397
-0.027477
-0.057346
0.034422
0.080533
0.022792
0.085904
-0.062413
0.027239
0.025339
0.107383
0.013652
0.126835
0.118022
-0.032854
0.118857
-0.038218
-0.076692
-0.079956
0.017353
0.011916
0.035313
-0.073010
0.123310
0.039887
0.072409
0.133954
-0.019267
0.064280
-0.012185
0.043510
-0.065051
0.008282
0.004624
0.136636
0.136846
0.138555
0.056166
0.058872
0.048948
0.053462
-0.083268
-0.008591
-0.086649
-0.090081
-0.046337
-0.003510
0.000864
0.109825
0.096561
-0.032269
-0.024975
0.014062
-0.003842
0.082200
0.075032
0.092147
-0.058019
0.113625
-0.068586
-0.025693
-0.013150
-0.077093
0.042586
-0.060026
0.007408
0.022525
0.081431
0.101822
0.087447
-0.037498
0.046217
0.062476
0.057061
-0.082150
-0.087335
-0.047188
0.062957
0.048186
0.070909
0.066719
-0.021180
-0.017021
-0.013123
0.106775
0.042451
0.009859
0.119167
0.014646
0.078074
0.076008
0.123972
0.070594
0.049840
0.001875
-0.004442
-0.041942
-0.062894
-0.065919
-0.069020
0.059162
0.053162
-0.058324
0.037884
0.033544
-0.010422
0.092517
-0.042589
-0.049918
-0.046651
-0.046636
0.096571
0.103074
0.032203
0.028368
0.083773
-0.033836
-0.000619
-0.036718
-0.033734
0.024371
-0.050008
0.020038
0.023759
0.028099
-0.057083
-0.053265
0.017940
0.115753
0.112713
-0.022897
0.107379
0.016472
0.102004
0.037094
0.103209
0.122349
0.086790
-0.056425
-0.073807
-0.072192
0.029896
0.131781
-0.067692
0.120664
0.033517
0.011029
0.065181
0.127274
-0.020191
-0.017494
-0.031059
0.120396
-0.060645
-0.075670
0.131280
-0.078764
0.125960
0.038968
0.006465
0.134870
0.134093
0.135145
-0.009575
-0.081021
-0.001859
0.135821
0.054355
0.051651
-0.086392
-0.088353
0.096744
-0.027998
0.002517
0.082711
-0.032787
0.025150
-0.047908
0.099284
-0.014611
-0.030450
0.062620
0.080186
-0.037573
0.017419
0.034389
-0.066180
-0.056253
0.116286
0.010148
0.068790
0.121541
-0.074278
-0.045653
0.039797
-0.076567
0.056792
0.029420
-0.040961
-0.044824
0.090886
0.094679
0.097885
-0.031944
-0.023823
0.025660
0.097613
0.112899
0.102949
-0.069329
0.119509
-0.065957
0.063378
0.003735
0.126849
0.132188
-0.085589
-0.006550
-0.030561
0.080412
0.031917
0.068971
0.073185
-0.018860
0.020731
-0.023073
-0.038722
0.088648
0.035915
0.108220
0.099715
0.045232
0.002289
0.037813
0.012106
-0.000863
-0.012782
0.026135
0.085511
0.022001
-0.035575
-0.049414
-0.048082
0.094780
0.116021
-0.067481
0.117572
0.110978
0.049985
0.016167
0.013775
0.111362
0.076399
0.105648
0.030863
-0.054798
-0.064349
-0.063279
0.078702
0.009234
0.128970
0.132381
-0.018437
0.073288
0.036203
-0.075446
-0.055372
-0.052657
0.089440
0.044393
0.104736
-0.015779
0.005572
0.125621
-0.028371
-0.080447
-0.010542
0.040776
0.059765
-0.079245
-0.084623
0.055251
0.116256
-0.083863
-0.071234
0.131372
0.133117
0.048027
-0.002717
-0.000000
0.052545
-0.006983
0.084106
-0.044574
-0.061388
-0.026324
-0.029982
0.007990
-0.008566
0.079367
0.061086
-0.042945
0.092873
0.049941
0.072442
0.107026
-0.046081
0.090880
0.014653
-0.012200
0.002776
0.095594
0.037046
0.082311
0.109236
-0.057578
-0.016729
0.124512
-0.066809
0.045289
-0.040950
-0.035415
0.085341
0.004711
0.129644
-0.074803
-0.077671
-0.025740
0.075990
0.032849
0.104075
0.072733
0.068629
0.065181
0.094247
0.097752
0.029093
-0.043050
-0.022831
-0.060177
-0.026487
-0.072604
0.076900
0.071484
-0.011492
0.057956
-0.005349
0.090323
-0.028881
0.078845
-0.018701
-0.003137
0.060489
0.045177
0.039538
0.022982
0.019814
-0.044668
0.035285
-0.046269
0.005378
0.001742
0.027531
0.026978
-0.010642
0.005150
0.083000
-0.034613
0.019290
-0.033167
0.029750
-0.040182
0.023131
-0.051004
-0.048251
-0.063121
0.113185
0.053156
-0.029290
0.015625
0.108291
0.037968
0.108528
-0.050806
0.100222
-0.067725
0.100606
-0.070955
0.117882
-0.061545
-0.058874
-0.053832
0.032487
-0.021106
0.011984
0.114428
0.118895
-0.031627
0.081573
0.047106
0.053441
-0.064631
0.066078
0.002850
-0.000869
-0.073889
-0.075967
0.060673
0.129510
0.130670
0.008360
0.018756
0.121159
-0.007948
0.124195
0.128691
-0.082863
0.048921
0.041644
0.130436
0.050735
-0.081926
0.085000
-0.081108
0.111852
0.114708
-0.053646
0.009968
0.059011
0.047724
-0.039188
0.089116
0.030145
0.070750
-0.016133
0.025769
0.104192
-0.036971
0.086911
-0.026648
0.062446
0.076813
0.049896
-0.041029
0.016689
-0.060397
-0.030369
-0.051890
0.083202
0.111889
-0.066517
0.107463
0.069681
0.009307
0.042456
-0.071511
0.082494
-0.032559
0.047996
0.001964
0.116707
0.061577
0.119771
0.126942
0.111671
-0.057152
-0.072130
0.127925
0.056145
0.051633
-0.078412
0.055703
-0.013851
0.086315
-0.036396
0.066889
0.022134
0.068559
-0.020602
-0.055372
-0.042495
0.095990
0.105488
-0.043136
0.005631
0.042275
-0.044522
0.012035
0.074242
0.092651
0.021219
0.027080
0.024854
0.101078
-0.033375
-0.061691
-0.043878
0.098179
-0.007958
-0.010139
0.110030
0.012933
-0.046650
-0.024151
-0.058703
-0.027393
0.103865
-0.047151
0.060176
0.106556
0.078116
-0.028136
0.096825
-0.027569
0.034998
0.030889
-0.063350
0.044231
0.006566
-0.068164
-0.022030
0.113480
-0.052273
0.079614
0.122821
0.102079
0.074171
-0.069460
0.126213
-0.019370
0.127742
0.066985
0.043458
-0.073212
-0.014099
-0.003583
-0.077474
0.005698
0.122434
0.038832
0.001009
0.077230
0.016799
-0.064182
-0.006262
-0.008886
-0.080166
-0.079391
0.114477
0.087645
0.027643
0.092952
0.080894
-0.030957
0.007276
0.035691
-0.035810
0.070938
-0.005271
-0.000236
0.087494
-0.037571
0.065932
0.021707
0.028379
-0.017238
0.034835
-0.020299
0.028286
-0.043502
-0.030441
-0.020643
0.080375
-0.011746
0.005839
0.059876
-0.039590
0.037750
-0.028319
0.109077
-0.063787
0.067878
-0.017666
0.026846
-0.068783
-0.065034
-0.070377
0.093773
-0.005904
0.118021
0.012492
-0.038582
0.085615
-0.035692
0.101517
0.017113
0.107322
0.073638
0.077798
-0.009801
0.046146
0.072365
0.008543
0.120059
0.054337
-0.004451
-0.076665
-0.075727
0.021150
0.110322
-0.018071
0.024321
-0.042098
0.032426
0.102740
0.083779
-0.033874
-0.041715
0.090174
0.092295
0.032722
0.039258
0.070959
-0.031532
-0.023539
0.095621
0.018534
-0.057553
-0.055164
-0.052732
-0.025152
0.097072
0.105700
-0.042380
0.014835
0.075124
0.040599
0.104815
0.046946
0.003868
0.079495
-0.029515
-0.009811
0.099494
-0.061869
-0.048361
0.098038
0.044307
-0.054491
-0.000285
0.011143
0.088508
0.080502
0.118371
-0.051242
0.125215
0.000135
-0.024696
0.117116
-0.064932
-0.015045
0.058852
-0.074929
0.049803
0.115072
-0.001733
0.007500
0.126020
-0.069812
0.039660
0.088529
0.085844
0.064278
0.041703
0.121771
-0.059778
0.125081
0.110073
0.057725
-0.058925
0.037197
-0.038413
-0.049288
0.069358
0.066211
0.029659
0.052779
0.022420
-0.015330
0.063821
0.024148
0.033483
0.067874
-0.057016
0.019665
-0.040351
0.099822
-0.039800
0.086332
-0.024544
-0.009527
0.068862
0.074689
0.044255
-0.038166
0.016028
-0.055037
0.094605
0.084040
0.040351
0.105679
-0.052787
0.113955
0.008479
-0.015977
0.045094
0.003010
-0.036436
-0.050114
-0.029261
0.036809
0.052921
0.033257
0.103257
0.107525
-0.037014
-0.057673
0.030478
0.033360
0.070560
0.066493
0.048820
0.062484
0.117333
0.078664
0.115361
-0.067086
0.057039
0.123359
0.061553
0.024285
0.081062
-0.031145
-0.007087
0.094024
0.014884
0.035677
0.020715
0.076110
0.078853
-0.026140
-0.028904
-0.021707
0.007650
-0.056328
-0.022926
-0.034240
0.012164
0.071733
0.083563
-0.033644
-0.044727
-0.060658
0.001138
-0.002607
0.039258
0.003066
0.102093
-0.062189
0.057827
-0.002873
0.028761
0.112708
-0.065436
0.075049
-0.049763
-0.047538
-0.040297
0.123491
-0.073978
0.009845
-0.067686
-0.007134
0.120665
-0.020287
0.099418
-0.025609
0.122539
-0.073028
0.065181
-0.062399
0.110686
0.124276
0.052525
-0.012425
0.006678
0.041438
-0.070497
-0.055391
0.030112
0.019191
0.072178
0.091154
0.108819
-0.044958
0.050312
-0.013148
-0.016125
0.025515
0.064976
0.022416
0.026533
0.029923
-0.054534
-0.018908
-0.040065
0.090848
0.026252
-0.021401
0.008312
0.059481
0.050077
0.073000
0.036439
0.104751
-0.011027
-0.051033
-0.057972
-0.062737
0.005879
0.068771
0.015259
0.000293
0.113610
0.091598
-0.003610
-0.065910
-0.010716
-0.018608
-0.031518
0.010606
0.018042
0.064432
-0.066088
-0.018586
-0.005308
-0.071310
0.055223
0.120802
0.063392
0.106012
-0.043187
0.030671
0.019684
-0.036095
0.098803
0.088896
0.019790
0.096857
0.038438
0.070239
-0.052587
-0.023005
0.041742
-0.038138
-0.038497
0.101784
-0.041218
0.014168
0.055798
0.077516
-0.027547
0.043236
0.002161
-0.056290
0.067348
0.034907
0.063042
0.100372
0.057605
0.046995
0.073140
-0.045934
-0.007822
-0.050106
0.010341
0.046966
0.118951
0.115652
0.081350
-0.028399
-0.059134
-0.034692
0.084774
0.078341
0.075937
0.119054
0.059764
-0.022924
0.050681
-0.021502
-0.072234
-0.000730
0.095464
0.073217
0.004867
0.031285
-0.048691
-0.013349
0.119880
0.106299
0.104560
-0.060650
-0.058005
0.086718
0.042240
0.021924
0.023664
0.121617
0.112306
0.108291
-0.059504
0.103074
0.031956
-0.014313
-0.040674
0.092005
-0.026533
0.031212
-0.051914
-0.053774
0.024572
0.023357
0.027632
0.088372
-0.015913
0.082177
-0.032246
0.022947
-0.036313
0.084150
-0.007515
-0.019870
0.066865
0.057295
-0.036988
0.084930
0.101998
0.040957
0.095982
0.103898
-0.055366
0.111253
-0.016882
0.098513
-0.034279
-0.052376
-0.047537
0.047830
0.030891
0.052756
-0.011634
0.064298
0.043674
0.038204
0.002213
0.094538
-0.048445
0.057911
0.117240
0.114670
0.118160
0.079529
-0.003463
-0.069575
-0.056272
0.020102
0.013532
0.027967
0.080394
-0.030465
-0.006152
0.069888
0.071505
0.012061
-0.020099
0.090234
0.100332
0.103219
0.017286
0.055385
0.035784
0.061155
0.016175
0.092906
-0.037865
0.047277
0.011502
0.007714
0.004076
0.005020
0.093059
-0.055079
0.074322
0.076937
-0.026978
-0.056512
-0.024347
-0.031580
0.081529
-0.045757
-0.042404
-0.008035
-0.000043
0.060692
-0.068544
0.051541
-0.061100
-0.047306
-0.001535
-0.067795
0.053415
0.110929
0.076822
0.071433
0.010384
0.034526
-0.023854
-0.021181
-0.053639
0.116267
-0.050020
0.032510
0.066070
0.089339
-0.064389
0.044014
0.107919
0.042900
0.098664
-0.063260
0.096734
-0.037798
0.028946
-0.016866
-0.039022
-0.027748
-0.019892
-0.014247
-0.012422
0.026301
0.025296
0.022003
0.086346
0.079856
-0.029922
-0.033760
0.084168
-0.035339
-0.028464
0.008524
0.068738
0.044895
0.013357
-0.034889
0.043477
0.091499
0.077677
0.069642
-0.049343
0.005161
-0.018329
0.034236
-0.060078
0.033060
0.089258
0.092809
-0.002968
0.013214
0.058816
-0.035744
0.050867
0.071429
-0.011897
-0.000502
-0.004255
-0.061504
-0.063456
0.061579
0.054269
0.115517
0.109242
0.100488
0.096402
-0.066950
0.028432
0.087543
-0.009049
-0.016908
-0.026417
0.025885
0.076376
0.078389
0.015180
0.019900
-0.005784
0.068475
-0.018376
0.096364
0.040621
0.004909
-0.035509
0.038784
0.065449
-0.000217
0.032730
-0.009012
0.075697
-0.025716
0.010885
-0.021239
0.045830
-0.051323
-0.015279
0.090788
-0.052412
-0.044182
-0.041513
0.086718
0.009614
-0.043551
-0.046162
0.062201
-0.056852
0.049616
-0.053701
0.116423
0.055504
0.106527
0.109601
0.082216
-0.032754
0.101767
0.034351
-0.022080
-0.024830
0.082675
-0.051926
0.074126
-0.014252
-0.039042
0.066968
0.090179
0.058820
0.095998
-0.058884
0.103591
-0.019492
0.044791
-0.006156
0.003319
0.056096
0.114603
0.101287
0.017657
0.112941
-0.053877
0.012837
0.094292
0.021157
-0.029933
0.029091
-0.048803
0.023811
0.024597
-0.035023
0.023983
-0.007146
0.001409
0.055427
0.010724
-0.049848
0.090091
0.097776
-0.047634
0.102140
-0.022998
0.002635
-0.044994
-0.036257
0.067834
-0.015150
0.108551
0.022343
0.041108
0.087011
0.064952
0.059984
0.008656
0.017529
0.084343
-0.032214
0.083281
0.030552
0.048541
-0.047802
-0.057147
-0.039942
0.052368
0.112876
0.099060
-0.052732
0.072301
0.007040
0.066869
-0.015308
-0.012910
0.094675
0.062834
-0.016750
-0.032564
0.017831
0.015551
-0.003000
0.036775
0.041909
-0.033788
0.047760
0.070073
0.014854
0.032379
-0.018283
-0.049784
-0.022630
-0.024907
0.072642
0.074887
0.046564
-0.009769