# vtk DataFile Version 2.0
Test
ASCII
DATASET POLYDATA
POINTS 5510 float
0.000000 0.000000 0.000000
0.080000 0.000000 0.000000
0.080000 0.160000 0.000000
0.000000 0.160000 0.000000
0.035000 0.076250 0.000000
0.046500 0.083750 0.000000
0.002000 0.000000 0.000000
0.004000 0.000000 0.000000
0.006000 0.000000 0.000000
0.008000 0.000000 0.000000
0.010000 0.000000 0.000000
0.012000 0.000000 0.000000
0.014000 0.000000 0.000000
0.016000 0.000000 0.000000
0.018000 0.000000 0.000000
0.020000 0.000000 0.000000
0.022000 0.000000 0.000000
0.024000 0.000000 0.000000
0.026000 0.000000 0.000000
0.028000 0.000000 0.000000
0.030000 0.000000 0.000000
0.032000 0.000000 0.000000
0.034000 0.000000 0.000000
0.036000 0.000000 0.000000
0.038000 0.000000 0.000000
0.040000 0.000000 0.000000
0.042000 0.000000 0.000000
0.044000 0.000000 0.000000
0.046000 0.000000 0.000000
0.048000 0.000000 0.000000
0.050000 0.000000 0.000000
0.052000 0.000000 0.000000
0.054000 0.000000 0.000000
0.056000 0.000000 0.000000
0.058000 0.000000 0.000000
0.060000 0.000000 0.000000
0.062000 0.000000 0.000000
0.064000 0.000000 0.000000
0.066000 0.000000 0.000000
0.068000 0.000000 0.000000
0.070000 0.000000 0.000000
0.072000 0.000000 0.000000
0.074000 0.000000 0.000000
0.076000 0.000000 0.000000
0.078000 0.000000 0.000000
0.080000 0.002000 0.000000
0.080000 0.004000 0.000000
0.080000 0.006000 0.000000
0.080000 0.008000 0.000000
0.080000 0.010000 0.000000
0.080000 0.012000 0.000000
0.080000 0.014000 0.000000
0.080000 0.016000 0.000000
0.080000 0.018000 0.000000
0.080000 0.020000 0.000000
0.080000 0.022000 0.000000
0.080000 0.024000 0.000000
0.080000 0.026000 0.000000
0.080000 0.028000 0.000000
0.080000 0.030000 0.000000
0.080000 0.032000 0.000000
0.080000 0.034000 0.000000
0.080000 0.036000 0.000000
0.080000 0.038000 0.000000
0.080000 0.040000 0.000000
0.080000 0.042000 0.000000
0.080000 0.044000 0.000000
0.080000 0.046000 0.000000
0.080000 0.048000 0.000000
0.080000 0.050000 0.000000
0.080000 0.052000 0.000000
0.080000 0.054000 0.000000
0.080000 0.056000 0.000000
0.080000 0.058000 0.000000
0.080000 0.060000 0.000000
0.080000 0.062000 0.000000
0.080000 0.064000 0.000000
0.080000 0.066000 0.000000
0.080000 0.068000 0.000000
0.080000 0.070000 0.000000
0.080000 0.072000 0.000000
0.080000 0.074000 0.000000
0.080000 0.076000 0.000000
0.080000 0.078000 0.000000
0.080000 0.080000 0.000000
0.080000 0.082000 0.000000
0.080000 0.084000 0.000000
0.080000 0.086000 0.000000
0.080000 0.088000 0.000000
0.080000 0.090000 0.000000
0.080000 0.092000 0.000000
0.080000 0.094000 0.000000
0.080000 0.096000 0.000000
0.080000 0.098000 0.000000
0.080000 0.100000 0.000000
0.080000 0.102000 0.000000
0.080000 0.104000 0.000000
0.080000 0.106000 0.000000
0.080000 0.108000 0.000000
0.080000 0.110000 0.000000
0.080000 0.112000 0.000000
0.080000 0.114000 0.000000
0.080000 0.116000 0.000000
0.080000 0.118000 0.000000
0.080000 0.120000 0.000000
0.080000 0.122000 0.000000
0.080000 0.124000 0.000000
0.080000 0.126000 0.000000
0.080000 0.128000 0.000000
0.080000 0.130000 0.000000
0.080000 0.132000 0.000000
0.080000 0.134000 0.000000
0.080000 0.136000 0.000000
0.080000 0.138000 0.000000
0.080000 0.140000 0.000000
0.080000 0.142000 0.000000
0.080000 0.144000 0.000000
0.080000 0.146000 0.000000
0.080000 0.148000 0.000000
0.080000 0.150000 0.000000
0.080000 0.152000 0.000000
0.080000 0.154000 0.000000
0.080000 0.156000 0.000000
0.080000 0.158000 0.000000
0.078000 0.160000 0.000000
0.076000 0.160000 0.000000
0.074000 0.160000 0.000000
0.072000 0.160000 0.000000
0.070000 0.160000 0.000000
0.068000 0.160000 0.000000
0.066000 0.160000 0.000000
0.064000 0.160000 0.000000
0.062000 0.160000 0.000000
0.060000 0.160000 0.000000
0.058000 0.160000 0.000000
0.056000 0.160000 0.000000
0.054000 0.160000 0.000000
0.052000 0.160000 0.000000
0.050000 0.160000 0.000000
0.048000 0.160000 0.000000
0.046000 0.160000 0.000000
0.044000 0.160000 0.000000
0.042000 0.160000 0.000000
0.040000 0.160000 0.000000
0.038000 0.160000 0.000000
0.036000 0.160000 0.000000
0.034000 0.160000 0.000000
0.032000 0.160000 0.000000
0.030000 0.160000 0.000000
0.028000 0.160000 0.000000
0.026000 0.160000 0.000000
0.024000 0.160000 0.000000
0.022000 0.160000 0.000000
0.020000 0.160000 0.000000
0.018000 0.160000 0.000000
0.016000 0.160000 0.000000
0.014000 0.160000 0.000000
0.012000 0.160000 0.000000
0.010000 0.160000 0.000000
0.008000 0.160000 0.000000
0.006000 0.160000 0.000000
0.004000 0.160000 0.000000
0.002000 0.160000 0.000000
0.000000 0.158000 0.000000
0.000000 0.156000 0.000000
0.000000 0.154000 0.000000
0.000000 0.152000 0.000000
0.000000 0.150000 0.000000
0.000000 0.148000 0.000000
0.000000 0.146000 0.000000
0.000000 0.144000 0.000000
0.000000 0.142000 0.000000
0.000000 0.140000 0.000000
0.000000 0.138000 0.000000
0.000000 0.136000 0.000000
0.000000 0.134000 0.000000
0.000000 0.132000 0.000000
0.000000 0.130000 0.000000
0.000000 0.128000 0.000000
0.000000 0.126000 0.000000
0.000000 0.124000 0.000000
0.000000 0.122000 0.000000
0.000000 0.120000 0.000000
0.000000 0.118000 0.000000
0.000000 0.116000 0.000000
0.000000 0.114000 0.000000
0.000000 0.112000 0.000000
0.000000 0.110000 0.000000
0.000000 0.108000 0.000000
0.000000 0.106000 0.000000
0.000000 0.104000 0.000000
0.000000 0.102000 0.000000
0.000000 0.100000 0.000000
0.000000 0.098000 0.000000
0.000000 0.096000 0.000000
0.000000 0.094000 0.000000
0.000000 0.092000 0.000000
0.000000 0.090000 0.000000
0.000000 0.088000 0.000000
0.000000 0.086000 0.000000
0.000000 0.084000 0.000000
0.000000 0.082000 0.000000
0.000000 0.080000 0.000000
0.000000 0.078000 0.000000
0.000000 0.076000 0.000000
0.000000 0.074000 0.000000
0.000000 0.072000 0.000000
0.000000 0.070000 0.000000
0.000000 0.068000 0.000000
0.000000 0.066000 0.000000
0.000000 0.064000 0.000000
0.000000 0.062000 0.000000
0.000000 0.060000 0.000000
0.000000 0.058000 0.000000
0.000000 0.056000 0.000000
0.000000 0.054000 0.000000
0.000000 0.052000 0.000000
0.000000 0.050000 0.000000
0.000000 0.048000 0.000000
0.000000 0.046000 0.000000
0.000000 0.044000 0.000000
0.000000 0.042000 0.000000
0.000000 0.040000 0.000000
0.000000 0.038000 0.000000
0.000000 0.036000 0.000000
0.000000 0.034000 0.000000
0.000000 0.032000 0.000000
0.000000 0.030000 0.000000
0.000000 0.028000 0.000000
0.000000 0.026000 0.000000
0.000000 0.024000 0.000000
0.000000 0.022000 0.000000
0.000000 0.020000 0.000000
0.000000 0.018000 0.000000
0.000000 0.016000 0.000000
0.000000 0.014000 0.000000
0.000000 0.012000 0.000000
0.000000 0.010000 0.000000
0.000000 0.008000 0.000000
0.000000 0.006000 0.000000
0.000000 0.004000 0.000000
0.000000 0.002000 0.000000
0.035411 0.076518 0.000000
0.035821 0.076786 0.000000
0.036232 0.077054 0.000000
0.036643 0.077321 0.000000
0.037054 0.077589 0.000000
0.037464 0.077857 0.000000
0.037875 0.078125 0.000000
0.038286 0.078393 0.000000
0.038696 0.078661 0.000000
0.039107 0.078929 0.000000
0.039518 0.079196 0.000000
0.039929 0.079464 0.000000
0.040339 0.079732 0.000000
0.040750 0.080000 0.000000
0.041161 0.080268 0.000000
0.041571 0.080536 0.000000
0.041982 0.080804 0.000000
0.042393 0.081071 0.000000
0.042804 0.081339 0.000000
0.043214 0.081607 0.000000
0.043625 0.081875 0.000000
0.044036 0.082143 0.000000
0.044446 0.082411 0.000000
0.044857 0.082679 0.000000
0.045268 0.082946 0.000000
0.045679 0.083214 0.000000
0.046089 0.083482 0.000000
0.040000 0.002000 0.000000
0.040001 0.158005 0.000000
0.002000 0.116000 0.000000
0.078000 0.048000 0.000000
0.002000 0.106000 0.000000
0.078000 0.058000 0.000000
0.001986 0.042173 0.000000
0.078015 0.117826 0.000000
0.001985 0.094174 0.000000
0.001985 0.084174 0.000000
0.001914 0.056074 0.000000
0.002000 0.072000 0.000000
0.078015 0.065826 0.000000
0.078016 0.075826 0.000000
0.078000 0.088000 0.000000
0.078000 0.104000 0.000000
0.078003 0.029997 0.000000
0.001998 0.130002 0.000000
0.002000 0.032000 0.000000
0.078013 0.128003 0.000000
0.056000 0.158000 0.000000
0.026000 0.002000 0.000000
0.060000 0.002000 0.000000
0.020000 0.158000 0.000000
0.002000 0.020000 0.000000
0.078000 0.142000 0.000000
0.002000 0.146000 0.000000
0.078000 0.020000 0.000000
0.016000 0.002000 0.000000
0.068000 0.002000 0.000000
0.066000 0.158000 0.000000
0.002000 0.014000 0.000000
0.008000 0.158000 0.000000
0.010000 0.002000 0.000000
0.078000 0.148000 0.000000
0.078000 0.008000 0.000000
0.078005 0.037995 0.000000
0.051991 0.001990 0.000000
0.028000 0.158000 0.000000
0.002000 0.008000 0.000000
0.078000 0.094000 0.000000
0.078000 0.110000 0.000000
0.001983 0.066159 0.000000
0.002000 0.050000 0.000000
0.046000 0.158000 0.000000
0.078000 0.134000 0.000000
0.002000 0.140000 0.000000
0.006000 0.002000 0.000000
0.002000 0.154000 0.000000
0.074000 0.002000 0.000000
0.078000 0.152000 0.000000
0.074000 0.158000 0.000000
0.078000 0.080000 0.000000
0.078000 0.070000 0.000000
0.078000 0.122000 0.000000
0.002000 0.090000 0.000000
0.002000 0.080000 0.000000
0.002000 0.038000 0.000000
0.002000 0.102000 0.000000
0.002000 0.112000 0.000000
0.036000 0.002000 0.000000
0.078000 0.042000 0.000000
0.032000 0.002000 0.000000
0.047987 0.001989 0.000000
0.032008 0.158010 0.000000
0.002000 0.028000 0.000000
0.002000 0.126000 0.000000
0.060000 0.158000 0.000000
0.022000 0.002000 0.000000
0.002000 0.136000 0.000000
0.078000 0.024000 0.000000
0.012000 0.158000 0.000000
0.078000 0.158000 0.000000
0.001947 0.003947 0.000000
0.002000 0.158000 0.000000
0.078000 0.012000 0.000000
0.078000 0.096000 0.000000
0.078000 0.098000 0.000000
0.078000 0.082000 0.000000
0.078111 0.099889 0.000000
0.078035 0.083965 0.000000
0.078000 0.090000 0.000000
0.078000 0.106000 0.000000
0.078000 0.072000 0.000000
0.078000 0.112000 0.000000
0.078043 0.061976 0.000000
0.078000 0.114000 0.000000
0.002000 0.064000 0.000000
0.002000 0.062000 0.000000
0.002000 0.088000 0.000000
0.002000 0.078000 0.000000
0.002000 0.060000 0.000000
0.001966 0.076034 0.000000
0.002000 0.070000 0.000000
0.002000 0.054000 0.000000
0.001957 0.098024 0.000000
0.002000 0.048000 0.000000
0.002000 0.046000 0.000000
[...]
POINT_DATA 5510
SCALARS UX float 1
LOOKUP_TABLE default
-0.006199
0.027978
0.000001
-0.033505
-0.004860
-0.000119
-0.005343
-0.004486
-0.003629
-0.002771
-0.001913
-0.001055
-0.000197
0.000660
0.001517
0.002374
0.003230
0.004085
0.004940
0.005794
0.006646
0.007498
0.008350
0.009200
0.010051
0.010900
0.011749
0.012598
0.013447
0.014295
0.015144
0.015993
0.016843
0.017693
0.018544
0.019395
0.020248
0.021102
0.021957
0.022813
0.023670
0.024529
0.025390
0.026252
0.027114
0.027645
0.027315
0.026987
0.026659
0.026334
0.026009
0.025687
0.025365
0.025045
0.024725
0.024407
0.024091
0.023776
0.023464
0.023154
0.022845
0.022538
0.022233
0.021929
0.021626
0.021324
0.021022
0.020720
0.020418
0.020116
0.019811
0.019504
0.019194
0.018882
0.018566
0.018247
0.017925
0.017601
0.017274
0.016943
0.016612
0.016274
0.015935
0.015592
0.015243
0.014893
0.014535
0.014167
0.013790
0.013408
0.013004
0.012588
0.012164
0.011724
0.011271
0.010822
0.010378
0.009935
0.009514
0.009106
0.008715
0.008328
0.007964
0.007606
0.007255
0.006913
0.006572
0.006239
0.005907
0.005578
0.005250
0.004923
0.004597
0.004271
0.003947
0.003622
0.003298
0.002975
0.002653
0.002333
0.002015
0.001693
0.001340
0.000852
-0.000007
-0.000898
-0.001788
-0.002670
-0.003542
-0.004410
-0.005276
-0.006140
-0.007002
-0.007863
-0.008722
-0.009580
-0.010437
-0.011292
-0.012147
-0.013001
-0.013853
-0.014705
-0.015556
-0.016406
-0.017256
-0.018106
-0.018955
-0.019804
-0.020654
-0.021503
-0.022354
-0.023204
-0.024056
-0.024908
-0.025761
-0.026616
-0.027472
-0.028330
-0.029189
-0.030049
-0.030911
-0.031775
-0.032640
-0.033172
-0.032842
-0.032511
-0.032186
-0.031861
-0.031537
-0.031215
-0.030894
-0.030575
-0.030257
-0.029940
-0.029626
-0.029312
-0.029002
-0.028693
-0.028385
-0.028079
-0.027774
-0.027471
-0.027168
-0.026865
-0.026563
-0.026260
-0.025956
-0.025653
-0.025345
-0.025036
-0.024724
-0.024410
-0.024092
-0.023772
-0.023448
-0.023123
-0.022794
-0.022462
-0.022130
-0.021792
-0.021451
-0.021108
-0.020760
-0.020410
-0.020053
-0.019687
-0.019313
-0.018934
-0.018537
-0.018130
-0.017711
-0.017284
-0.016841
-0.016398
-0.015960
-0.015522
-0.015100
-0.014689
-0.014282
-0.013904
-0.013534
-0.013169
-0.012813
-0.012466
-0.012121
-0.011785
-0.011451
-0.011119
-0.010789
-0.010460
-0.010132
-0.009806
-0.009479
-0.009152
-0.008825
-0.008498
-0.008171
-0.007844
-0.007516
-0.007188
-0.006859
-0.006529
-0.004674
-0.004489
-0.004233
-0.003985
-0.003788
-0.003646
-0.003491
-0.003320
-0.003207
-0.003040
-0.002898
-0.002781
-0.002625
-0.002468
-0.002282
-0.002105
-0.001928
-0.001748
-0.001586
-0.001464
-0.001334
-0.001210
-0.001061
-0.000921
-0.000747
-0.000551
-0.000364
0.010572
-0.016078
-0.025691
0.019547
-0.024178
0.018028
-0.012319
0.006756
-0.022314
-0.020649
-0.015106
-0.018466
0.016793
0.015134
0.012945
0.009463
0.022277
-0.027816
-0.010581
0.005043
-0.009249
0.004610
0.019067
-0.024579
-0.008618
0.002760
-0.030345
0.023854
0.000329
0.022483
-0.004947
-0.007640
-0.029717
-0.002244
0.001788
0.025795
0.021053
0.015664
-0.021176
-0.006659
0.011718
0.008201
-0.017301
-0.013780
-0.013524
0.004058
-0.029384
-0.003959
-0.031645
0.025057
0.001139
-0.001493
0.014407
0.016105
0.006034
-0.021623
-0.019922
-0.011585
-0.023558
-0.025090
0.008872
0.020447
0.007169
0.013964
-0.019475
-0.009923
-0.027201
-0.007532
0.002899
-0.028751
0.023216
-0.027999
0.000072
-0.006016
-0.032305
0.025143
0.011281
0.010829
0.014054
0.010445
0.013713
0.012549
0.009028
0.015772
0.007810
0.017422
0.007436
-0.016835
-0.016393
-0.021289
-0.019570
-0.015945
-0.019229
-0.018077
-0.014617
-0.022947
-0.013386
-0.013008
0.018643
0.020157
0.019247
-0.024787
-0.026292
0.005699
-0.011247
0.012270
-0.017778
-0.015227
0.021663
-0.012671
-0.011817
-0.026897
0.006317
0.017365
-0.022876
-0.009596
0.004715
0.003733
-0.009270
0.003409
-0.028437
-0.010962
0.022902
-0.030024
-0.006671
0.002043
0.020772
-0.026286
0.002436
0.024497
-0.030993
-0.008293
-0.007314
-0.004082
-0.000528
-0.003218
0.000814
-0.031440
-0.004864
-0.005784
0.026450
0.024197
0.026781
-0.024240
0.018696
-0.020804
-0.019122
-0.017634
-0.015108
-0.012904
0.013611
0.012113
0.009589
0.015287
0.006976
-0.015739
-0.026034
0.004174
-0.010728
0.006836
-0.010641
-0.009060
0.002549
0.002569
-0.027878
0.022345
-0.007204
-0.007434
-0.000001
-0.029478
-0.003767
0.008577
0.019334
-0.006782
0.000268
0.024726
0.012928
0.009987
0.010863
-0.018441
-0.015553
-0.016409
-0.012175
0.012203
0.013383
0.009988
0.014823
0.015463
0.008669
0.016499
0.007102
-0.017738
-0.020979
-0.018900
-0.022018
-0.015526
-0.020337
-0.014222
-0.012669
0.017104
-0.022627
0.017737
-0.023265
0.018358
0.006457
-0.023890
-0.012013
0.018966
-0.024503
-0.025434
0.019862
-0.026005
0.020757
-0.026602
0.011416
-0.016923
0.009718
-0.014372
0.013114
-0.018623
0.005380
-0.010925
0.021358
0.008018
0.014813
-0.020323
-0.012337
0.016513
-0.022024
-0.027508
-0.010255
0.004388
0.021968
-0.008734
0.005464
0.003196
-0.010106
0.018214
-0.023726
-0.008946
0.003085
-0.028125
0.022587
-0.029067
-0.008391
0.003755
-0.029704
0.023534
-0.005810
0.001186
-0.025432
0.019919
-0.027142
0.021627
0.002112
-0.007967
-0.028857
0.024175
-0.030668
0.001465
0.024819
-0.006987
-0.001386
-0.031318
-0.002355
0.025468
0.000465
-0.003102
-0.006331
-0.030578
-0.005145
0.023339
-0.000660
-0.031109
-0.031974
0.026121
0.025587
0.025918
-0.022513
0.016984
-0.014338
0.012785
0.008765
-0.008201
-0.020010
0.016194
-0.023400
0.019590
0.023953
-0.026812
0.001250
0.020504
0.009418
-0.028526
-0.030453
0.011348
0.006262
-0.016884
0.016372
0.015647
-0.021896
-0.021166
0.014641
0.013977
-0.020155
-0.019487
0.017594
-0.023128
0.005567
-0.010061
-0.018293
-0.009391
0.021092
0.003526
-0.026640
0.005134
0.003424
0.000856
0.021297
-0.028834
-0.028195
-0.001716
-0.006129
-0.029802
0.023307
0.022663
-0.002059
-0.000073
0.024604
0.024397
0.011709
0.012499
-0.017235
0.009114
-0.018013
0.006675
-0.014636
-0.013341
0.019039
0.014969
-0.020483
-0.011823
-0.011091
-0.024564
-0.025145
0.007718
0.008158
0.018115
0.018403
-0.023655
-0.023944
-0.016623
0.010459
0.013274
-0.025736
-0.016004
-0.018786
0.007356
0.019896
0.019607
-0.012560
-0.010398
0.004512
0.014484
0.007709
-0.013180
0.011116
-0.014069
0.003853
-0.026341
-0.021702
-0.009789
0.005984
0.021713
0.022028
-0.027251
-0.027564
0.002223
0.017889
-0.008413
-0.007758
-0.011489
0.002875
0.001715
-0.014905
-0.008062
-0.025103
-0.005484
-0.006345
-0.004624
-0.029154
-0.000858
0.023009
-0.007108
-0.006456
-0.003431
0.023867
-0.002912
-0.004288
0.025258
0.000598
-0.000416
-0.030780
-0.005474
-0.030246
-0.010246
0.018779
-0.022965
0.005759
-0.018696
-0.020397
-0.016500
-0.014510
0.014887
0.013217
0.010900
-0.024906
0.003663
-0.010313
0.007355
0.020849
0.002018
-0.026385
0.003094
-0.006023
-0.006898
0.000528
-0.027966
-0.005598
-0.012525
-0.013902
0.006970
-0.002606
0.011844
-0.017389
-0.011027
0.018258
0.009657
-0.015228
-0.008534
-0.009551
-0.025481
0.005655
-0.001187
0.001574
-0.028611
-0.000266
0.008242
0.010540
0.006557
-0.016096
0.014319
0.015993
-0.019831
-0.021514
0.016670
-0.022196
-0.024851
0.012485
0.009125
-0.014756
0.017296
-0.022828
-0.011506
-0.017994
0.005846
-0.025416
-0.014134
-0.013545
-0.013696
-0.016250
-0.019128
0.014253
-0.019765
0.020201
-0.023364
-0.011752
0.017826
0.015322
0.008547
0.010250
0.013619
0.005200
0.004858
0.020801
-0.009727
0.017612
-0.008919
0.021406
-0.020855
-0.026944
0.001688
0.002999
-0.012009
0.004277
-0.008088
-0.023159
-0.023765
0.017041
-0.022550
0.021165
0.021795
-0.007882
-0.026698
-0.027326
-0.007734
-0.005164
0.002666
0.018739
-0.024252
-0.028514
0.001387
-0.017455
0.022984
-0.006249
0.001899
-0.025956
0.020442
-0.004309
0.022152
0.023629
0.023537
-0.002573
0.000924
-0.030126
0.024278
-0.004617
-0.027668
0.024068
0.024930
-0.005802
-0.000931
-0.001228
-0.029917
-0.029385
0.011948
0.007364
-0.022150
-0.015370
-0.013566
0.009874
-0.013441
-0.025529
0.002148
0.012462
0.019994
-0.007683
-0.019685
0.015867
0.020113
-0.005700
-0.023073
0.001055
0.022764
0.016415
-0.025628
0.023208
-0.027339
0.008390
-0.021948
0.019648
0.001158
-0.013506
0.013435
-0.019054
-0.021317
-0.020614
0.015788
0.015097
0.009092
-0.026084
-0.008598
-0.007231
0.003945
0.022118
0.001041
-0.005272
-0.029055
-0.012809
0.013994
-0.019510
-0.010580
0.006289
-0.017061
0.011402
0.006143
-0.022323
0.016772
0.017417
-0.014104
0.018502
-0.022707
-0.024345
-0.024022
-0.024622
0.012809
-0.018321
0.012036
0.003989
0.004748
-0.017573
0.008192
-0.017968
-0.017075
0.010035
-0.015576
0.014537
-0.020051
0.007777
-0.009893
0.020539
0.019068
-0.012114
0.014155
0.005441
-0.025780
-0.025187
0.010765
-0.009466
-0.023429
-0.007560
0.004803
0.003329
0.006497
-0.020535
-0.008863
-0.009214
0.017876
-0.011402
0.021478
0.016716
-0.011160
0.019941
-0.012851
-0.027010
-0.027646
0.002345
0.001366
-0.007031
-0.023924
0.018411
-0.006576
0.002241
0.021822
-0.006879
-0.000330
-0.004847
-0.005925
-0.021378
0.000713
0.000062
0.022679
0.023415
0.023741
-0.002901
-0.002043
-0.004945
-0.003759
-0.028288
-0.003457
-0.028937
-0.029589
-0.015415
-0.001767
-0.000598
0.017952
0.015717
-0.018761
-0.017392
-0.010999
-0.013201
0.013252
0.011922
0.008708
-0.019374
0.015549
-0.022749
-0.009145
-0.005381
-0.026783
-0.005720
-0.023573
0.000187
-0.009411
0.005327
0.016600
0.014228
-0.019736
-0.005066
-0.000657
-0.002372
-0.027748
-0.028727
-0.015924
0.009393
0.007452
0.011064
0.010160
-0.016628
-0.015714
-0.014938
0.017468
0.006592
-0.011769
0.019700
0.001492
0.012494
0.003617
0.020618
0.001909
-0.004414
-0.000798
-0.002298
-0.014264
-0.024075
-0.024641
-0.025231
0.008847
0.008002
-0.023277
0.005812
0.005008
-0.014484
0.015401
-0.020923
-0.021821
-0.021261
-0.021613
0.016082
0.017175
0.005100
0.004373
0.013510
-0.019014
-0.013131
-0.012614
-0.011678
-0.009055
-0.016820
0.002472
0.003163
-0.008354
-0.018832
-0.022367
-0.010289
0.019361
0.015015
-0.008264
0.013310
0.001822
0.011596
-0.006711
0.016804
0.020308
0.007016
-0.022928
-0.026150
-0.025840
-0.008022
0.022440
-0.022222
0.017562
-0.007356
0.000837
0.000199
0.021256
-0.007409
-0.006553
-0.010835
0.020233
-0.020212
-0.024774
0.020966
-0.027104
0.019260
-0.006371
0.000389
0.022351
0.022555
0.023089
-0.003995
-0.026483
-0.001453
0.022881
-0.003229
-0.004087
-0.028196
-0.029262
0.009926
-0.017965
-0.013122
0.013630
-0.019140
-0.008587
-0.021124
0.015799
-0.014994
-0.018149
0.009078
0.012591
-0.013121
0.001643
-0.006839
-0.024387
-0.019053
0.018845
0.000314
0.001581
0.018084
-0.025925
-0.015677
-0.005859
-0.025299
0.008197
0.004303
-0.020291
-0.020952
0.014767
0.015402
0.015903
-0.011353
-0.008791
0.003537
0.010440
0.018514
0.012137
-0.024985
0.019454
-0.021908
-0.000128
-0.000470
0.019784
0.021493
-0.028400
-0.013567
-0.018430
0.012898
0.004728
0.010609
0.011503
-0.016096
-0.009802
-0.016968
-0.019881
0.014361
0.005476
0.017679
0.016233
0.007016
-0.012785
0.005544
-0.011336
-0.012787
-0.014620
-0.008723
0.013831
0.002837
-0.019342
-0.021371
-0.021478
0.009542
0.019100
-0.024938
0.019395
0.014701
0.007247
-0.010619
0.000975
0.018231
0.012161
0.012999
-0.007499
-0.022629
-0.024342
-0.021053
0.004467
0.000515
0.021579
0.022230
-0.007083
0.002760
-0.006507
-0.026467
-0.018528
-0.017663
0.007854
-0.005395
0.017058
-0.006231
-0.000143
0.020935
-0.009989
-0.027425
-0.004531
-0.006045
-0.001515
-0.026154
-0.027868
-0.002699
0.016390
-0.028074
-0.023595
0.021696
0.022023
-0.004741
-0.001980
-0.001126
-0.003556
-0.003145
0.006171
-0.015098
-0.023798
-0.017634
-0.018407
-0.012049
-0.013859
0.012724
0.009102
-0.020624
0.015096
0.007603
0.011420
0.017116
-0.020507
0.014396
-0.010594
-0.014269
-0.011993
0.010040
-0.006003
0.005845
0.014386
-0.022803
-0.006760
0.020404
-0.022422
-0.004864
-0.019925
-0.019060
0.013545
-0.000665
0.021372
-0.024974
-0.026565
-0.017256
0.011843
0.004573
0.016650
0.011212
0.010359
0.009683
0.014968
0.015544
-0.007842
-0.014854
-0.016723
-0.023259
-0.009632
-0.025607
0.004139
0.002431
-0.005063
-0.001842
-0.002830
0.008372
-0.017851
0.012355
-0.015857
-0.012782
0.008667
0.006665
0.005785
-0.009068
-0.009666
-0.020577
0.005000
-0.020846
-0.012006
-0.012489
0.003885
-0.008229
-0.014216
-0.012431
0.013072
-0.012182
0.001999
-0.018606
0.003999
-0.013947
0.002736
-0.017379
-0.016504
-0.023807
0.018259
0.007654
-0.010516
0.001313
0.013843
-0.006190
0.017390
-0.021592
0.011272
-0.024679
0.015999
-0.025295
0.019144
-0.020741
-0.019889
-0.022132
-0.007215
-0.007932
0.000650
0.018798
0.017235
-0.018327
0.012825
-0.004537
-0.003027
-0.024093
0.000725
-0.000999
-0.001655
-0.024443
-0.026245
-0.000983
0.020636
0.021904
-0.000008
-0.009799
0.019767
-0.003681
0.018933
0.020843
-0.027541
-0.004210
-0.005524
0.021168
-0.003883
-0.027010
0.006692
-0.027213
0.015223
0.018546
-0.018221
-0.011421
0.008456
0.007010
-0.019640
0.014115
0.004384
0.010884
-0.015312
-0.008165
0.016277
-0.018899
0.013374
-0.017158
0.008836
0.011725
0.006896
-0.014451
0.001179
-0.022995
-0.011082
-0.017904
0.006365
0.017706
-0.024139
0.014062
0.002102
-0.000192
-0.005019
-0.025073
0.012710
-0.018220
-0.004010
-0.001526
0.018605
-0.000454
0.017756
0.020518
0.017975
-0.019582
-0.024120
0.021048
-0.002171
-0.003353
-0.026359
0.007676
-0.014624
0.013665
-0.019185
0.009948
-0.008937
0.010186
-0.016169
-0.022418
-0.019858
0.015249
0.016857
-0.020321
-0.011667
0.006245
-0.020218
-0.011102
0.011479
0.014698
0.002360
0.003547
0.003066
0.011784
-0.012020
-0.023540
-0.015356
0.010862
-0.013496
-0.013856
0.017668
0.000474
-0.016236
-0.016945
-0.022986
-0.010152
0.012673
-0.020648
0.008366
0.013531
0.011937
-0.017427
0.015039
-0.017626
-0.006405
-0.007198
-0.023543
0.006237
-0.000331
-0.024448
-0.008453
0.018003
-0.021846
0.004994
0.020084
0.016247
0.003278
-0.023267
0.020726
-0.007606
0.020306
0.001252
-0.005196
-0.025390
-0.005909
-0.002508
-0.025826
-0.000850
0.018608
-0.005676
-0.001324
0.012042
-0.010189
-0.021582
-0.003364
-0.004215
-0.026685
-0.026889
0.016061
0.007529
-0.007792
0.009206
0.012408
-0.017913
-0.011833
0.004907
-0.012802
0.010820
-0.013021
-0.012384
0.013851
-0.019373
0.009776
-0.009248
0.003745
-0.015544
0.005020
-0.016205
-0.007362
-0.019720
-0.017551
-0.016035
0.012042
-0.013967
-0.011285
0.008085
-0.014231
-0.005545
-0.010674
0.016862
-0.023306
0.001773
-0.007282
0.003110
-0.024225
-0.022096
-0.023799
0.009705
-0.012891
0.017435
-0.010716
-0.019175
0.013193
-0.018718
0.015881
-0.009847
0.016857
0.011108
0.004662
-0.004743
-0.004347
0.002948
-0.011251
0.019233
-0.002498
-0.003033
-0.026034
-0.025506
-0.009038
0.017413
-0.015495
0.002706
-0.019882
0.004250
0.016039
0.012901
-0.018425
-0.019402
0.014005
0.014287
-0.006834
0.005470
0.010613
-0.011673
-0.016569
0.014856
0.001539
-0.022467
-0.022056
-0.021623
-0.016877
0.010749
0.016554
-0.015118
0.000828
0.011382
-0.005357
0.013218
0.006531
-0.001179
0.012167
-0.017658
-0.013557
0.011522
-0.023269
-0.020830
0.015212
-0.004682
-0.018734
-0.012087
0.000145
0.013654
0.005514
0.018918
-0.021345
0.020196
-0.001850
-0.009299
0.016905
-0.023842
-0.006438
-0.001315
-0.025710
-0.003684
0.018298
-0.002180
-0.000523
0.019991
-0.024755
-0.005178
0.008046
0.007201
0.000398
0.005879
0.019554
-0.020418
0.019455
0.014896
0.007950
-0.022719
0.005111
-0.013627
-0.017075
0.010271
0.009608
-0.007375
0.007292
0.002287
-0.014950
0.009109
-0.008455
0.004403
0.010411
-0.022760
-0.009970
-0.019504
0.015152
-0.018753
0.012975
-0.016500
-0.013300
0.009961
0.011067
0.005865
-0.014015
0.000742
-0.021711
0.010203
0.006871
-0.004725
0.013736
-0.018434
0.017763
-0.000689
-0.006959
-0.004185
-0.001692
-0.018505
-0.020841
-0.011170
0.004769
0.006967
-0.006460
0.015810
0.016577
-0.013418
-0.022180
0.003834
0.004172
0.002618
0.009536
-0.003503
0.000072
0.018386
0.005175
0.016584
-0.023912
-0.001645
0.019141
0.008432
-0.008237
0.012096
-0.017615
-0.013018
0.014558
-0.010281
-0.005951
0.001967
0.011296
0.011761
-0.016787
-0.017263
-0.016195
-0.011102
-0.022257
-0.016201
-0.012542
0.000000
0.010496
0.012525
-0.018054
-0.019894
-0.022730
-0.002031
-0.002705
0.005213
-0.011644
0.012352
-0.023011
0.007705
-0.012385
0.003503
0.015736
-0.023610
0.003795
-0.021075
-0.016761
-0.019158
0.019875
-0.025183
-0.011177
-0.022939
-0.003885
0.018280
-0.008122
0.015444
-0.009818
0.019349
-0.024646
0.000922
-0.021253
0.017160
0.019669
-0.002827
-0.005590
-0.001020
-0.004852
-0.024541
-0.019262
-0.007003
-0.009436
0.010827
0.008879
0.017134
-0.015939
0.006674
-0.014254
-0.015047
0.002886
0.009348
0.002078
-0.007696
0.003507
-0.022008
-0.015624
-0.019239
0.014058
-0.007588
-0.015680
-0.010663
0.007800
0.006300
0.010492
0.004452
0.015743
-0.013613
-0.018116
-0.021913
-0.022774
-0.001507
0.002293
-0.009931
-0.002536
0.016264
0.013822
-0.012239
-0.022613
-0.005269
-0.015400
-0.011909
-0.010654
0.001175
0.009035
-0.023382
-0.007798
-0.003552
-0.024334
-0.001976
0.019028
0.000598
0.016300
-0.015617
-0.006597
-0.009063
-0.013358
0.015076
0.013402
0.001473
0.010922
-0.005100
0.010217
-0.021283
-0.015973
0.005551
-0.018822
-0.018548
0.015529
-0.018993
0.000384
0.007366
0.011534
-0.017027
-0.004526
-0.011463
-0.021928
0.009644
0.004423
0.008755
0.012037
0.007432
0.006198
0.010758
-0.020082
-0.012958
-0.017579
-0.000340
-0.003842
0.017970
0.018076
0.006022
-0.016904
-0.022449
-0.018173
0.012692
0.011397
0.004314
0.018706
-0.000786
-0.008964
-0.003162
-0.015930
-0.024862
-0.002369
0.014434
0.003456
-0.001353
0.004278
-0.020576
-0.006114
0.018503
0.016022
0.016037
-0.020937
-0.020094
0.007716
-0.004362
-0.008588
-0.008253
0.018821
0.017458
0.014568
-0.022188
0.012905
-0.006644
-0.014461
-0.014815
0.009386
-0.010335
0.003722
-0.021226
-0.021493
0.002382
0.002182
0.002977
0.013440
-0.014862
0.012297
-0.017818
0.001804
-0.017835
0.012297
-0.012693
-0.015158
0.009342
0.007168
-0.013850
0.007392
0.014908
-0.004300
0.010892
0.013411
-0.021109
0.016925
-0.007473
0.014628
-0.017847
-0.020914
-0.020074
-0.003328
0.003408
0.006643
-0.005795
0.008858
0.005483
0.004741
-0.002182
0.014324
-0.017290
-0.001129
0.017662
0.017550
0.018189
0.005687
-0.003220
-0.024018
-0.019782
0.001341
-0.000046
0.002873
0.011704
-0.017227
-0.012646
0.009906
0.010217
-0.010529
-0.015660
0.013593
0.014962
0.015465
-0.009546
0.007042
-0.005654
0.008146
0.000533
0.009899
-0.018118
0.005965
-0.000432
-0.001160
-0.001839
-0.011087
0.014081
-0.021393
0.010714
0.011147
-0.016646
-0.021651
-0.016202
-0.017388
0.011867
-0.016435
-0.019175
-0.004413
-0.011683
-0.000253
-0.023452
-0.002647
-0.022476
-0.020322
-0.002867
-0.023693
-0.002306
0.015409
0.004832
0.003132
-0.010418
0.004093
-0.009485
-0.008631
-0.018945
0.017113
-0.020517
-0.006238
0.001442
0.008547
-0.023072
-0.004038
0.016319
-0.003919
0.011746
-0.021770
0.014643
-0.018516
-0.006932
-0.015025
-0.014521
-0.010904
-0.015380
-0.014314
-0.013916
0.002744
-0.007662
-0.008335
0.012787
0.011684
-0.017200
-0.012623
0.012101
-0.017399
-0.016593
-0.010339
0.009462
0.005355
-0.000313
-0.013392
-0.003503
0.009706
0.005342
0.002806
-0.017816
-0.001965
-0.014850
0.003798
-0.021943
-0.005837
0.013098
0.013642
-0.011827
-0.009939
0.007471
-0.017860
0.006101
0.009963
-0.013619
-0.003024
-0.003712
-0.021450
-0.022549
0.000266
-0.001796
0.017349
0.015111
0.014640
0.013950
-0.023182
-0.006878
0.008221
-0.013011
-0.014811
-0.016300
0.002362
0.010796
0.011067
-0.009697
-0.008763
-0.012349
0.009636
-0.015089
0.014171
0.005088
-0.010812
-0.018028
-0.004788
0.009050
-0.011448
0.003763
-0.004963
0.010944
-0.016433
-0.000839
-0.015403
-0.003704
-0.020750
-0.014485
0.013366
-0.020582
-0.016171
-0.015320
0.012688
-0.000794
-0.019350
-0.019818
0.008341
-0.021366
-0.003006
-0.021147
0.017872
0.006836
0.014247
0.016623
0.006535
-0.017558
0.015207
-0.005875
-0.009142
-0.010018
0.012025
-0.018639
0.003982
-0.006631
-0.018306
0.001963
0.009039
-0.000604
0.014225
-0.020613
0.015193
-0.008311
-0.003554
-0.004064
-0.002314
-0.001461
0.016821
0.012579
0.000767
0.017234
-0.020848
-0.009786
0.010596
0.001457
-0.011662
0.003038
-0.020309
-0.007954
0.002125
-0.013228
0.001754
-0.012434
-0.010964
0.006612
-0.001085
-0.019796
0.009485
0.013816
-0.017509
0.013093
-0.009655
-0.002760
-0.019318
-0.017525
0.002474
-0.007146
0.016084
-0.008013
-0.004035
0.012409
0.008768
0.007698
-0.010020
0.000512
0.011976