# vtk DataFile Version 2.0
Test
ASCII
DATASET POLYDATA
POINTS 5510 float
0.000000 0.000000 0.000000
0.080000 0.000000 0.000000
0.080000 0.160000 0.000000
0.000000 0.160000 0.000000
0.035000 0.076250 0.000000
0.046500 0.083750 0.000000
0.002000 0.000000 0.000000
0.004000 0.000000 0.000000
0.006000 0.000000 0.000000
0.008000 0.000000 0.000000
0.010000 0.000000 0.000000
0.012000 0.000000 0.000000
0.014000 0.000000 0.000000
0.016000 0.000000 0.000000
0.018000 0.000000 0.000000
0.020000 0.000000 0.000000
0.022000 0.000000 0.000000
0.024000 0.000000 0.000000
0.026000 0.000000 0.000000
0.028000 0.000000 0.000000
0.030000 0.000000 0.000000
0.032000 0.000000 0.000000
0.034000 0.000000 0.000000
0.036000 0.000000 0.000000
0.038000 0.000000 0.000000
0.040000 0.000000 0.000000
0.042000 0.000000 0.000000
0.044000 0.000000 0.000000
0.046000 0.000000 0.000000
0.048000 0.000000 0.000000
0.050000 0.000000 0.000000
0.052000 0.000000 0.000000
0.054000 0.000000 0.000000
0.056000 0.000000 0.000000
0.058000 0.000000 0.000000
0.060000 0.000000 0.000000
0.062000 0.000000 0.000000
0.064000 0.000000 0.000000
0.066000 0.000000 0.000000
0.068000 0.000000 0.000000
0.070000 0.000000 0.000000
0.072000 0.000000 0.000000
0.074000 0.000000 0.000000
0.076000 0.000000 0.000000
0.078000 0.000000 0.000000
0.080000 0.002000 0.000000
0.080000 0.004000 0.000000
0.080000 0.006000 0.000000
0.080000 0.008000 0.000000
0.080000 0.010000 0.000000
0.080000 0.012000 0.000000
0.080000 0.014000 0.000000
0.080000 0.016000 0.000000
0.080000 0.018000 0.000000
0.080000 0.020000 0.000000
0.080000 0.022000 0.000000
0.080000 0.024000 0.000000
0.080000 0.026000 0.000000
0.080000 0.028000 0.000000
0.080000 0.030000 0.000000
0.080000 0.032000 0.000000
0.080000 0.034000 0.000000
0.080000 0.036000 0.000000
0.080000 0.038000 0.000000
0.080000 0.040000 0.000000
0.080000 0.042000 0.000000
0.080000 0.044000 0.000000
0.080000 0.046000 0.000000
0.080000 0.048000 0.000000
0.080000 0.050000 0.000000
0.080000 0.052000 0.000000
0.080000 0.054000 0.000000
0.080000 0.056000 0.000000
0.080000 0.058000 0.000000
0.080000 0.060000 0.000000
0.080000 0.062000 0.000000
0.080000 0.064000 0.000000
0.080000 0.066000 0.000000
0.080000 0.068000 0.000000
0.080000 0.070000 0.000000
0.080000 0.072000 0.000000
0.080000 0.074000 0.000000
0.080000 0.076000 0.000000
0.080000 0.078000 0.000000
0.080000 0.080000 0.000000
0.080000 0.082000 0.000000
0.080000 0.084000 0.000000
0.080000 0.086000 0.000000
0.080000 0.088000 0.000000
0.080000 0.090000 0.000000
0.080000 0.092000 0.000000
0.080000 0.094000 0.000000
0.080000 0.096000 0.000000
0.080000 0.098000 0.000000
0.080000 0.100000 0.000000
0.080000 0.102000 0.000000
0.080000 0.104000 0.000000
0.080000 0.106000 0.000000
0.080000 0.108000 0.000000
0.080000 0.110000 0.000000
0.080000 0.112000 0.000000
0.080000 0.114000 0.000000
0.080000 0.116000 0.000000
0.080000 0.118000 0.000000
0.080000 0.120000 0.000000
0.080000 0.122000 0.000000
0.080000 0.124000 0.000000
0.080000 0.126000 0.000000
0.080000 0.128000 0.000000
0.080000 0.130000 0.000000
0.080000 0.132000 0.000000
0.080000 0.134000 0.000000
0.080000 0.136000 0.000000
0.080000 0.138000 0.000000
0.080000 0.140000 0.000000
0.080000 0.142000 0.000000
0.080000 0.144000 0.000000
0.080000 0.146000 0.000000
0.080000 0.148000 0.000000
0.080000 0.150000 0.000000
0.080000 0.152000 0.000000
0.080000 0.154000 0.000000
0.080000 0.156000 0.000000
0.080000 0.158000 0.000000
0.078000 0.160000 0.000000
0.076000 0.160000 0.000000
0.074000 0.160000 0.000000
0.072000 0.160000 0.000000
0.070000 0.160000 0.000000
0.068000 0.160000 0.000000
0.066000 0.160000 0.000000
0.064000 0.160000 0.000000
0.062000 0.160000 0.000000
0.060000 0.160000 0.000000
0.058000 0.160000 0.000000
0.056000 0.160000 0.000000
0.054000 0.160000 0.000000
0.052000 0.160000 0.000000
0.050000 0.160000 0.000000
0.048000 0.160000 0.000000
0.046000 0.160000 0.000000
0.044000 0.160000 0.000000
0.042000 0.160000 0.000000
0.040000 0.160000 0.000000
0.038000 0.160000 0.000000
0.036000 0.160000 0.000000
0.034000 0.160000 0.000000
0.032000 0.160000 0.000000
0.030000 0.160000 0.000000
0.028000 0.160000 0.000000
0.026000 0.160000 0.000000
0.024000 0.160000 0.000000
0.022000 0.160000 0.000000
0.020000 0.160000 0.000000
0.018000 0.160000 0.000000
0.016000 0.160000 0.000000
0.014000 0.160000 0.000000
0.012000 0.160000 0.000000
0.010000 0.160000 0.000000
0.008000 0.160000 0.000000
0.006000 0.160000 0.000000
0.004000 0.160000 0.000000
0.002000 0.160000 0.000000
0.000000 0.158000 0.000000
0.000000 0.156000 0.000000
0.000000 0.154000 0.000000
0.000000 0.152000 0.000000
0.000000 0.150000 0.000000
0.000000 0.148000 0.000000
0.000000 0.146000 0.000000
0.000000 0.144000 0.000000
0.000000 0.142000 0.000000
0.000000 0.140000 0.000000
0.000000 0.138000 0.000000
0.000000 0.136000 0.000000
0.000000 0.134000 0.000000
0.000000 0.132000 0.000000
0.000000 0.130000 0.000000
0.000000 0.128000 0.000000
0.000000 0.126000 0.000000
0.000000 0.124000 0.000000
0.000000 0.122000 0.000000
0.000000 0.120000 0.000000
0.000000 0.118000 0.000000
0.000000 0.116000 0.000000
0.000000 0.114000 0.000000
0.000000 0.112000 0.000000
0.000000 0.110000 0.000000
0.000000 0.108000 0.000000
0.000000 0.106000 0.000000
0.000000 0.104000 0.000000
0.000000 0.102000 0.000000
0.000000 0.100000 0.000000
0.000000 0.098000 0.000000
0.000000 0.096000 0.000000
0.000000 0.094000 0.000000
0.000000 0.092000 0.000000
0.000000 0.090000 0.000000
0.000000 0.088000 0.000000
0.000000 0.086000 0.000000
0.000000 0.084000 0.000000
0.000000 0.082000 0.000000
0.000000 0.080000 0.000000
0.000000 0.078000 0.000000
0.000000 0.076000 0.000000
0.000000 0.074000 0.000000
0.000000 0.072000 0.000000
0.000000 0.070000 0.000000
0.000000 0.068000 0.000000
0.000000 0.066000 0.000000
0.000000 0.064000 0.000000
0.000000 0.062000 0.000000
0.000000 0.060000 0.000000
0.000000 0.058000 0.000000
0.000000 0.056000 0.000000
0.000000 0.054000 0.000000
0.000000 0.052000 0.000000
0.000000 0.050000 0.000000
0.000000 0.048000 0.000000
0.000000 0.046000 0.000000
0.000000 0.044000 0.000000
0.000000 0.042000 0.000000
0.000000 0.040000 0.000000
0.000000 0.038000 0.000000
0.000000 0.036000 0.000000
0.000000 0.034000 0.000000
0.000000 0.032000 0.000000
0.000000 0.030000 0.000000
0.000000 0.028000 0.000000
0.000000 0.026000 0.000000
0.000000 0.024000 0.000000
0.000000 0.022000 0.000000
0.000000 0.020000 0.000000
0.000000 0.018000 0.000000
0.000000 0.016000 0.000000
0.000000 0.014000 0.000000
0.000000 0.012000 0.000000
0.000000 0.010000 0.000000
0.000000 0.008000 0.000000
0.000000 0.006000 0.000000
0.000000 0.004000 0.000000
0.000000 0.002000 0.000000
0.035411 0.076518 0.000000
0.035821 0.076786 0.000000
0.036232 0.077054 0.000000
0.036643 0.077321 0.000000
0.037054 0.077589 0.000000
0.037464 0.077857 0.000000
0.037875 0.078125 0.000000
0.038286 0.078393 0.000000
0.038696 0.078661 0.000000
0.039107 0.078929 0.000000
0.039518 0.079196 0.000000
0.039929 0.079464 0.000000
0.040339 0.079732 0.000000
0.040750 0.080000 0.000000
0.041161 0.080268 0.000000
0.041571 0.080536 0.000000
0.041982 0.080804 0.000000
0.042393 0.081071 0.000000
0.042804 0.081339 0.000000
0.043214 0.081607 0.000000
0.043625 0.081875 0.000000
0.044036 0.082143 0.000000
0.044446 0.082411 0.000000
0.044857 0.082679 0.000000
0.045268 0.082946 0.000000
0.045679 0.083214 0.000000
0.046089 0.083482 0.000000
0.040000 0.002000 0.000000
0.040001 0.158005 0.000000
0.002000 0.116000 0.000000
0.078000 0.048000 0.000000
0.002000 0.106000 0.000000
0.078000 0.058000 0.000000
0.001986 0.042173 0.000000
0.078015 0.117826 0.000000
0.001985 0.094174 0.000000
0.001985 0.084174 0.000000
0.001914 0.056074 0.000000
0.002000 0.072000 0.000000
0.078015 0.065826 0.000000
0.078016 0.075826 0.000000
0.078000 0.088000 0.000000
0.078000 0.104000 0.000000
0.078003 0.029997 0.000000
0.001998 0.130002 0.000000
0.002000 0.032000 0.000000
0.078013 0.128003 0.000000
0.056000 0.158000 0.000000
0.026000 0.002000 0.000000
0.060000 0.002000 0.000000
0.020000 0.158000 0.000000
0.002000 0.020000 0.000000
0.078000 0.142000 0.000000
0.002000 0.146000 0.000000
0.078000 0.020000 0.000000
0.016000 0.002000 0.000000
0.068000 0.002000 0.000000
0.066000 0.158000 0.000000
0.002000 0.014000 0.000000
0.008000 0.158000 0.000000
0.010000 0.002000 0.000000
0.078000 0.148000 0.000000
0.078000 0.008000 0.000000
0.078005 0.037995 0.000000
0.051991 0.001990 0.000000
0.028000 0.158000 0.000000
0.002000 0.008000 0.000000
0.078000 0.094000 0.000000
0.078000 0.110000 0.000000
0.001983 0.066159 0.000000
0.002000 0.050000 0.000000
0.046000 0.158000 0.000000
0.078000 0.134000 0.000000
0.002000 0.140000 0.000000
0.006000 0.002000 0.000000
0.002000 0.154000 0.000000
0.074000 0.002000 0.000000
0.078000 0.152000 0.000000
0.074000 0.158000 0.000000
0.078000 0.080000 0.000000
0.078000 0.070000 0.000000
0.078000 0.122000 0.000000
0.002000 0.090000 0.000000
0.002000 0.080000 0.000000
0.002000 0.038000 0.000000
0.002000 0.102000 0.000000
0.002000 0.112000 0.000000
0.036000 0.002000 0.000000
0.078000 0.042000 0.000000
0.032000 0.002000 0.000000
0.047987 0.001989 0.000000
0.032008 0.158010 0.000000
0.002000 0.028000 0.000000
0.002000 0.126000 0.000000
0.060000 0.158000 0.000000
0.022000 0.002000 0.000000
0.002000 0.136000 0.000000
0.078000 0.024000 0.000000
0.012000 0.158000 0.000000
0.078000 0.158000 0.000000
0.001947 0.003947 0.000000
0.002000 0.158000 0.000000
0.078000 0.012000 0.000000
0.078000 0.096000 0.000000
0.078000 0.098000 0.000000
0.078000 0.082000 0.000000
0.078111 0.099889 0.000000
0.078035 0.083965 0.000000
0.078000 0.090000 0.000000
0.078000 0.106000 0.000000
0.078000 0.072000 0.000000
0.078000 0.112000 0.000000
0.078043 0.061976 0.000000
0.078000 0.114000 0.000000
0.002000 0.064000 0.000000
0.002000 0.062000 0.000000
0.002000 0.088000 0.000000
0.002000 0.078000 0.000000
0.002000 0.060000 0.000000
0.001966 0.076034 0.000000
0.002000 0.070000 0.000000
0.002000 0.054000 0.000000
0.001957 0.098024 0.000000
0.002000 0.048000 0.000000
0.002000 0.046000 0.000000
[...]
POINT_DATA 5510
SCALARS UX float 1
LOOKUP_TABLE default
0.000561
0.048459
0.000001
-0.046976
-0.001896
0.004150
0.001760
0.002960
0.004159
0.005361
0.006562
0.007765
0.008967
0.010170
0.011372
0.012575
0.013776
0.014977
0.016177
0.017376
0.018573
0.019769
0.020963
0.022157
0.023349
0.024540
0.025730
0.026919
0.028108
0.029296
0.030485
0.031673
0.032862
0.034051
0.035241
0.036433
0.037626
0.038820
0.040017
0.041215
0.042416
0.043619
0.044826
0.046036
0.047246
0.047879
0.047303
0.046732
0.046162
0.045598
0.045034
0.044476
0.043919
0.043364
0.042811
0.042259
0.041713
0.041168
0.040626
0.040087
0.039550
0.039015
0.038480
0.037946
0.037411
0.036873
0.036337
0.035797
0.035253
0.034711
0.034159
0.033603
0.033042
0.032478
0.031909
0.031336
0.030760
0.030183
0.029602
0.029019
0.028435
0.027847
0.027258
0.026667
0.026073
0.025477
0.024876
0.024267
0.023646
0.023020
0.022363
0.021682
0.020985
0.020249
0.019465
0.018682
0.017895
0.017109
0.016361
0.015641
0.014956
0.014279
0.013650
0.013030
0.012424
0.011833
0.011243
0.010664
0.010087
0.009512
0.008940
0.008368
0.007797
0.007226
0.006657
0.006088
0.005519
0.004953
0.004389
0.003826
0.003267
0.002697
0.002075
0.001260
-0.000012
-0.001246
-0.002494
-0.003734
-0.004957
-0.006175
-0.007393
-0.008607
-0.009818
-0.011027
-0.012233
-0.013438
-0.014642
-0.015843
-0.017044
-0.018242
-0.019438
-0.020632
-0.021826
-0.023018
-0.024209
-0.025399
-0.026589
-0.027778
-0.028967
-0.030156
-0.031346
-0.032536
-0.033727
-0.034919
-0.036114
-0.037310
-0.038509
-0.039710
-0.040913
-0.042119
-0.043329
-0.044543
-0.045758
-0.046393
-0.045817
-0.045241
-0.044675
-0.044111
-0.043548
-0.042991
-0.042436
-0.041883
-0.041332
-0.040784
-0.040239
-0.039695
-0.039156
-0.038619
-0.038082
-0.037546
-0.037011
-0.036476
-0.035941
-0.035404
-0.034865
-0.034324
-0.033778
-0.033233
-0.032680
-0.032122
-0.031560
-0.030994
-0.030425
-0.029852
-0.029276
-0.028698
-0.028118
-0.027535
-0.026951
-0.026363
-0.025774
-0.025183
-0.024588
-0.023993
-0.023391
-0.022782
-0.022163
-0.021541
-0.020891
-0.020222
-0.019529
-0.018820
-0.018057
-0.017286
-0.016516
-0.015741
-0.014989
-0.014260
-0.013540
-0.012882
-0.012239
-0.011606
-0.010989
-0.010387
-0.009789
-0.009206
-0.008626
-0.008048
-0.007472
-0.006898
-0.006325
-0.005752
-0.005180
-0.004607
-0.004035
-0.003462
-0.002889
-0.002315
-0.001741
-0.001167
-0.000592
-0.000016
-0.001663
-0.001427
-0.001101
-0.000786
-0.000535
-0.000353
-0.000156
0.000061
0.000205
0.000418
0.000601
0.000750
0.000951
0.001150
0.001386
0.001611
0.001839
0.002067
0.002275
0.002438
0.002607
0.002765
0.002956
0.003136
0.003358
0.003608
0.003844
0.023966
-0.022444
-0.033641
0.034035
-0.030925
0.031285
-0.010417
0.011845
-0.027577
-0.024657
-0.015296
-0.020981
0.029061
0.026143
0.022465
0.016577
0.038847
-0.037378
-0.007408
0.008877
-0.012858
0.015599
0.035860
-0.034346
-0.003976
0.004880
-0.041763
0.041581
0.009591
0.040639
-0.006815
-0.002261
-0.041538
0.005985
0.003174
0.044946
0.036709
0.031099
-0.029584
-0.000542
0.020467
0.014348
-0.019070
-0.012955
-0.018861
0.007158
-0.040099
0.003583
-0.044022
0.044244
0.002034
-0.001972
0.024898
0.027842
0.010600
-0.026357
-0.023412
-0.009150
-0.029805
-0.032567
0.021581
0.035641
0.019192
0.028719
-0.027204
-0.006261
-0.036306
-0.010445
0.013197
-0.039001
0.040475
-0.039132
0.000174
0.000591
-0.045172
0.043815
0.019743
0.018973
0.024301
0.018292
0.023728
0.021821
0.015805
0.027257
0.013666
0.030184
0.013018
-0.018301
-0.017553
-0.025772
-0.022815
-0.016779
-0.022240
-0.020342
-0.014440
-0.028701
-0.012268
-0.011612
0.032401
0.035122
0.033493
-0.032022
-0.034708
0.010020
-0.008565
0.026346
-0.024826
-0.021251
0.037777
-0.017664
-0.016465
-0.035773
0.017996
0.033479
-0.031964
-0.005689
0.008305
0.006588
-0.005118
0.006018
-0.038457
-0.015264
0.039930
-0.041207
-0.009237
0.011996
0.038246
-0.036734
0.004311
0.042694
-0.042888
-0.003405
-0.001688
-0.005600
0.008389
-0.004389
0.001459
-0.043956
0.002326
0.001052
0.046086
0.043040
0.046662
-0.031373
0.032836
-0.025204
-0.022286
-0.019812
-0.015590
-0.011703
0.023777
0.021298
0.017046
0.026690
0.012490
-0.021856
-0.034555
0.007659
-0.007945
0.018611
-0.014698
-0.005052
0.004815
0.012620
-0.037767
0.039244
-0.009870
-0.002202
0.009014
-0.040541
-0.005048
0.015296
0.033958
-0.001059
0.000806
0.043667
0.022627
0.017785
0.019259
-0.021136
-0.016369
-0.017806
-0.010440
0.021253
0.023178
0.017497
0.025603
0.026711
0.015163
0.028531
0.012436
-0.019783
-0.025224
-0.021690
-0.027046
-0.016040
-0.024115
-0.013732
-0.011020
0.029614
-0.028130
0.030754
-0.029272
0.031877
0.011324
-0.030397
-0.009884
0.032980
-0.031505
-0.033178
0.034595
-0.034196
0.036187
-0.035253
0.025150
-0.023629
0.022770
-0.020052
0.027529
-0.026011
0.009463
-0.008004
0.037244
0.020384
0.029907
-0.028391
-0.017081
0.032287
-0.030771
-0.036842
-0.006840
0.007733
0.038309
-0.004482
0.016798
0.005950
-0.014062
0.034668
-0.033153
-0.004549
0.005451
-0.037915
0.039385
-0.039548
-0.011653
0.014398
-0.040652
0.041026
-0.008027
0.010793
-0.035539
0.037052
-0.037932
0.039441
0.003742
-0.002833
-0.040334
0.042135
-0.042324
0.002607
0.043253
-0.001115
0.007186
-0.043453
-0.003178
0.044377
0.000846
0.004783
0.000033
-0.042746
0.001807
0.041839
-0.000820
-0.043377
-0.044593
0.045514
0.044874
0.045451
-0.028245
0.029724
-0.014501
0.026956
0.015896
-0.003848
-0.027840
0.031727
-0.032583
0.036478
0.042034
-0.037356
0.002534
0.036038
0.022236
-0.039756
-0.042235
0.020030
0.011253
-0.018561
0.028595
0.027317
-0.027111
-0.025827
0.025549
0.024396
-0.024061
-0.022900
0.030818
-0.029342
0.010048
-0.006790
-0.025437
-0.005627
0.037068
0.006527
-0.035614
0.016221
0.013820
0.010216
0.038866
-0.039425
-0.038316
0.006610
0.000085
-0.041104
0.040913
0.039796
-0.002662
0.000207
0.043164
0.043093
0.020635
0.021915
-0.019154
0.016196
-0.020422
0.011960
-0.014756
-0.012447
0.033420
0.026124
-0.024635
-0.009814
-0.008564
-0.031940
-0.032980
0.013773
0.014547
0.031781
0.032301
-0.030311
-0.030833
-0.023097
0.018577
0.023211
-0.034028
-0.017125
-0.021719
0.013145
0.034972
0.034457
-0.011100
-0.007373
0.008244
0.029335
0.019837
-0.018265
0.024618
-0.019513
0.007099
-0.035091
-0.030208
-0.013502
0.017415
0.038148
0.038694
-0.036679
-0.037222
0.004243
0.034099
-0.003918
-0.002771
-0.015890
0.005385
0.011421
-0.020687
-0.011075
-0.034966
-0.007456
-0.008665
-0.006249
-0.039981
0.007812
0.041262
-0.001632
-0.000488
0.004208
0.042463
-0.003853
0.003007
0.044301
0.001388
-0.000396
-0.042804
0.001232
-0.042167
-0.007375
0.033292
-0.029368
0.010643
-0.021785
-0.024745
-0.018140
-0.020020
0.026242
0.023321
0.019518
-0.032863
0.007053
-0.014125
0.019227
0.036927
0.004185
-0.035454
0.013243
-0.008099
-0.001567
0.009642
-0.038200
0.000714
-0.011284
-0.013740
0.012731
-0.003322
0.021031
-0.019581
-0.008712
0.032327
0.017442
-0.016025
-0.004425
-0.006185
-0.033874
0.016839
0.007237
0.003103
-0.039322
0.000173
0.014949
0.018900
0.012008
-0.017460
0.024991
0.027930
-0.023501
-0.026445
0.029153
-0.027672
-0.032462
0.022100
0.016543
-0.015225
0.030290
-0.028812
-0.009252
-0.020603
0.010541
-0.033465
-0.013866
-0.012854
-0.018878
-0.022461
-0.026604
0.025133
-0.023641
0.035507
-0.029787
-0.009961
0.031259
0.030508
0.021013
0.023402
0.028123
0.009428
0.008840
0.036559
-0.006211
0.031203
-0.012280
0.037613
-0.029023
-0.036144
0.003607
0.005902
-0.016506
0.015018
-0.003349
-0.029745
-0.030806
0.032913
-0.031395
0.037475
0.038571
-0.003287
-0.035998
-0.037090
-0.010502
-0.006895
0.005319
0.035288
-0.033775
-0.038870
0.010847
-0.024261
0.040353
-0.000428
0.003674
-0.036159
0.037671
-0.005699
0.040063
0.041471
0.041888
0.005409
0.001962
-0.041667
0.042598
0.002432
-0.038554
0.042521
0.043731
0.000658
-0.000999
-0.001514
-0.041592
-0.040960
0.025782
0.013428
-0.028216
-0.016465
-0.013393
0.017996
-0.018408
-0.034245
0.004705
0.026390
0.035720
-0.003233
-0.027272
0.031157
0.037096
-0.007536
-0.032012
0.010268
0.040254
0.029014
-0.035587
0.041316
-0.037980
0.015484
-0.027539
0.034828
0.002979
-0.013022
0.023708
-0.022369
-0.026403
-0.025133
0.027882
0.026623
0.021665
-0.034928
-0.011715
-0.002148
0.014438
0.039131
0.002472
0.001285
-0.040385
-0.011794
0.024669
-0.023183
-0.007947
0.011781
-0.019050
0.020327
0.011303
-0.028216
0.029670
0.030825
-0.014326
0.032789
-0.028908
-0.031846
-0.031269
-0.032361
0.022639
-0.021161
0.021384
0.007617
0.008907
-0.019918
0.020402
-0.024868
-0.023617
0.018088
-0.016627
0.025642
-0.024152
0.014149
-0.006772
0.036385
0.033806
-0.010586
0.028762
0.010096
-0.034397
-0.033360
0.024013
-0.012934
-0.030233
-0.002724
0.015643
0.006476
0.018022
-0.028461
-0.004996
-0.005604
0.031683
-0.009357
0.038021
0.032344
-0.015315
0.035341
-0.017690
-0.036541
-0.037644
0.004757
0.003042
-0.002096
-0.033202
0.034716
-0.001001
0.012045
0.039487
-0.009301
0.008439
-0.006343
0.000141
-0.029641
0.001897
0.000751
0.040687
0.041385
0.041952
0.004834
0.006037
0.001858
0.003633
-0.038761
-0.004509
-0.039888
-0.041021
-0.021290
-0.002159
-0.000412
0.032127
0.028073
-0.022131
-0.019782
-0.008913
-0.012987
0.023627
0.021334
0.021014
-0.026723
0.030598
-0.031445
-0.012371
-0.006981
-0.036429
0.000198
-0.030780
0.001274
-0.006200
0.016266
0.029673
0.025320
-0.023820
0.001343
0.007866
0.005462
-0.038109
-0.039813
-0.021892
0.017210
0.013782
0.019931
0.018464
-0.018514
-0.017044
-0.015758
0.031214
0.012323
-0.010203
0.035204
0.003559
0.022311
0.013865
0.036808
0.011467
0.002487
-0.000456
-0.002790
-0.019563
-0.031690
-0.032688
-0.033723
0.016243
0.014801
-0.030245
0.011001
0.009625
-0.014984
0.027171
-0.025686
-0.027626
-0.026615
-0.026937
0.028414
0.030397
0.009517
0.008271
0.024101
-0.022600
-0.012630
-0.017246
-0.015930
-0.005595
-0.023148
0.005267
0.006459
-0.004390
-0.026078
-0.028635
-0.007695
0.034321
0.029965
-0.011134
0.027577
0.004136
0.025177
-0.001535
0.030067
0.036266
0.018639
-0.029632
-0.035327
-0.034786
-0.003816
0.039692
-0.030822
0.033529
-0.002662
0.002414
0.009067
0.037916
-0.009933
-0.008732
-0.014746
0.035853
-0.027896
-0.034391
0.038289
-0.036987
0.035904
-0.000942
0.001327
0.040114
0.040178
0.040819
-0.005154
-0.036783
-0.001612
0.040746
0.004261
0.003059
-0.039180
-0.040453
0.022834
-0.020758
-0.012348
0.024053
-0.022561
-0.005040
-0.026677
0.028550
-0.016017
-0.021291
0.016859
0.022713
-0.017847
0.004105
-0.002048
-0.032533
-0.026161
0.033996
0.001794
0.010894
0.034144
-0.035222
-0.021435
-0.000339
-0.035013
0.015328
0.008358
-0.024858
-0.026054
0.026340
0.027500
0.028441
-0.015361
-0.011763
0.007087
0.023444
0.033123
0.025822
-0.033581
0.035063
-0.030269
0.008495
0.000122
0.036522
0.038914
-0.039243
-0.013628
-0.021569
0.023031
0.009123
0.019220
0.020673
-0.017673
-0.006831
-0.019108
-0.024139
0.025626
0.010410
0.031629
0.029020
0.013050
-0.012007
0.010727
-0.009497
-0.012280
-0.015404
-0.005024
0.024661
0.005896
-0.023165
-0.027132
-0.027032
0.022184
0.034154
-0.033209
0.034671
0.029412
0.013713
-0.008259
0.002945
0.032623
0.021755
0.027029
-0.003183
-0.029109
-0.032166
-0.029072
0.015058
0.001849
0.038480
0.039612
-0.009366
0.012661
-0.001472
-0.035878
-0.025540
-0.024329
0.019815
0.000768
0.030529
-0.008172
0.000696
0.037360
-0.013557
-0.037546
-0.005794
-0.000372
0.006663
-0.036209
-0.038609
0.004890
0.031775
-0.038675
-0.032629
0.038974
0.039543
0.001914
-0.002232
-0.001034
0.003688
-0.003968
0.017452
-0.020732
-0.031200
-0.020204
-0.021463
-0.010697
-0.014139
0.022716
0.016699
-0.025466
0.026945
0.014096
0.020489
0.030946
-0.025831
0.025996
-0.008441
-0.014991
-0.011111
0.022771
-0.000874
0.016881
0.028858
-0.029708
-0.008804
0.036721
-0.030874
0.001398
-0.024520
-0.022881
0.024373
0.000079
0.038408
-0.034444
-0.036338
-0.019763
0.021396
0.009114
0.030058
0.020333
0.018937
0.017792
0.027030
0.028085
-0.003764
-0.020279
-0.018840
-0.030539
-0.012945
-0.034668
0.014486
0.012087
-0.006429
0.006090
-0.003420
0.020430
-0.020781
0.022294
-0.017427
-0.012474
0.016192
0.012673
0.011175
-0.005811
-0.006834
-0.025683
0.009867
-0.026173
-0.010899
-0.011735
0.007688
-0.004436
-0.014739
-0.011370
0.023583
-0.016532
0.004711
-0.022123
0.008119
-0.019007
0.005965
-0.023818
-0.022592
-0.031512
0.032967
0.014426
-0.014186
0.003533
0.028210
-0.000917
0.031434
-0.027548
0.024609
-0.033045
0.028933
-0.034122
0.034522
-0.028522
-0.027330
-0.028508
-0.002679
-0.010556
0.002378
0.033625
0.032957
-0.021633
0.023138
0.001971
0.004317
-0.032016
0.009692
-0.000505
-0.001659
-0.033815
-0.035779
0.007295
0.037715
0.039045
0.001230
-0.007111
0.035610
-0.004608
0.035333
0.037780
-0.038039
0.002544
0.000245
0.038346
0.003116
-0.037406
0.018071
-0.037467
0.030028
0.033471
-0.024996
-0.009839
0.015813
0.013265
-0.023989
0.025471
0.008540
0.019739
-0.016539
-0.004553
0.029759
-0.022971
0.024453
-0.019804
0.016607
0.021407
0.013325
-0.019604
0.003561
-0.030367
-0.014875
-0.024440
0.017501
0.032286
-0.032388
0.028291
0.011514
0.001195
0.000840
-0.034024
0.023174
-0.021676
0.002596
-0.001131
0.033868
0.007924
0.033572
0.037211
0.032466
-0.026788
-0.033250
0.037844
0.005516
0.003746
-0.036271
0.014669
-0.015563
0.024632
-0.023146
0.018296
-0.005811
0.018764
-0.017997
-0.029009
-0.024690
0.027550
0.030468
-0.025216
-0.010511
0.011949
-0.025329
-0.009276
0.020801
0.026542
0.005332
0.007303
0.006526
0.025215
-0.016197
-0.031039
-0.020872
0.023923
-0.013699
-0.014319
0.031926
0.002350
-0.022105
-0.019240
-0.030056
-0.013564
0.026459
-0.026123
0.015853
0.027660
0.021798
-0.020276
0.027480
-0.020378
-0.001550
-0.002896
-0.031342
0.012131
0.000664
-0.032930
-0.011179
0.032809
-0.028005
0.015687
0.036162
0.029384
0.013277
-0.032057
0.037281
-0.009991
0.037141
0.010319
0.000818
-0.034579
-0.007613
-0.002856
-0.035637
0.000049
0.034764
-0.000307
-0.001078
0.021764
-0.007758
-0.029699
-0.004054
-0.005243
-0.036839
-0.036902
0.031202
0.019245
-0.003928
0.021599
0.022653
-0.021150
-0.010537
0.009830
-0.017289
0.019705
-0.012923
-0.011790
0.024982
-0.023497
0.017992
-0.006167
0.007679
-0.016919
0.009823
-0.017987
-0.003430
-0.024715
-0.020739
-0.017875
0.022238
-0.014643
-0.010082
0.015541
-0.019186
-0.000340
-0.014190
0.031097
-0.031218
0.010940
-0.009428
0.006858
-0.032834
-0.030303
-0.032687
0.022189
-0.012851
0.033010
-0.008836
-0.023469
0.024091
-0.022610
0.028971
-0.007387
0.030785
0.020363
0.015108
-0.005872
0.002009
0.012702
-0.009802
0.034966
0.004944
-0.003477
-0.035703
-0.035075
-0.006046
0.031770
-0.016995
0.006109
-0.024653
0.008748
0.029311
0.023544
-0.022064
-0.024152
0.025527
0.026105
-0.002286
0.010826
0.019511
-0.015601
-0.018796
0.027130
0.004168
-0.029427
-0.028665
-0.027882
-0.019321
0.023654
0.030251
-0.020428
0.002960
0.020837
0.000251
0.027109
0.012680
-0.000528
0.022219
-0.020697
-0.013986
0.024736
-0.030854
-0.026477
0.027825
0.001426
-0.025601
-0.011472
0.001780
0.024953
0.016305
0.034414
-0.027394
0.036649
-0.001701
-0.012367
0.032382
-0.031866
-0.008245
0.006716
-0.035138
0.003167
0.033330
-0.002280
0.000620
0.036587
-0.033469
0.000283
0.019861
0.018674
0.009121
0.011510
0.035527
-0.027958
0.035949
0.029457
0.015154
-0.029879
0.010219
-0.018446
-0.023280
0.018959
0.017880
-0.003242
0.014000
0.005437
-0.016085
0.017062
-0.005063
0.009044
0.018869
-0.029577
-0.007145
-0.024040
0.028069
-0.023265
0.023996
-0.018879
-0.013703
0.018593
0.020480
0.011729
-0.018773
0.003053
-0.028364
0.022778
0.018099
0.000810
0.027721
-0.025068
0.032683
0.000606
-0.008869
0.002009
-0.001135
-0.022527
-0.026774
-0.014793
0.009831
0.013656
-0.001856
0.029212
0.030592
-0.018044
-0.029219
0.008072
0.008806
0.012127
0.017854
0.003194
0.008552
0.033778
0.015717
0.031819
-0.032285
0.006141
0.035397
0.016103
-0.004837
0.022392
-0.020905
-0.013116
0.026614
-0.008107
-0.001025
0.004888
0.020905
0.021749
-0.019384
-0.020240
-0.018179
-0.009724
-0.029036
-0.018361
-0.016814
0.001792
0.019511
0.023165
-0.021689
-0.025064
-0.030199
-0.001727
-0.002902
0.010568
-0.010708
0.025896
-0.030697
0.014918
-0.012021
0.007508
0.030634
-0.031753
0.013890
-0.026919
-0.022727
-0.023712
0.036088
-0.034511
-0.009598
-0.031485
-0.004672
0.034192
-0.010607
0.028250
-0.012986
0.035462
-0.033871
0.009746
-0.029126
0.031622
0.036023
0.004370
-0.007059
0.000031
0.000848
-0.033388
-0.026227
-0.002826
-0.006703
0.019888
0.021029
0.031276
-0.021577
0.013118
-0.015117
-0.016292
0.006453
0.017457
0.005241
-0.004000
0.007684
-0.028515
-0.017237
-0.023752
0.025676
-0.003939
-0.017649
-0.009196
0.015218
0.012690
0.019694
0.009470
0.029416
-0.014210
-0.024511
-0.029050
-0.030579
-0.000544
0.011559
-0.007718
-0.002326
0.031259
0.025570
-0.011934
-0.030914
-0.006500
-0.016981
-0.015819
-0.008973
0.003753
0.017085
-0.031651
-0.010046
-0.004092
-0.033323
0.005565
0.034901
0.009179
0.030099
-0.021014
-0.002362
-0.006279
-0.017852
0.027830
0.024775
0.004288
0.023784
0.000179
0.019032
-0.027573
-0.018160
0.011171
-0.023076
-0.022878
0.028722
-0.023703
0.002445
0.014348
0.021337
-0.019817
0.001418
-0.010586
-0.028766
0.018077
0.009250
0.016620
0.025347
0.014619
0.012323
0.019962
-0.025424
-0.013148
-0.023872
0.001206
0.002605
0.033645
0.033234
0.016906
-0.019835
-0.029699
-0.021958
0.023501
0.021336
0.014509
0.034336
0.007347
-0.011789
0.003786
-0.017898
-0.033949
-0.002315
0.026726
0.013304
-0.000546
0.008607
-0.026307
-0.007684
0.034278
0.029914
0.029627
-0.028570
-0.027391
0.019285
0.001427
-0.005509
-0.004942
0.034836
0.032148
0.028886
-0.029542
0.026559
-0.002219
-0.015479
-0.019892
0.021630
-0.013606
0.008074
-0.027408
-0.027958
0.005842
0.005476
0.006849
0.024732
-0.016087
0.022746
-0.021259
0.005062
-0.021893
0.023041
-0.012852
-0.016936
0.017721
0.014324
-0.018444
0.018719
0.028241
0.001299
0.023627
0.027152
-0.027923
0.031508
-0.009483
0.027409
-0.021594
-0.027240
-0.025687
0.003214
0.007728
0.013292
-0.007129
0.016900
0.011266
0.009970
-0.001713
0.026480
-0.023356
0.006754
0.033101
0.032606
0.033727
0.016325
-0.003513
-0.032767
-0.026842
0.004210
0.001947
0.006801
0.021929
-0.020446
-0.012633
0.018688
0.019217
-0.008692
-0.017441
0.025153
0.028003
0.028921
-0.007075
0.013971
-0.000729
0.015780
0.002878
0.022243
-0.022391
0.012091
0.001288
0.000051
-0.001119
-0.009938
0.026030
-0.028115
0.020099
0.020894
-0.019381
-0.028579
-0.018574
-0.020764
0.022250
-0.022159
-0.024055
-0.005300
-0.011014
0.007984
-0.032089
0.004396
-0.030053
-0.025858
-0.002903
-0.032197
0.004991
0.030062
0.015126
0.012738
-0.008743
0.008877
-0.012412
-0.011213
-0.025670
0.032446
-0.026492
-0.001755
0.010364
0.020450
-0.031106
0.001991
0.030437
0.001941
0.024822
-0.029734
0.027116
-0.022742
-0.002929
-0.016377
-0.019373
-0.014318
-0.017147
-0.015331
-0.014695
0.006436
-0.004148
-0.005257
0.023824
0.021830
-0.020339
-0.016819
0.022862
-0.021351
-0.019560
-0.008828
0.018104
0.011229
0.001671
-0.017704
0.002417
0.021856
0.015730
0.012169
-0.023979
-0.001079
-0.016420
0.008550
-0.029414
-0.001299
0.024552
0.025605
-0.011439
-0.007959
0.014815
-0.021828
0.012540
0.018970
-0.014340
-0.002901
-0.004093
-0.029174
-0.030485
0.008601
0.005595
0.032551
0.029532
0.027760
0.026481
-0.031598
-0.002954
0.019881
-0.013364
-0.016179
-0.018979
0.006017
0.020485
0.021039
-0.007492
-0.005963
-0.012292
0.018229
-0.016652
0.026656
0.010575
-0.009647
-0.021947
0.000523
0.017244
-0.010777
0.008321
-0.005961
0.020519
-0.018993
0.000815
-0.017367
0.002569
-0.026916
-0.015639
0.025034
-0.026975
-0.021679
-0.020489
0.023788
0.000672
-0.024395
-0.025235
0.016113
-0.028389
0.003778
-0.027669
0.033170
0.013778
0.028323
0.030977
0.017516
-0.021098
0.028455
-0.001146
-0.011823
-0.013054
0.022568
-0.025130
0.013931
-0.008302
-0.022747
0.010985
0.021036
0.007381
0.026637
-0.028005
0.028749
-0.010658
0.002560
-0.004698
-0.001676
0.006177
0.031925
0.025989
0.003314
0.032051
-0.027450
-0.007838
0.023100
0.004474
-0.015352
0.007120
-0.026103
-0.004638
0.005605
-0.017571
0.005168
-0.012555
-0.010111
0.013548
0.000560
-0.025870
0.021441
0.026599
-0.023439
0.026595
-0.012437
-0.002196
-0.024615
-0.021610
0.011593
-0.008916
0.030328
-0.004903
0.001571
0.023584
0.016905
0.015193
-0.008471
0.003056
0.022775
-0.020663
0.018195
0.007372
0.003755
-0.025538
-0.027453
-0.020007
0.004982
0.031375
0.027309
-0.026774
0.013347
-0.000461
0.017482
-0.015434