# vtk DataFile Version 2.0
Test
ASCII
DATASET POLYDATA
POINTS 5510 float
0.000000 0.000000 0.000000
0.080000 0.000000 0.000000
0.080000 0.160000 0.000000
0.000000 0.160000 0.000000
0.035000 0.076250 0.000000
0.046500 0.083750 0.000000
0.002000 0.000000 0.000000
0.004000 0.000000 0.000000
0.006000 0.000000 0.000000
0.008000 0.000000 0.000000
0.010000 0.000000 0.000000
0.012000 0.000000 0.000000
0.014000 0.000000 0.000000
0.016000 0.000000 0.000000
0.018000 0.000000 0.000000
0.020000 0.000000 0.000000
0.022000 0.000000 0.000000
0.024000 0.000000 0.000000
0.026000 0.000000 0.000000
0.028000 0.000000 0.000000
0.030000 0.000000 0.000000
0.032000 0.000000 0.000000
0.034000 0.000000 0.000000
0.036000 0.000000 0.000000
0.038000 0.000000 0.000000
0.040000 0.000000 0.000000
0.042000 0.000000 0.000000
0.044000 0.000000 0.000000
0.046000 0.000000 0.000000
0.048000 0.000000 0.000000
0.050000 0.000000 0.000000
0.052000 0.000000 0.000000
0.054000 0.000000 0.000000
0.056000 0.000000 0.000000
0.058000 0.000000 0.000000
0.060000 0.000000 0.000000
0.062000 0.000000 0.000000
0.064000 0.000000 0.000000
0.066000 0.000000 0.000000
0.068000 0.000000 0.000000
0.070000 0.000000 0.000000
0.072000 0.000000 0.000000
0.074000 0.000000 0.000000
0.076000 0.000000 0.000000
0.078000 0.000000 0.000000
0.080000 0.002000 0.000000
0.080000 0.004000 0.000000
0.080000 0.006000 0.000000
0.080000 0.008000 0.000000
0.080000 0.010000 0.000000
0.080000 0.012000 0.000000
0.080000 0.014000 0.000000
0.080000 0.016000 0.000000
0.080000 0.018000 0.000000
0.080000 0.020000 0.000000
0.080000 0.022000 0.000000
0.080000 0.024000 0.000000
0.080000 0.026000 0.000000
0.080000 0.028000 0.000000
0.080000 0.030000 0.000000
0.080000 0.032000 0.000000
0.080000 0.034000 0.000000
0.080000 0.036000 0.000000
0.080000 0.038000 0.000000
0.080000 0.040000 0.000000
0.080000 0.042000 0.000000
0.080000 0.044000 0.000000
0.080000 0.046000 0.000000
0.080000 0.048000 0.000000
0.080000 0.050000 0.000000
0.080000 0.052000 0.000000
0.080000 0.054000 0.000000
0.080000 0.056000 0.000000
0.080000 0.058000 0.000000
0.080000 0.060000 0.000000
0.080000 0.062000 0.000000
0.080000 0.064000 0.000000
0.080000 0.066000 0.000000
0.080000 0.068000 0.000000
0.080000 0.070000 0.000000
0.080000 0.072000 0.000000
0.080000 0.074000 0.000000
0.080000 0.076000 0.000000
0.080000 0.078000 0.000000
0.080000 0.080000 0.000000
0.080000 0.082000 0.000000
0.080000 0.084000 0.000000
0.080000 0.086000 0.000000
0.080000 0.088000 0.000000
0.080000 0.090000 0.000000
0.080000 0.092000 0.000000
0.080000 0.094000 0.000000
0.080000 0.096000 0.000000
0.080000 0.098000 0.000000
0.080000 0.100000 0.000000
0.080000 0.102000 0.000000
0.080000 0.104000 0.000000
0.080000 0.106000 0.000000
0.080000 0.108000 0.000000
0.080000 0.110000 0.000000
0.080000 0.112000 0.000000
0.080000 0.114000 0.000000
0.080000 0.116000 0.000000
0.080000 0.118000 0.000000
0.080000 0.120000 0.000000
0.080000 0.122000 0.000000
0.080000 0.124000 0.000000
0.080000 0.126000 0.000000
0.080000 0.128000 0.000000
0.080000 0.130000 0.000000
0.080000 0.132000 0.000000
0.080000 0.134000 0.000000
0.080000 0.136000 0.000000
0.080000 0.138000 0.000000
0.080000 0.140000 0.000000
0.080000 0.142000 0.000000
0.080000 0.144000 0.000000
0.080000 0.146000 0.000000
0.080000 0.148000 0.000000
0.080000 0.150000 0.000000
0.080000 0.152000 0.000000
0.080000 0.154000 0.000000
0.080000 0.156000 0.000000
0.080000 0.158000 0.000000
0.078000 0.160000 0.000000
0.076000 0.160000 0.000000
0.074000 0.160000 0.000000
0.072000 0.160000 0.000000
0.070000 0.160000 0.000000
0.068000 0.160000 0.000000
0.066000 0.160000 0.000000
0.064000 0.160000 0.000000
0.062000 0.160000 0.000000
0.060000 0.160000 0.000000
0.058000 0.160000 0.000000
0.056000 0.160000 0.000000
0.054000 0.160000 0.000000
0.052000 0.160000 0.000000
0.050000 0.160000 0.000000
0.048000 0.160000 0.000000
0.046000 0.160000 0.000000
0.044000 0.160000 0.000000
0.042000 0.160000 0.000000
0.040000 0.160000 0.000000
0.038000 0.160000 0.000000
0.036000 0.160000 0.000000
0.034000 0.160000 0.000000
0.032000 0.160000 0.000000
0.030000 0.160000 0.000000
0.028000 0.160000 0.000000
0.026000 0.160000 0.000000
0.024000 0.160000 0.000000
0.022000 0.160000 0.000000
0.020000 0.160000 0.000000
0.018000 0.160000 0.000000
0.016000 0.160000 0.000000
0.014000 0.160000 0.000000
0.012000 0.160000 0.000000
0.010000 0.160000 0.000000
0.008000 0.160000 0.000000
0.006000 0.160000 0.000000
0.004000 0.160000 0.000000
0.002000 0.160000 0.000000
0.000000 0.158000 0.000000
0.000000 0.156000 0.000000
0.000000 0.154000 0.000000
0.000000 0.152000 0.000000
0.000000 0.150000 0.000000
0.000000 0.148000 0.000000
0.000000 0.146000 0.000000
0.000000 0.144000 0.000000
0.000000 0.142000 0.000000
0.000000 0.140000 0.000000
0.000000 0.138000 0.000000
0.000000 0.136000 0.000000
0.000000 0.134000 0.000000
0.000000 0.132000 0.000000
0.000000 0.130000 0.000000
0.000000 0.128000 0.000000
0.000000 0.126000 0.000000
0.000000 0.124000 0.000000
0.000000 0.122000 0.000000
0.000000 0.120000 0.000000
0.000000 0.118000 0.000000
0.000000 0.116000 0.000000
0.000000 0.114000 0.000000
0.000000 0.112000 0.000000
0.000000 0.110000 0.000000
0.000000 0.108000 0.000000
0.000000 0.106000 0.000000
0.000000 0.104000 0.000000
0.000000 0.102000 0.000000
0.000000 0.100000 0.000000
0.000000 0.098000 0.000000
0.000000 0.096000 0.000000
0.000000 0.094000 0.000000
0.000000 0.092000 0.000000
0.000000 0.090000 0.000000
0.000000 0.088000 0.000000
0.000000 0.086000 0.000000
0.000000 0.084000 0.000000
0.000000 0.082000 0.000000
0.000000 0.080000 0.000000
0.000000 0.078000 0.000000
0.000000 0.076000 0.000000
0.000000 0.074000 0.000000
0.000000 0.072000 0.000000
0.000000 0.070000 0.000000
0.000000 0.068000 0.000000
0.000000 0.066000 0.000000
0.000000 0.064000 0.000000
0.000000 0.062000 0.000000
0.000000 0.060000 0.000000
0.000000 0.058000 0.000000
0.000000 0.056000 0.000000
0.000000 0.054000 0.000000
0.000000 0.052000 0.000000
0.000000 0.050000 0.000000
0.000000 0.048000 0.000000
0.000000 0.046000 0.000000
0.000000 0.044000 0.000000
0.000000 0.042000 0.000000
0.000000 0.040000 0.000000
0.000000 0.038000 0.000000
0.000000 0.036000 0.000000
0.000000 0.034000 0.000000
0.000000 0.032000 0.000000
0.000000 0.030000 0.000000
0.000000 0.028000 0.000000
0.000000 0.026000 0.000000
0.000000 0.024000 0.000000
0.000000 0.022000 0.000000
0.000000 0.020000 0.000000
0.000000 0.018000 0.000000
0.000000 0.016000 0.000000
0.000000 0.014000 0.000000
0.000000 0.012000 0.000000
0.000000 0.010000 0.000000
0.000000 0.008000 0.000000
0.000000 0.006000 0.000000
0.000000 0.004000 0.000000
0.000000 0.002000 0.000000
0.035411 0.076518 0.000000
0.035821 0.076786 0.000000
0.036232 0.077054 0.000000
0.036643 0.077321 0.000000
0.037054 0.077589 0.000000
0.037464 0.077857 0.000000
0.037875 0.078125 0.000000
0.038286 0.078393 0.000000
0.038696 0.078661 0.000000
0.039107 0.078929 0.000000
0.039518 0.079196 0.000000
0.039929 0.079464 0.000000
0.040339 0.079732 0.000000
0.040750 0.080000 0.000000
0.041161 0.080268 0.000000
0.041571 0.080536 0.000000
0.041982 0.080804 0.000000
0.042393 0.081071 0.000000
0.042804 0.081339 0.000000
0.043214 0.081607 0.000000
0.043625 0.081875 0.000000
0.044036 0.082143 0.000000
0.044446 0.082411 0.000000
0.044857 0.082679 0.000000
0.045268 0.082946 0.000000
0.045679 0.083214 0.000000
0.046089 0.083482 0.000000
0.040000 0.002000 0.000000
0.040001 0.158005 0.000000
0.002000 0.116000 0.000000
0.078000 0.048000 0.000000
0.002000 0.106000 0.000000
0.078000 0.058000 0.000000
0.001986 0.042173 0.000000
0.078015 0.117826 0.000000
0.001985 0.094174 0.000000
0.001985 0.084174 0.000000
0.001914 0.056074 0.000000
0.002000 0.072000 0.000000
0.078015 0.065826 0.000000
0.078016 0.075826 0.000000
0.078000 0.088000 0.000000
0.078000 0.104000 0.000000
0.078003 0.029997 0.000000
0.001998 0.130002 0.000000
0.002000 0.032000 0.000000
0.078013 0.128003 0.000000
0.056000 0.158000 0.000000
0.026000 0.002000 0.000000
0.060000 0.002000 0.000000
0.020000 0.158000 0.000000
0.002000 0.020000 0.000000
0.078000 0.142000 0.000000
0.002000 0.146000 0.000000
0.078000 0.020000 0.000000
0.016000 0.002000 0.000000
0.068000 0.002000 0.000000
0.066000 0.158000 0.000000
0.002000 0.014000 0.000000
0.008000 0.158000 0.000000
0.010000 0.002000 0.000000
0.078000 0.148000 0.000000
0.078000 0.008000 0.000000
0.078005 0.037995 0.000000
0.051991 0.001990 0.000000
0.028000 0.158000 0.000000
0.002000 0.008000 0.000000
0.078000 0.094000 0.000000
0.078000 0.110000 0.000000
0.001983 0.066159 0.000000
0.002000 0.050000 0.000000
0.046000 0.158000 0.000000
0.078000 0.134000 0.000000
0.002000 0.140000 0.000000
0.006000 0.002000 0.000000
0.002000 0.154000 0.000000
0.074000 0.002000 0.000000
0.078000 0.152000 0.000000
0.074000 0.158000 0.000000
0.078000 0.080000 0.000000
0.078000 0.070000 0.000000
0.078000 0.122000 0.000000
0.002000 0.090000 0.000000
0.002000 0.080000 0.000000
0.002000 0.038000 0.000000
0.002000 0.102000 0.000000
0.002000 0.112000 0.000000
0.036000 0.002000 0.000000
0.078000 0.042000 0.000000
0.032000 0.002000 0.000000
0.047987 0.001989 0.000000
0.032008 0.158010 0.000000
0.002000 0.028000 0.000000
0.002000 0.126000 0.000000
0.060000 0.158000 0.000000
0.022000 0.002000 0.000000
0.002000 0.136000 0.000000
0.078000 0.024000 0.000000
0.012000 0.158000 0.000000
0.078000 0.158000 0.000000
0.001947 0.003947 0.000000
0.002000 0.158000 0.000000
0.078000 0.012000 0.000000
0.078000 0.096000 0.000000
0.078000 0.098000 0.000000
0.078000 0.082000 0.000000
0.078111 0.099889 0.000000
0.078035 0.083965 0.000000
0.078000 0.090000 0.000000
0.078000 0.106000 0.000000
0.078000 0.072000 0.000000
0.078000 0.112000 0.000000
0.078043 0.061976 0.000000
0.078000 0.114000 0.000000
0.002000 0.064000 0.000000
0.002000 0.062000 0.000000
0.002000 0.088000 0.000000
0.002000 0.078000 0.000000
0.002000 0.060000 0.000000
0.001966 0.076034 0.000000
0.002000 0.070000 0.000000
0.002000 0.054000 0.000000
0.001957 0.098024 0.000000
0.002000 0.048000 0.000000
0.002000 0.046000 0.000000
[...]
POINT_DATA 5510
SCALARS UX float 1
LOOKUP_TABLE default
-0.009192
0.005234
0.000000
-0.014131
-0.005566
-0.003103
-0.008830
-0.008467
-0.008105
-0.007742
-0.007380
-0.007018
-0.006656
-0.006295
-0.005933
-0.005573
-0.005212
-0.004852
-0.004492
-0.004133
-0.003773
-0.003414
-0.003056
-0.002697
-0.002338
-0.001980
-0.001621
-0.001263
-0.000904
-0.000546
-0.000187
0.000172
0.000532
0.000891
0.001251
0.001611
0.001972
0.002333
0.002695
0.003056
0.003419
0.003781
0.004144
0.004507
0.004870
0.005176
0.005119
0.005062
0.005006
0.004949
0.004893
0.004836
0.004780
0.004725
0.004669
0.004614
0.004559
0.004505
0.004452
0.004399
0.004346
0.004295
0.004245
0.004195
0.004147
0.004099
0.004052
0.004007
0.003963
0.003919
0.003876
0.003834
0.003791
0.003749
0.003706
0.003662
0.003617
0.003570
0.003521
0.003469
0.003415
0.003356
0.003293
0.003226
0.003154
0.003079
0.002998
0.002911
0.002820
0.002727
0.002630
0.002531
0.002431
0.002332
0.002234
0.002139
0.002048
0.001958
0.001874
0.001794
0.001718
0.001644
0.001575
0.001507
0.001442
0.001379
0.001317
0.001257
0.001198
0.001140
0.001083
0.001026
0.000969
0.000913
0.000858
0.000802
0.000747
0.000692
0.000637
0.000583
0.000530
0.000478
0.000417
0.000301
-0.000002
-0.000383
-0.000758
-0.001129
-0.001496
-0.001861
-0.002225
-0.002588
-0.002951
-0.003313
-0.003674
-0.004035
-0.004396
-0.004756
-0.005116
-0.005475
-0.005834
-0.006193
-0.006552
-0.006911
-0.007270
-0.007629
-0.007988
-0.008347
-0.008706
-0.009065
-0.009425
-0.009785
-0.010145
-0.010505
-0.010866
-0.011228
-0.011589
-0.011952
-0.012314
-0.012677
-0.013040
-0.013404
-0.013767
-0.014073
-0.014016
-0.013959
-0.013903
-0.013846
-0.013790
-0.013734
-0.013679
-0.013623
-0.013568
-0.013514
-0.013460
-0.013406
-0.013353
-0.013301
-0.013249
-0.013198
-0.013148
-0.013099
-0.013051
-0.013003
-0.012957
-0.012911
-0.012866
-0.012822
-0.012778
-0.012735
-0.012691
-0.012647
-0.012603
-0.012557
-0.012510
-0.012462
-0.012411
-0.012357
-0.012302
-0.012242
-0.012178
-0.012111
-0.012039
-0.011965
-0.011886
-0.011801
-0.011713
-0.011622
-0.011528
-0.011432
-0.011335
-0.011239
-0.011143
-0.011050
-0.010960
-0.010871
-0.010787
-0.010707
-0.010628
-0.010555
-0.010485
-0.010416
-0.010350
-0.010286
-0.010222
-0.010162
-0.010102
-0.010043
-0.009985
-0.009927
-0.009870
-0.009814
-0.009757
-0.009701
-0.009645
-0.009589
-0.009532
-0.009476
-0.009420
-0.009363
-0.009307
-0.009250
-0.005468
-0.005371
-0.005239
-0.005110
-0.005008
-0.004934
-0.004853
-0.004764
-0.004704
-0.004618
-0.004543
-0.004483
-0.004402
-0.004321
-0.004224
-0.004130
-0.004039
-0.003945
-0.003862
-0.003802
-0.003736
-0.003672
-0.003595
-0.003522
-0.003432
-0.003331
-0.003232
-0.002036
-0.006855
-0.012590
0.003596
-0.012371
0.003386
-0.010054
0.001145
-0.012111
-0.011832
-0.010605
-0.011353
0.003219
0.002948
0.002461
0.001673
0.004033
-0.012935
-0.009735
0.000833
-0.003978
-0.004549
0.001554
-0.010449
-0.009393
0.000438
-0.013370
0.004304
-0.006351
0.002999
-0.002169
-0.009225
-0.012620
-0.007437
0.000273
0.004642
0.003829
0.000114
-0.009009
-0.009057
0.002164
0.001421
-0.011077
-0.010333
-0.005778
0.000660
-0.013204
-0.008162
-0.013596
0.004087
0.000163
-0.000713
0.002801
0.003114
0.001010
-0.012002
-0.011686
-0.009916
-0.012285
-0.012500
-0.002753
0.003732
-0.003471
-0.000604
-0.008289
-0.009619
-0.012832
-0.003256
-0.005269
-0.013094
0.004194
-0.011894
-0.000030
-0.008952
-0.013709
0.004529
0.002063
0.001962
0.002724
0.001888
0.002648
0.002365
0.001585
0.003059
0.001345
0.003310
0.001273
-0.010968
-0.010869
-0.011946
-0.011609
-0.010772
-0.011535
-0.011260
-0.010499
-0.012206
-0.010257
-0.010184
0.003469
0.003690
0.003553
-0.012457
-0.012684
0.000949
-0.009855
-0.001319
-0.007572
-0.006496
0.003930
-0.005419
-0.005059
-0.012782
-0.003830
0.000834
-0.009728
-0.009562
0.000776
0.000604
-0.009506
0.000549
-0.013040
-0.004699
0.004140
-0.013314
-0.002894
-0.005629
0.002276
-0.011171
0.000383
0.004416
-0.013482
-0.009337
-0.009169
-0.001805
-0.006713
-0.001441
0.000109
-0.013346
-0.008552
-0.008952
0.004756
0.003724
0.004813
-0.012146
0.003241
-0.011659
-0.011350
-0.011004
-0.010423
-0.009975
0.002467
0.002113
0.001549
0.002772
0.000995
-0.006792
-0.012420
0.000467
-0.009558
-0.003530
-0.004646
-0.009255
0.000185
-0.005326
-0.012729
0.003829
-0.003200
-0.008974
-0.006408
-0.013006
-0.001752
0.001314
0.003348
-0.008862
-0.000203
0.004029
0.002317
0.001606
0.001810
-0.011203
-0.010514
-0.010712
-0.009833
0.002285
0.002572
0.001788
0.002891
0.003011
0.001518
0.003180
0.001213
-0.011183
-0.011896
-0.011461
-0.012070
-0.010688
-0.011775
-0.010424
-0.010123
0.003266
-0.012160
0.003352
-0.012250
0.003435
0.001092
-0.012335
-0.010000
0.003518
-0.012421
-0.012556
0.003646
-0.012642
0.003783
-0.012735
-0.001681
-0.007210
-0.002397
-0.006135
-0.000964
-0.007929
0.000894
-0.009799
0.003879
-0.003113
-0.000246
-0.008647
-0.005359
0.000474
-0.009367
-0.012883
-0.009678
0.000718
0.003981
-0.009198
-0.004189
0.000297
-0.004339
0.001194
-0.010087
-0.009450
0.000494
-0.012987
0.004086
-0.013149
-0.003618
-0.004909
-0.013259
0.004249
-0.002532
-0.005990
-0.010809
0.001915
-0.011532
0.002637
0.000328
-0.009281
-0.012257
0.004360
-0.013426
0.000218
0.004472
-0.009113
-0.007075
-0.013539
-0.001077
0.004585
0.000048
-0.007799
-0.009001
-0.012983
-0.008581
0.003361
-0.000355
-0.013289
-0.013652
0.004699
0.004392
0.004450
-0.011914
0.003016
-0.010097
-0.001022
0.001189
-0.008893
-0.008597
0.000420
-0.010032
0.001858
0.004108
-0.011475
-0.000036
0.003521
-0.002443
-0.012200
-0.013175
0.001945
0.000863
-0.010843
0.002952
0.002835
-0.011846
-0.011727
0.002669
0.002547
-0.011553
-0.011431
0.003106
-0.012006
0.000739
-0.009436
-0.007870
-0.009314
0.003615
0.000355
-0.012521
-0.004246
-0.004966
-0.006047
0.002580
-0.012894
-0.012784
-0.007132
-0.008750
-0.013062
0.003996
0.003884
-0.001029
-0.000261
0.004222
0.003972
0.002019
0.002218
-0.010913
0.001457
-0.011105
0.000945
-0.010328
-0.010077
0.003312
0.002725
-0.011611
-0.009778
-0.009631
-0.012201
-0.012285
0.001147
0.001234
0.003164
0.003204
-0.012067
-0.012107
-0.007165
0.001720
0.002392
-0.012376
-0.010621
-0.011276
0.001073
0.003423
0.003380
-0.009912
-0.009498
0.000531
-0.000303
-0.003163
-0.005714
-0.001727
-0.006088
0.000412
-0.012472
-0.009313
-0.004287
-0.003889
0.003721
0.003775
-0.012622
-0.012676
0.000130
0.001138
-0.009143
-0.009029
-0.005003
0.000242
-0.005686
-0.006441
-0.003561
-0.010753
-0.002477
-0.002839
-0.002115
-0.012950
-0.006770
0.003304
-0.008918
-0.008806
-0.007856
0.003667
-0.001390
-0.008219
0.004335
-0.000147
-0.000321
-0.013232
-0.008638
-0.012925
-0.009278
0.003030
-0.011761
0.000582
-0.011102
-0.011406
-0.010591
-0.006354
0.002520
0.002232
0.001665
-0.012024
0.000173
-0.004589
-0.003231
0.003359
-0.000120
-0.012260
-0.005023
-0.002785
-0.008666
-0.006103
-0.012530
-0.008443
-0.009738
-0.010003
0.000823
-0.001339
0.001916
-0.010818
-0.009433
0.002981
0.001385
-0.010299
-0.008954
-0.009143
-0.012112
-0.003946
-0.006826
0.000019
-0.012642
-0.000510
0.001092
0.001603
0.000744
-0.010509
0.002609
0.002888
-0.011492
-0.011780
0.002976
-0.011872
-0.012238
0.002063
0.001255
-0.010189
0.003058
-0.011958
-0.009729
-0.010945
0.000782
-0.012324
-0.010227
-0.010088
-0.006011
-0.007087
-0.008224
0.002412
-0.011297
0.003471
-0.012026
-0.009573
0.003123
0.000052
-0.002809
-0.002091
-0.000669
0.000661
0.000596
0.003570
-0.009375
0.002863
-0.003922
0.003669
-0.008954
-0.012571
-0.000178
0.000051
-0.005302
-0.004607
-0.009087
-0.011769
-0.011875
0.000779
-0.009672
0.003413
0.003520
-0.008838
-0.012313
-0.012420
-0.003505
-0.002422
-0.000008
0.001498
-0.010392
-0.012839
-0.005742
-0.007516
0.003940
-0.008555
0.000074
-0.011113
0.002219
-0.002061
0.002942
0.004052
0.003609
-0.007494
-0.000091
-0.013118
0.004165
-0.008275
-0.011837
0.003915
0.004278
-0.008694
-0.000623
-0.000672
-0.012868
-0.012562
-0.001375
0.000894
-0.011422
-0.010185
-0.009779
0.001298
-0.005983
-0.011901
-0.000305
-0.001077
0.003000
-0.008595
-0.008541
0.000364
0.002162
-0.002729
-0.009975
-0.005800
0.003689
0.002716
-0.011057
0.003552
-0.011780
0.000955
-0.011615
0.003163
-0.000482
-0.009931
0.002267
-0.011195
-0.011527
-0.011436
0.002630
0.002546
-0.002500
-0.012210
-0.003868
-0.008725
-0.004665
0.003577
-0.000288
-0.008388
-0.012505
-0.009789
0.002376
-0.011261
-0.009344
0.000529
-0.010733
0.001794
0.000656
-0.011666
0.002758
0.002854
-0.009898
0.002998
-0.011720
-0.011955
-0.011909
-0.011980
0.002138
-0.011013
0.001936
0.000233
0.000390
-0.010837
-0.002878
-0.007814
-0.007437
0.001465
-0.010366
0.002452
-0.011338
0.000983
-0.009208
0.003309
0.003074
-0.009645
-0.000361
0.000522
-0.012161
-0.012065
-0.001794
-0.004233
-0.011805
-0.008782
-0.004304
0.000111
-0.003591
-0.008901
-0.009014
-0.009079
0.002897
-0.009505
0.003466
0.000723
-0.004945
0.003210
-0.005656
-0.012366
-0.012476
-0.000063
-0.000232
-0.008479
-0.010336
0.001441
-0.008611
-0.005382
0.002885
-0.003145
-0.006465
-0.002368
-0.008500
-0.009257
-0.000344
-0.000455
0.003247
0.003802
0.003858
-0.007550
-0.007188
-0.008331
-0.007913
-0.012586
-0.001700
-0.012699
-0.012812
-0.006736
-0.000980
-0.000566
0.002682
0.002396
-0.010947
-0.010676
-0.009250
-0.009555
0.002064
0.001808
-0.002580
-0.008490
0.000311
-0.009921
-0.004178
-0.002674
-0.012113
-0.008249
-0.011615
-0.000649
-0.008930
-0.004003
0.002514
0.002240
-0.011126
-0.008137
-0.006521
-0.007245
-0.012279
-0.012448
-0.007030
0.001176
0.000786
0.001592
0.001367
-0.010497
-0.010256
-0.010077
0.002650
0.000579
-0.009429
0.002954
-0.000422
0.001924
-0.004722
0.003105
-0.005441
-0.008025
-0.000817
-0.001287
-0.006331
-0.011674
-0.011759
-0.011853
0.001077
0.000873
-0.011578
0.000402
0.000241
-0.009979
0.002587
-0.011480
-0.011376
-0.011298
-0.011566
0.002669
0.002813
0.000453
0.000312
0.002090
-0.010971
-0.009685
-0.005636
-0.005244
-0.008858
-0.007409
-0.000246
-0.000115
-0.008722
-0.008179
-0.011434
-0.009108
0.003119
0.000003
-0.003809
-0.000719
-0.000363
-0.001442
-0.008423
0.002524
0.003053
-0.003293
-0.011521
-0.012005
-0.011953
-0.008660
0.003632
-0.009615
0.001082
-0.008536
-0.000537
-0.006161
0.003215
-0.003449
-0.003088
-0.004889
0.003257
-0.008846
-0.010695
0.002523
-0.012168
0.001801
-0.008363
-0.000399
0.003190
0.003439
0.003745
-0.002008
-0.011418
-0.000927
0.003496
-0.007607
-0.007969
-0.012142
-0.012755
-0.002147
-0.010794
-0.009850
0.002298
-0.011180
-0.008586
-0.011062
0.002175
-0.009967
-0.010675
0.000977
0.001774
-0.005928
-0.000596
-0.008239
-0.011499
-0.008436
0.002596
-0.000838
-0.005497
0.001385
-0.011752
-0.007006
-0.008065
-0.011000
0.000799
0.000148
-0.011172
-0.011259
0.002278
0.002355
0.002398
-0.005187
-0.004110
-0.000032
-0.001850
0.002765
-0.001134
-0.011595
0.002695
-0.009564
-0.006217
-0.000761
0.002105
0.002828
-0.012392
-0.009632
-0.010877
0.001984
0.000202
0.001457
0.001684
-0.010344
-0.009035
-0.010554
-0.011102
0.002211
0.000345
0.002652
0.002456
0.000674
-0.009622
0.000217
-0.009314
-0.009454
-0.009875
-0.008793
0.002147
-0.000176
-0.011033
-0.011088
-0.011310
-0.002229
0.002856
-0.011806
0.002904
-0.000048
0.000563
-0.009175
-0.000719
0.002723
0.001847
-0.000769
-0.008368
-0.011469
-0.011711
-0.009201
-0.004365
-0.000592
0.003270
0.003383
-0.003392
-0.005083
-0.008178
-0.012059
-0.008132
-0.007766
-0.002940
-0.008193
0.002555
-0.003033
-0.000706
0.003159
-0.004534
-0.012223
-0.002314
-0.008306
-0.006883
-0.011362
-0.012086
-0.007301
0.000667
-0.012335
-0.010279
0.003077
0.003133
-0.008081
-0.001233
-0.000872
-0.007663
-0.001647
-0.003648
-0.006682
-0.011632
-0.010718
-0.010921
-0.009481
-0.009691
0.001963
0.001123
-0.011212
0.002315
0.000789
0.001699
0.002331
-0.010787
0.001997
-0.009011
-0.009668
-0.009143
-0.001939
-0.007887
-0.003705
-0.000100
-0.011281
-0.003335
0.002856
-0.009864
-0.007888
-0.010893
-0.010832
0.001944
-0.001008
0.003021
-0.010945
-0.011861
-0.010496
0.001651
-0.000012
0.002309
0.001513
0.001301
0.001169
0.002074
0.002144
-0.008441
-0.006659
-0.010396
-0.011330
-0.004464
-0.011698
-0.004422
-0.005140
-0.002619
-0.006940
-0.001593
-0.002642
-0.010616
0.001738
-0.010176
-0.009327
0.000867
0.000448
0.000246
-0.008720
-0.008836
-0.010991
0.000056
-0.011026
-0.009294
-0.009404
0.000033
-0.008510
-0.009774
-0.009557
0.001837
-0.005532
-0.000523
-0.010730
-0.000117
-0.006277
-0.000369
-0.007726
-0.007356
-0.011408
0.002503
0.000652
-0.004835
-0.000657
-0.000412
-0.008124
0.002371
-0.011107
-0.001498
-0.011544
0.002186
-0.011646
0.002643
-0.009151
-0.008790
-0.011189
-0.008323
-0.003749
-0.000777
0.002808
0.001025
-0.010684
0.001803
-0.007832
-0.007358
-0.011452
-0.005858
-0.001066
-0.001178
-0.010637
-0.011807
-0.006577
0.002465
0.003326
-0.000894
-0.008828
0.002747
-0.001955
0.001744
0.002716
-0.012029
-0.007775
-0.008005
0.002772
-0.007719
-0.011723
-0.003349
-0.011973
0.000255
0.002548
-0.008083
-0.009198
0.000834
0.000531
-0.010866
0.001971
0.000132
0.001472
-0.010041
-0.008334
0.001980
-0.010538
0.001644
-0.010327
0.000810
0.001475
0.000346
-0.006568
-0.000868
-0.011065
-0.005149
-0.008030
-0.003405
0.002195
-0.011238
-0.000156
-0.005198
-0.001130
-0.007710
-0.011393
0.001613
-0.010498
-0.007529
-0.001370
0.002338
-0.006274
0.001328
0.002660
0.002459
-0.008742
-0.010583
0.002965
-0.006997
-0.007414
-0.011612
0.000530
-0.009761
0.001930
-0.010821
0.001178
-0.008533
0.001175
-0.010211
-0.011236
-0.010678
0.002105
0.002307
-0.010960
-0.009091
0.000356
-0.010735
-0.009141
0.001558
0.002038
-0.000453
-0.000174
-0.000302
-0.001201
-0.005540
-0.011370
-0.006951
-0.001591
-0.009490
-0.009562
0.002412
-0.001008
-0.007323
-0.010426
-0.011291
-0.004761
-0.000825
-0.010779
0.000680
-0.000462
0.001497
-0.010372
0.001856
-0.010584
-0.007976
-0.008144
-0.011144
0.000226
-0.000950
-0.011290
-0.004047
0.002242
-0.011140
-0.004062
0.002801
0.002216
-0.004783
-0.010222
0.002910
-0.003691
0.002408
-0.005556
-0.007947
-0.011447
-0.002976
-0.001539
-0.011305
-0.001249
0.001689
-0.007827
-0.001122
0.001672
-0.008921
-0.009507
-0.001900
-0.002260
-0.011668
-0.011917
0.000610
-0.002996
-0.008250
-0.002290
0.001556
-0.010438
-0.009296
-0.000050
-0.005874
0.001404
-0.009359
-0.009233
0.001944
-0.010837
0.001154
-0.008720
-0.000163
-0.010097
0.000115
-0.010270
-0.007995
-0.010464
-0.010215
-0.010107
0.001330
-0.009482
-0.008857
0.000501
-0.006554
-0.007616
-0.005059
0.001840
-0.010887
-0.005256
-0.003633
-0.000479
-0.011035
-0.009808
-0.010529
-0.001999
-0.009232
0.001274
-0.008907
-0.010576
0.001644
-0.010538
0.001987
-0.008700
0.002067
0.001343
-0.004122
-0.002563
-0.007589
-0.004842
-0.008992
0.002442
-0.007054
-0.001841
-0.011556
-0.011251
-0.008507
0.002149
-0.009968
-0.000517
-0.010738
-0.000212
0.001966
0.001619
-0.010512
-0.010414
0.001776
0.001767
-0.008062
0.000047
0.001247
-0.005474
-0.010208
0.001846
-0.000790
-0.010992
-0.010959
-0.010906
-0.010272
-0.001559
0.002021
-0.006930
-0.000940
0.001394
-0.007771
-0.000513
0.000269
-0.001307
0.001524
-0.010400
-0.009372
-0.001231
-0.011105
-0.010785
0.001856
-0.007650
-0.008382
-0.009043
-0.001068
0.001687
-0.003763
0.002390
-0.010861
0.002606
-0.001425
-0.004403
0.000967
-0.011191
-0.003278
-0.006636
-0.011501
-0.007472
0.002287
-0.001482
-0.001191
0.002356
-0.011339
-0.007539
-0.002698
-0.003053
-0.005915
0.000150
0.002497
-0.009096
0.002047
0.000198
0.000583
-0.011026
-0.000034
-0.006222
-0.007678
0.001155
0.000987
-0.008148
0.000444
-0.000633
-0.009849
0.000869
-0.008381
-0.000206
0.001431
-0.011315
-0.009048
-0.010637
0.001585
-0.010123
0.001403
-0.010052
-0.009206
0.000975
0.001202
-0.000011
-0.006541
-0.001128
-0.010672
-0.001712
-0.003112
-0.007271
-0.000212
-0.008336
0.001982
-0.001418
-0.003576
-0.007358
-0.001602
-0.010296
-0.010582
-0.005336
-0.000244
0.000235
-0.007836
0.001699
0.001797
-0.006212
-0.010722
-0.000318
-0.000363
-0.004901
0.000900
-0.007233
-0.005972
0.002085
-0.003826
0.000913
-0.010983
-0.006695
0.001997
0.000592
-0.008232
0.001297
-0.010186
-0.009225
0.001790
-0.008804
-0.007706
-0.000695
0.001223
0.001281
-0.010099
-0.010162
-0.010117
-0.008843
-0.010976
-0.009996
-0.005843
-0.001284
0.001081
0.001356
-0.010252
-0.010461
-0.010800
-0.001663
-0.001784
-0.000132
-0.008938
-0.000880
-0.010841
0.000404
-0.009091
-0.000385
0.000554
-0.010936
-0.004486
-0.010817
-0.007626
-0.010380
0.002552
-0.011196
-0.009026
-0.010165
-0.002201
0.001632
-0.003987
0.001881
-0.004700
0.002247
-0.010887
-0.005614
-0.009450
0.001887
0.002301
-0.007112
-0.002921
-0.001479
-0.007479
-0.011088
-0.008687
-0.007916
-0.008603
0.001283
-0.002347
0.002107
-0.007277
0.000186
-0.009549
-0.009835
-0.000507
0.000924
-0.000790
-0.008062
-0.000506
-0.011000
-0.009977
-0.010467
0.001745
-0.007951
-0.009763
-0.008596
0.000325
-0.000036
0.000943
-0.000437
0.001447
-0.009285
-0.008282
-0.010455
-0.010582
-0.001762
-0.004958
-0.008585
-0.001955
0.000859
0.001486
-0.008954
-0.010108
-0.002864
-0.009841
-0.005654
-0.008728
-0.001013
0.000739
-0.010680
-0.003929
-0.002141
-0.010837
-0.006754
0.002193
-0.005671
0.001757
-0.007222
-0.007669
-0.008377
-0.006264
0.001651
0.001456
-0.000971
-0.001406
-0.007353
0.001026
-0.010633
-0.009815
-0.000072
-0.010355
-0.010108
0.001651
-0.010150
-0.001203
0.000323
0.001252
-0.010129
-0.007421
-0.008778
-0.010690
0.000893
-0.000322
0.000677
-0.000935
0.000229
0.000057
0.001131
-0.010470
-0.009117
-0.007973
-0.001349
-0.007295
0.001582
0.002034
-0.003470
-0.009940
-0.010759
-0.010230
0.001354
0.001056
-0.004188
0.002139
-0.006333
-0.004341
-0.007171
-0.009941
-0.011142
-0.001724
0.001529
-0.004548
-0.001541
-0.000069
-0.010539
-0.003220
0.001890
0.001487
0.001722
-0.009397
-0.009040
-0.002757
-0.007194
-0.008252
-0.008181
0.001943
0.001934
0.000141
-0.010493
-0.000564
-0.007839
-0.009581
-0.006881
-0.002054
-0.004995
-0.000480
-0.010676
-0.010655
-0.000788
-0.000810
-0.000663
0.001539
-0.009716
0.001330
-0.010222
-0.001053
-0.009795
0.001121
-0.008950
-0.009530
0.000717
0.000063
-0.006542
-0.002813
0.001096
-0.007014
-0.001336
-0.000268
-0.010114
0.001628
-0.003870
0.001305
-0.010025
-0.010336
-0.010263
-0.006999
-0.000680
0.000040
-0.003164
0.000617
-0.000222
-0.000379
-0.001888
0.001550
-0.007931
-0.006397
0.001533
0.001731
0.001838
-0.003531
-0.002081
-0.010785
-0.008989
-0.001103
-0.001461
-0.000776
0.001069
-0.009962
-0.009041
0.000829
0.000894
-0.008746
-0.009883
0.001459
0.001353
0.001407
-0.008495
0.000133
-0.007493
0.000410
-0.001300
-0.001762
-0.009841
-0.000103
-0.001539
-0.001692
-0.001824
-0.008689
0.001527
-0.010387
0.000970
0.001017
-0.009897
-0.010420
-0.009845
-0.009965
0.001072
-0.007568
-0.010157
-0.002504
-0.008801
-0.006028
-0.010464
-0.006874
-0.010535
-0.010501
-0.002015
-0.010730
-0.006812
0.000497
-0.003890
-0.004605
-0.008560
-0.000526
-0.004638
-0.004279
-0.008634
0.001219
-0.010313
-0.007591
-0.005316
-0.002406
-0.010628
-0.007135
0.001533
-0.006930
-0.000974
-0.009751
0.001547
-0.010158
-0.007740
-0.009739
-0.006834
-0.005297
-0.009696
-0.009476
-0.009366
-0.000697
-0.007908
-0.008071
0.001260
0.001111
-0.010001
-0.005956
0.000970
-0.009559
-0.009692
-0.008401
0.000614
-0.000364
-0.001644
-0.006420
-0.006678
-0.001759
-0.003596
-0.004663
-0.008235
-0.002032
-0.009460
-0.000713
-0.010231
-0.007347
0.001181
0.001200
-0.008723
-0.008430
0.000141
-0.009878
-0.000199
0.000708
-0.009194
-0.002239
-0.002368
-0.009697
-0.010326
-0.005731
-0.006518
0.001482
0.000452
0.001060
0.000997
-0.010430
-0.007647
-0.002463
-0.009032
-0.009576
-0.009691
-0.000941
0.000808
0.000799
-0.008414
-0.008176
-0.008861
0.000773
-0.009633
0.001193
-0.000307
-0.008511
-0.010032
-0.007155
0.000642
-0.008643
-0.000598
-0.002814
0.000997
-0.009872
-0.001782
-0.009569
-0.007073
-0.010337
-0.009498
0.001218
-0.010044
-0.007536
-0.007175
0.001144
-0.001615
-0.010162
-0.010223
0.000445
-0.010145
-0.006942
-0.010359
0.001785
-0.000021
0.000086
0.001580
-0.003174
-0.009968
0.001374
-0.007511
-0.004572
-0.004940
0.001071
-0.008584
-0.004248
-0.003516
-0.009853
-0.005018
-0.002123
-0.006096
0.001288
-0.009341
0.001137
-0.004223
-0.006852
-0.002436
-0.002102
-0.006457
0.001177
-0.000621
-0.001279
0.001679
-0.010082
-0.008301
-0.001381
-0.001126
-0.005638
-0.000770
-0.010297
-0.007973