# vtk DataFile Version 2.0
Test
ASCII
DATASET POLYDATA
POINTS 5510 float
0.000000 0.000000 0.000000
0.080000 0.000000 0.000000
0.080000 0.160000 0.000000
0.000000 0.160000 0.000000
0.035000 0.076250 0.000000
0.046500 0.083750 0.000000
0.002000 0.000000 0.000000
0.004000 0.000000 0.000000
0.006000 0.000000 0.000000
0.008000 0.000000 0.000000
0.010000 0.000000 0.000000
0.012000 0.000000 0.000000
0.014000 0.000000 0.000000
0.016000 0.000000 0.000000
0.018000 0.000000 0.000000
0.020000 0.000000 0.000000
0.022000 0.000000 0.000000
0.024000 0.000000 0.000000
0.026000 0.000000 0.000000
0.028000 0.000000 0.000000
0.030000 0.000000 0.000000
0.032000 0.000000 0.000000
0.034000 0.000000 0.000000
0.036000 0.000000 0.000000
0.038000 0.000000 0.000000
0.040000 0.000000 0.000000
0.042000 0.000000 0.000000
0.044000 0.000000 0.000000
0.046000 0.000000 0.000000
0.048000 0.000000 0.000000
0.050000 0.000000 0.000000
0.052000 0.000000 0.000000
0.054000 0.000000 0.000000
0.056000 0.000000 0.000000
0.058000 0.000000 0.000000
0.060000 0.000000 0.000000
0.062000 0.000000 0.000000
0.064000 0.000000 0.000000
0.066000 0.000000 0.000000
0.068000 0.000000 0.000000
0.070000 0.000000 0.000000
0.072000 0.000000 0.000000
0.074000 0.000000 0.000000
0.076000 0.000000 0.000000
0.078000 0.000000 0.000000
0.080000 0.002000 0.000000
0.080000 0.004000 0.000000
0.080000 0.006000 0.000000
0.080000 0.008000 0.000000
0.080000 0.010000 0.000000
0.080000 0.012000 0.000000
0.080000 0.014000 0.000000
0.080000 0.016000 0.000000
0.080000 0.018000 0.000000
0.080000 0.020000 0.000000
0.080000 0.022000 0.000000
0.080000 0.024000 0.000000
0.080000 0.026000 0.000000
0.080000 0.028000 0.000000
0.080000 0.030000 0.000000
0.080000 0.032000 0.000000
0.080000 0.034000 0.000000
0.080000 0.036000 0.000000
0.080000 0.038000 0.000000
0.080000 0.040000 0.000000
0.080000 0.042000 0.000000
0.080000 0.044000 0.000000
0.080000 0.046000 0.000000
0.080000 0.048000 0.000000
0.080000 0.050000 0.000000
0.080000 0.052000 0.000000
0.080000 0.054000 0.000000
0.080000 0.056000 0.000000
0.080000 0.058000 0.000000
0.080000 0.060000 0.000000
0.080000 0.062000 0.000000
0.080000 0.064000 0.000000
0.080000 0.066000 0.000000
0.080000 0.068000 0.000000
0.080000 0.070000 0.000000
0.080000 0.072000 0.000000
0.080000 0.074000 0.000000
0.080000 0.076000 0.000000
0.080000 0.078000 0.000000
0.080000 0.080000 0.000000
0.080000 0.082000 0.000000
0.080000 0.084000 0.000000
0.080000 0.086000 0.000000
0.080000 0.088000 0.000000
0.080000 0.090000 0.000000
0.080000 0.092000 0.000000
0.080000 0.094000 0.000000
0.080000 0.096000 0.000000
0.080000 0.098000 0.000000
0.080000 0.100000 0.000000
0.080000 0.102000 0.000000
0.080000 0.104000 0.000000
0.080000 0.106000 0.000000
0.080000 0.108000 0.000000
0.080000 0.110000 0.000000
0.080000 0.112000 0.000000
0.080000 0.114000 0.000000
0.080000 0.116000 0.000000
0.080000 0.118000 0.000000
0.080000 0.120000 0.000000
0.080000 0.122000 0.000000
0.080000 0.124000 0.000000
0.080000 0.126000 0.000000
0.080000 0.128000 0.000000
0.080000 0.130000 0.000000
0.080000 0.132000 0.000000
0.080000 0.134000 0.000000
0.080000 0.136000 0.000000
0.080000 0.138000 0.000000
0.080000 0.140000 0.000000
0.080000 0.142000 0.000000
0.080000 0.144000 0.000000
0.080000 0.146000 0.000000
0.080000 0.148000 0.000000
0.080000 0.150000 0.000000
0.080000 0.152000 0.000000
0.080000 0.154000 0.000000
0.080000 0.156000 0.000000
0.080000 0.158000 0.000000
0.078000 0.160000 0.000000
0.076000 0.160000 0.000000
0.074000 0.160000 0.000000
0.072000 0.160000 0.000000
0.070000 0.160000 0.000000
0.068000 0.160000 0.000000
0.066000 0.160000 0.000000
0.064000 0.160000 0.000000
0.062000 0.160000 0.000000
0.060000 0.160000 0.000000
0.058000 0.160000 0.000000
0.056000 0.160000 0.000000
0.054000 0.160000 0.000000
0.052000 0.160000 0.000000
0.050000 0.160000 0.000000
0.048000 0.160000 0.000000
0.046000 0.160000 0.000000
0.044000 0.160000 0.000000
0.042000 0.160000 0.000000
0.040000 0.160000 0.000000
0.038000 0.160000 0.000000
0.036000 0.160000 0.000000
0.034000 0.160000 0.000000
0.032000 0.160000 0.000000
0.030000 0.160000 0.000000
0.028000 0.160000 0.000000
0.026000 0.160000 0.000000
0.024000 0.160000 0.000000
0.022000 0.160000 0.000000
0.020000 0.160000 0.000000
0.018000 0.160000 0.000000
0.016000 0.160000 0.000000
0.014000 0.160000 0.000000
0.012000 0.160000 0.000000
0.010000 0.160000 0.000000
0.008000 0.160000 0.000000
0.006000 0.160000 0.000000
0.004000 0.160000 0.000000
0.002000 0.160000 0.000000
0.000000 0.158000 0.000000
0.000000 0.156000 0.000000
0.000000 0.154000 0.000000
0.000000 0.152000 0.000000
0.000000 0.150000 0.000000
0.000000 0.148000 0.000000
0.000000 0.146000 0.000000
0.000000 0.144000 0.000000
0.000000 0.142000 0.000000
0.000000 0.140000 0.000000
0.000000 0.138000 0.000000
0.000000 0.136000 0.000000
0.000000 0.134000 0.000000
0.000000 0.132000 0.000000
0.000000 0.130000 0.000000
0.000000 0.128000 0.000000
0.000000 0.126000 0.000000
0.000000 0.124000 0.000000
0.000000 0.122000 0.000000
0.000000 0.120000 0.000000
0.000000 0.118000 0.000000
0.000000 0.116000 0.000000
0.000000 0.114000 0.000000
0.000000 0.112000 0.000000
0.000000 0.110000 0.000000
0.000000 0.108000 0.000000
0.000000 0.106000 0.000000
0.000000 0.104000 0.000000
0.000000 0.102000 0.000000
0.000000 0.100000 0.000000
0.000000 0.098000 0.000000
0.000000 0.096000 0.000000
0.000000 0.094000 0.000000
0.000000 0.092000 0.000000
0.000000 0.090000 0.000000
0.000000 0.088000 0.000000
0.000000 0.086000 0.000000
0.000000 0.084000 0.000000
0.000000 0.082000 0.000000
0.000000 0.080000 0.000000
0.000000 0.078000 0.000000
0.000000 0.076000 0.000000
0.000000 0.074000 0.000000
0.000000 0.072000 0.000000
0.000000 0.070000 0.000000
0.000000 0.068000 0.000000
0.000000 0.066000 0.000000
0.000000 0.064000 0.000000
0.000000 0.062000 0.000000
0.000000 0.060000 0.000000
0.000000 0.058000 0.000000
0.000000 0.056000 0.000000
0.000000 0.054000 0.000000
0.000000 0.052000 0.000000
0.000000 0.050000 0.000000
0.000000 0.048000 0.000000
0.000000 0.046000 0.000000
0.000000 0.044000 0.000000
0.000000 0.042000 0.000000
0.000000 0.040000 0.000000
0.000000 0.038000 0.000000
0.000000 0.036000 0.000000
0.000000 0.034000 0.000000
0.000000 0.032000 0.000000
0.000000 0.030000 0.000000
0.000000 0.028000 0.000000
0.000000 0.026000 0.000000
0.000000 0.024000 0.000000
0.000000 0.022000 0.000000
0.000000 0.020000 0.000000
0.000000 0.018000 0.000000
0.000000 0.016000 0.000000
0.000000 0.014000 0.000000
0.000000 0.012000 0.000000
0.000000 0.010000 0.000000
0.000000 0.008000 0.000000
0.000000 0.006000 0.000000
0.000000 0.004000 0.000000
0.000000 0.002000 0.000000
0.035411 0.076518 0.000000
0.035821 0.076786 0.000000
0.036232 0.077054 0.000000
0.036643 0.077321 0.000000
0.037054 0.077589 0.000000
0.037464 0.077857 0.000000
0.037875 0.078125 0.000000
0.038286 0.078393 0.000000
0.038696 0.078661 0.000000
0.039107 0.078929 0.000000
0.039518 0.079196 0.000000
0.039929 0.079464 0.000000
0.040339 0.079732 0.000000
0.040750 0.080000 0.000000
0.041161 0.080268 0.000000
0.041571 0.080536 0.000000
0.041982 0.080804 0.000000
0.042393 0.081071 0.000000
0.042804 0.081339 0.000000
0.043214 0.081607 0.000000
0.043625 0.081875 0.000000
0.044036 0.082143 0.000000
0.044446 0.082411 0.000000
0.044857 0.082679 0.000000
0.045268 0.082946 0.000000
0.045679 0.083214 0.000000
0.046089 0.083482 0.000000
0.040000 0.002000 0.000000
0.040001 0.158005 0.000000
0.002000 0.116000 0.000000
0.078000 0.048000 0.000000
0.002000 0.106000 0.000000
0.078000 0.058000 0.000000
0.001986 0.042173 0.000000
0.078015 0.117826 0.000000
0.001985 0.094174 0.000000
0.001985 0.084174 0.000000
0.001914 0.056074 0.000000
0.002000 0.072000 0.000000
0.078015 0.065826 0.000000
0.078016 0.075826 0.000000
0.078000 0.088000 0.000000
0.078000 0.104000 0.000000
0.078003 0.029997 0.000000
0.001998 0.130002 0.000000
0.002000 0.032000 0.000000
0.078013 0.128003 0.000000
0.056000 0.158000 0.000000
0.026000 0.002000 0.000000
0.060000 0.002000 0.000000
0.020000 0.158000 0.000000
0.002000 0.020000 0.000000
0.078000 0.142000 0.000000
0.002000 0.146000 0.000000
0.078000 0.020000 0.000000
0.016000 0.002000 0.000000
0.068000 0.002000 0.000000
0.066000 0.158000 0.000000
0.002000 0.014000 0.000000
0.008000 0.158000 0.000000
0.010000 0.002000 0.000000
0.078000 0.148000 0.000000
0.078000 0.008000 0.000000
0.078005 0.037995 0.000000
0.051991 0.001990 0.000000
0.028000 0.158000 0.000000
0.002000 0.008000 0.000000
0.078000 0.094000 0.000000
0.078000 0.110000 0.000000
0.001983 0.066159 0.000000
0.002000 0.050000 0.000000
0.046000 0.158000 0.000000
0.078000 0.134000 0.000000
0.002000 0.140000 0.000000
0.006000 0.002000 0.000000
0.002000 0.154000 0.000000
0.074000 0.002000 0.000000
0.078000 0.152000 0.000000
0.074000 0.158000 0.000000
0.078000 0.080000 0.000000
0.078000 0.070000 0.000000
0.078000 0.122000 0.000000
0.002000 0.090000 0.000000
0.002000 0.080000 0.000000
0.002000 0.038000 0.000000
0.002000 0.102000 0.000000
0.002000 0.112000 0.000000
0.036000 0.002000 0.000000
0.078000 0.042000 0.000000
0.032000 0.002000 0.000000
0.047987 0.001989 0.000000
0.032008 0.158010 0.000000
0.002000 0.028000 0.000000
0.002000 0.126000 0.000000
0.060000 0.158000 0.000000
0.022000 0.002000 0.000000
0.002000 0.136000 0.000000
0.078000 0.024000 0.000000
0.012000 0.158000 0.000000
0.078000 0.158000 0.000000
0.001947 0.003947 0.000000
0.002000 0.158000 0.000000
0.078000 0.012000 0.000000
0.078000 0.096000 0.000000
0.078000 0.098000 0.000000
0.078000 0.082000 0.000000
0.078111 0.099889 0.000000
0.078035 0.083965 0.000000
0.078000 0.090000 0.000000
0.078000 0.106000 0.000000
0.078000 0.072000 0.000000
0.078000 0.112000 0.000000
0.078043 0.061976 0.000000
0.078000 0.114000 0.000000
0.002000 0.064000 0.000000
0.002000 0.062000 0.000000
0.002000 0.088000 0.000000
0.002000 0.078000 0.000000
0.002000 0.060000 0.000000
0.001966 0.076034 0.000000
0.002000 0.070000 0.000000
0.002000 0.054000 0.000000
0.001957 0.098024 0.000000
0.002000 0.048000 0.000000
0.002000 0.046000 0.000000
[...]
POINT_DATA 5510
SCALARS UX float 1
LOOKUP_TABLE default
0.064656
0.183416
0.000005
-0.116614
0.027734
0.040648
0.067639
0.070622
0.073606
0.076589
0.079574
0.082560
0.085548
0.088537
0.091528
0.094519
0.097511
0.100500
0.103487
0.106468
0.109443
0.112410
0.115372
0.118328
0.121278
0.124221
0.127157
0.130087
0.133011
0.135932
0.138851
0.141767
0.144684
0.147602
0.150523
0.153448
0.156383
0.159326
0.162282
0.165246
0.168223
0.171217
0.174236
0.177285
0.180338
0.181359
0.179349
0.177395
0.175438
0.173566
0.171693
0.169890
0.168085
0.166295
0.164509
0.162728
0.160968
0.159204
0.157420
0.155619
0.153797
0.151946
0.150064
0.148148
0.146195
0.144204
0.142223
0.140213
0.138186
0.136165
0.134100
0.132027
0.129951
0.127877
0.125804
0.123731
0.121661
0.119590
0.117519
0.115442
0.113364
0.111278
0.109190
0.107099
0.105000
0.102902
0.100792
0.098678
0.096562
0.094452
0.092310
0.090133
0.087903
0.085241
0.081047
0.076631
0.071563
0.066316
0.061469
0.057280
0.053752
0.050375
0.047904
0.045516
0.043294
0.041183
0.039079
0.037021
0.034962
0.032904
0.030849
0.028793
0.026739
0.024689
0.022643
0.020601
0.018560
0.016531
0.014500
0.012460
0.010425
0.008314
0.006029
0.003296
-0.000047
-0.002924
-0.005993
-0.009067
-0.012085
-0.015105
-0.018145
-0.021175
-0.024192
-0.027205
-0.030208
-0.033205
-0.036198
-0.039185
-0.042171
-0.045144
-0.048112
-0.051076
-0.054033
-0.056984
-0.059931
-0.062873
-0.065810
-0.068744
-0.071677
-0.074609
-0.077541
-0.080475
-0.083412
-0.086354
-0.089305
-0.092269
-0.095246
-0.098235
-0.101235
-0.104253
-0.107301
-0.110391
-0.113487
-0.114530
-0.112514
-0.110487
-0.108584
-0.106695
-0.104824
-0.103008
-0.101205
-0.099402
-0.097610
-0.095825
-0.094042
-0.092259
-0.090445
-0.088610
-0.086748
-0.084848
-0.082963
-0.081041
-0.079115
-0.077171
-0.075219
-0.073248
-0.071263
-0.069285
-0.067271
-0.065247
-0.063215
-0.061180
-0.059138
-0.057088
-0.055033
-0.052974
-0.050907
-0.048832
-0.046756
-0.044671
-0.042584
-0.040493
-0.038396
-0.036299
-0.034193
-0.032085
-0.029978
-0.027884
-0.025758
-0.023604
-0.021353
-0.018930
-0.015175
-0.011002
-0.006575
-0.001790
0.003270
0.007976
0.012441
0.015431
0.018156
0.020753
0.023159
0.025397
0.027590
0.029653
0.031714
0.033773
0.035834
0.037893
0.039955
0.042015
0.044075
0.046136
0.048196
0.050255
0.052314
0.054371
0.056429
0.058486
0.060543
0.062600
0.028193
0.028690
0.029383
0.030043
0.030574
0.030971
0.031388
0.031846
0.032164
0.032626
0.033028
0.033363
0.033790
0.034221
0.034714
0.035188
0.035697
0.036169
0.036622
0.037041
0.037439
0.037792
0.038208
0.038606
0.039079
0.039593
0.040057
0.122192
-0.054953
-0.072183
0.135184
-0.062308
0.124914
0.023798
0.042570
-0.050231
-0.039837
-0.002349
-0.027040
0.116833
0.106433
0.093610
0.066549
0.152321
-0.085348
0.034720
0.031970
-0.031137
0.101427
0.151442
-0.084334
0.047065
0.017600
-0.099731
0.161237
0.086477
0.163214
-0.016084
0.053241
-0.102176
0.077518
0.011457
0.172296
0.144989
0.139761
-0.072592
0.059413
0.087113
0.053212
-0.020782
0.012657
-0.046064
0.025793
-0.094314
0.071550
-0.107318
0.172158
0.007309
-0.004138
0.102044
0.112482
0.038128
-0.045883
-0.035451
0.028523
-0.058244
-0.068298
0.116289
0.141134
0.110364
0.133915
-0.066723
0.038832
-0.081678
-0.025127
0.095448
-0.090735
0.157653
-0.096179
0.000707
0.063503
-0.111341
0.168513
0.084641
0.081050
0.099943
0.077111
0.097922
0.091479
0.061517
0.110399
0.049821
0.120859
0.047046
-0.018225
-0.014949
-0.043802
-0.033353
-0.010998
-0.031332
-0.024924
0.003100
-0.054237
0.016147
0.018951
0.129056
0.139199
0.133153
-0.066312
-0.076017
0.036064
0.030608
0.128069
-0.060846
-0.051994
0.148713
-0.043091
-0.040110
-0.079798
0.107394
0.145600
-0.078459
0.040890
0.029916
0.023741
0.042949
0.021692
-0.088943
-0.037125
0.155882
-0.097927
-0.022116
0.092458
0.157309
-0.090234
0.015555
0.164850
-0.103483
0.049123
0.055299
-0.013057
0.083490
-0.010069
0.005194
-0.108246
0.068483
0.065387
0.176202
0.169160
0.178229
-0.065329
0.132182
-0.042969
-0.032603
-0.024123
-0.007081
0.016677
0.099191
0.090683
0.072506
0.109559
0.046553
-0.052888
-0.076667
0.028952
0.031520
0.108305
-0.035096
0.041830
0.018708
0.093390
-0.087428
0.154363
-0.023068
0.052111
0.084422
-0.096528
-0.011129
0.061590
0.136258
0.056227
0.004203
0.170111
0.095150
0.077271
0.083995
-0.028572
-0.011354
-0.017549
0.022118
0.089607
0.096010
0.072485
0.104496
0.108430
0.057536
0.114912
0.044768
-0.023075
-0.041829
-0.029423
-0.048309
-0.006796
-0.037897
0.007832
0.021420
0.118804
-0.052194
0.122937
-0.056295
0.127077
0.040678
-0.060366
0.025844
0.131196
-0.064399
-0.070485
0.137242
-0.074161
0.143107
-0.077946
0.125124
-0.057890
0.119237
-0.049024
0.130987
-0.063778
0.034063
0.032613
0.146870
0.113324
0.136836
-0.069653
-0.041023
0.142678
-0.075522
-0.083523
0.036759
0.027861
0.150522
0.043887
0.104411
0.022796
-0.034133
0.148518
-0.081393
0.045001
0.019650
-0.087151
0.154101
-0.092520
-0.028136
0.098439
-0.096118
0.159435
-0.019101
0.089467
-0.087279
0.154370
-0.093199
0.160253
0.013508
0.051182
-0.099174
0.163031
-0.101593
0.009399
0.166666
0.057356
0.080503
-0.105376
-0.007094
0.170366
0.002991
0.074533
0.061470
-0.105198
0.066511
0.166180
-0.001453
-0.106175
-0.109286
0.174220
0.173127
0.175175
-0.053872
0.120499
-0.003531
0.128972
0.068728
0.044824
-0.067691
0.140706
-0.079386
0.152366
0.163487
-0.091172
0.010494
0.143710
0.117311
-0.097120
-0.102225
0.086425
0.041725
-0.019907
0.116276
0.111758
-0.049680
-0.045137
0.105460
0.101352
-0.038870
-0.034729
0.124505
-0.057814
0.037361
0.035620
-0.061755
0.039771
0.147211
0.024869
-0.080281
0.102357
0.096378
0.087410
0.158239
-0.092852
-0.089227
0.078447
0.060341
-0.098403
0.159812
0.156161
-0.005327
0.002026
0.167257
0.168094
0.088479
0.092680
-0.021927
0.066889
-0.026106
0.044373
-0.002248
0.012770
0.134215
0.107507
-0.040913
0.024712
0.029339
-0.067328
-0.071077
0.052598
0.056815
0.128184
0.130143
-0.061422
-0.063331
-0.055969
0.081066
0.097214
-0.074810
-0.014747
-0.030627
0.049570
0.139990
0.138134
0.019379
0.033552
0.031030
0.134830
0.111359
-0.043970
0.123205
-0.047078
0.026929
-0.078506
-0.073529
-0.032117
0.105330
0.150777
0.152564
-0.083836
-0.085633
0.016652
0.146526
0.045926
0.050056
-0.038061
0.020760
0.090406
-0.049988
-0.026069
-0.085264
-0.017063
-0.020071
-0.014068
-0.094664
0.081435
0.164147
0.054167
0.058283
0.072478
0.167121
-0.008218
0.069494
0.171125
0.006338
-0.000124
-0.104178
0.064454
-0.103131
0.032314
0.135148
-0.059208
0.040811
-0.031897
-0.042399
-0.019495
-0.047725
0.109005
0.098589
0.085776
-0.071822
0.028080
-0.033046
0.109229
0.147499
0.017784
-0.080551
0.094320
-0.018055
0.053048
0.085359
-0.089604
0.061269
0.016694
0.000979
0.049580
-0.006440
0.090672
-0.024203
0.027469
0.131499
0.077666
-0.011500
0.042761
0.036497
-0.075283
0.103280
0.079381
0.012551
-0.093344
0.003271
0.062254
0.083582
0.046138
-0.017157
0.103489
0.113944
-0.036896
-0.047347
0.118398
-0.051789
-0.069239
0.094381
0.072865
-0.007553
0.122587
-0.055929
0.026924
-0.027801
0.039177
-0.072821
0.003540
0.009740
-0.044888
-0.053790
-0.064638
0.105086
-0.038494
0.141876
-0.059514
0.022511
0.126235
0.137710
0.114273
0.120194
0.131843
0.035223
0.033146
0.145486
0.037683
0.127476
-0.029073
0.149013
-0.070609
-0.082060
0.015710
0.023964
-0.038976
0.099360
0.047976
-0.060703
-0.064434
0.143615
-0.076456
0.149304
0.152921
0.046851
-0.082349
-0.085955
-0.024021
-0.015084
0.021868
0.149446
-0.082325
-0.091036
0.088358
-0.058844
0.157980
0.057158
0.014606
-0.088214
0.155295
-0.012170
0.161187
0.161630
0.165103
0.075462
0.008424
-0.100291
0.165357
0.067438
-0.094136
0.166114
0.169166
0.062397
-0.001003
-0.002678
-0.101108
-0.100116
0.126072
0.053182
-0.056316
-0.014708
0.000339
0.081377
-0.043114
-0.077310
0.020971
0.126974
0.144272
0.045723
-0.065681
0.138705
0.153296
-0.016099
-0.077375
0.086295
0.158469
0.119191
-0.086202
0.163111
-0.092120
0.068976
-0.052562
0.140490
0.014781
0.005886
0.100014
-0.033817
-0.048444
-0.043805
0.115031
0.110406
0.115288
-0.078807
-0.027044
0.050960
0.097298
0.154761
0.011618
0.063324
-0.098086
0.013560
0.103387
-0.036813
0.030284
0.046837
-0.022464
0.088411
0.043279
-0.055034
0.121666
0.125945
-0.004982
0.133297
-0.057557
-0.068178
-0.066109
-0.070076
0.096248
-0.029779
0.092058
0.030096
0.034584
-0.025522
0.112146
-0.059745
-0.056649
0.080602
-0.014213
0.106940
-0.040352
0.057403
0.034429
0.145706
0.136962
0.019863
0.132815
0.038817
-0.077035
-0.073543
0.121102
-0.030084
-0.062493
0.048887
0.100300
0.026025
0.106224
-0.068617
0.040720
0.038557
0.129292
0.024960
0.151105
0.141622
-0.036011
0.142225
-0.041925
-0.084143
-0.087777
0.019841
0.013670
0.049810
-0.080313
0.147447
0.055095
0.091338
0.159175
-0.021036
0.082367
-0.013200
0.059208
-0.071528
0.009546
0.005393
0.162133
0.162259
0.164174
0.073409
0.076397
0.065382
0.070422
-0.091472
-0.009297
-0.095264
-0.099127
-0.050879
-0.003738
0.001120
0.132109
0.117053
-0.034166
-0.025873
0.025280
0.000219
0.100757
0.092590
0.113056
-0.063717
0.136728
-0.075379
-0.028063
-0.014216
-0.084569
0.058074
-0.065546
0.008640
0.035251
0.101235
0.123039
0.106700
-0.040090
0.062198
0.080319
0.074341
-0.090238
-0.096084
-0.051768
0.078323
0.057436
0.087865
0.082970
-0.021544
-0.016747
-0.012006
0.128661
0.049555
0.020021
0.142546
0.016856
0.096066
0.095251
0.147895
0.089278
0.066311
0.002355
-0.004719
-0.045982
-0.068755
-0.072126
-0.075575
0.073120
0.064671
-0.063636
0.043663
0.038462
-0.008472
0.112391
-0.045803
-0.054163
-0.050468
-0.050388
0.116988
0.124380
0.036777
0.032376
0.102548
-0.035951
0.005214
-0.040219
-0.036928
0.037360
-0.054879
0.022985
0.027221
0.041606
-0.062735
-0.057947
0.029940
0.138752
0.135775
-0.024982
0.129899
0.018930
0.123974
0.051836
0.124623
0.146088
0.107148
-0.061507
-0.080904
-0.079106
0.043651
0.156603
-0.074443
0.144533
0.047769
0.012749
0.083305
0.151573
-0.022001
-0.019032
-0.033979
0.143941
-0.066615
-0.083250
0.156229
-0.086438
0.150367
0.053964
0.007484
0.160139
0.159205
0.160356
-0.010338
-0.089158
-0.001886
0.161147
0.071353
0.068367
-0.095091
-0.097179
0.118177
-0.029317
0.010180
0.101276
-0.034690
0.038157
-0.051952
0.120232
-0.014007
-0.032164
0.078115
0.098533
-0.041111
0.020099
0.048669
-0.072388
-0.061719
0.139312
0.011836
0.087230
0.145450
-0.081425
-0.050025
0.054819
-0.084191
0.070169
0.033666
-0.044026
-0.048400
0.110609
0.114915
0.118567
-0.034902
-0.025949
0.029383
0.119083
0.135556
0.124965
-0.075894
0.142906
-0.072477
0.081258
0.004469
0.151298
0.157181
-0.094110
-0.003567
-0.032231
0.098733
0.036564
0.085636
0.090491
-0.018894
0.033208
-0.023718
-0.041492
0.108075
0.041250
0.130299
0.120643
0.053308
0.009424
0.043749
0.022847
0.004417
-0.011782
0.039370
0.104516
0.025218
-0.037920
-0.053655
-0.052092
0.115960
0.139041
-0.073864
0.140770
0.133812
0.060539
0.027832
0.015956
0.133835
0.094161
0.127939
0.044661
-0.059678
-0.070377
-0.069522
0.098224
0.010712
0.153466
0.157284
-0.020021
0.092251
0.050732
-0.082732
-0.060798
-0.057802
0.110070
0.060127
0.126360
-0.017101
0.006556
0.149733
-0.031015
-0.088325
-0.011359
0.056018
0.077327
-0.087148
-0.093086
0.072287
0.139627
-0.092165
-0.078303
0.156195
0.158161
0.064253
-0.002777
0.000223
0.069298
-0.007498
0.104186
-0.048885
-0.067072
-0.027415
-0.031554
0.017532
-0.006321
0.097541
0.075825
-0.046274
0.112865
0.060033
0.089616
0.128978
-0.049937
0.110677
0.025837
-0.011226
0.009244
0.116804
0.051600
0.102151
0.131842
-0.062823
-0.018100
0.148493
-0.073369
0.061057
-0.044080
-0.037790
0.104372
0.005663
0.154251
-0.082194
-0.085238
-0.026818
0.093756
0.037759
0.125656
0.090032
0.085307
0.081220
0.114502
0.118490
0.042649
-0.047154
-0.023496
-0.065717
-0.028885
-0.079550
0.096180
0.090204
-0.012359
0.075273
-0.005670
0.110991
-0.030385
0.097008
-0.018780
0.000845
0.075353
0.053605
0.046011
0.035698
0.032033
-0.048286
0.040661
-0.050099
0.013398
0.008197
0.031521
0.040238
-0.009047
0.013528
0.101730
-0.037847
0.022224
-0.035253
0.034161
-0.043989
0.026593
-0.055928
-0.052891
-0.068988
0.135856
0.065068
-0.031976
0.018058
0.130852
0.052739
0.130660
-0.055228
0.121959
-0.074106
0.121737
-0.077707
0.141091
-0.067559
-0.064611
-0.058632
0.046512
-0.022957
0.013921
0.137264
0.142534
-0.033507
0.100110
0.063122
0.070231
-0.070667
0.084238
0.003550
-0.000678
-0.081234
-0.083321
0.078272
0.154230
0.155368
0.009806
0.030760
0.144747
-0.008518
0.148374
0.153236
-0.091094
0.065184
0.056917
0.155204
0.067243
-0.090107
0.105118
-0.089108
0.134724
0.137553
-0.058843
0.019883
0.073339
0.057232
-0.042080
0.108670
0.034518
0.087731
-0.015800
0.038784
0.125801
-0.039635
0.106243
-0.027913
0.078058
0.094755
0.060824
-0.044874
0.019356
-0.065933
-0.033115
-0.056855
0.103079
0.134389
-0.072744
0.129836
0.088157
0.010969
0.057752
-0.078345
0.101209
-0.034619
0.064046
0.002632
0.139772
0.079212
0.143451
0.151265
0.134169
-0.062661
-0.079244
0.152321
0.073217
0.068178
-0.086129
0.069069
-0.013204
0.105487
-0.038911
0.083296
0.034635
0.085285
-0.020983
-0.060357
-0.045889
0.116487
0.127252
-0.046551
0.013385
0.049609
-0.048180
0.022591
0.091768
0.112688
0.024420
0.031083
0.028557
0.122851
-0.036433
-0.067400
-0.048017
0.119654
-0.005775
-0.008645
0.132337
0.015089
-0.051075
-0.025011
-0.064077
-0.029832
0.125922
-0.051153
0.075187
0.128888
0.096241
-0.029604
0.117505
-0.028891
0.049277
0.044612
-0.069214
0.052619
0.007769
-0.074587
-0.023925
0.136165
-0.056880
0.099175
0.146603
0.123407
0.093168
-0.076295
0.150400
-0.020999
0.152236
0.085181
0.058978
-0.080261
-0.015215
-0.003675
-0.085142
0.006871
0.146385
0.053631
0.001457
0.095177
0.028441
-0.070469
-0.006624
-0.009503
-0.088115
-0.087176
0.137617
0.108035
0.040914
0.113891
0.099397
-0.032808
0.016178
0.041261
-0.039117
0.087982
-0.002210
0.004931
0.106828
-0.040246
0.082154
0.034217
0.032582
-0.017087
0.040072
-0.020608
0.041572
-0.047079
-0.032275
-0.021072
0.098862
-0.010807
0.013250
0.075003
-0.043237
0.052317
-0.030806
0.131237
-0.069696
0.086109
-0.019085
0.030917
-0.075317
-0.071360
-0.077259
0.114743
-0.003311
0.141473
0.022937
-0.041459
0.104762
-0.038178
0.122801
0.028680
0.129297
0.091146
0.097114
-0.010459
0.061944
0.091119
0.017493
0.143526
0.071163
-0.004575
-0.084154
-0.083164
0.033454
0.132642
-0.018133
0.028019
-0.045423
0.037341
0.124176
0.102673
-0.036114
-0.045061
0.109932
0.112359
0.046691
0.045868
0.088071
-0.034352
-0.024381
0.116135
0.021450
-0.062780
-0.060129
-0.057420
-0.026215
0.118382
0.127486
-0.046315
0.017250
0.092842
0.055641
0.126917
0.056581
0.004793
0.097808
-0.031172
-0.008424
0.121052
-0.067567
-0.052518
0.118882
0.059855
-0.059725
0.004506
0.013055
0.108054
0.100099
0.141633
-0.055754
0.149320
0.000551
-0.026860
0.140525
-0.070976
-0.016210
0.076204
-0.082196
0.066099
0.137943
-0.001573
0.008917
0.150290
-0.076436
0.054484
0.108957
0.105995
0.082193
0.049115
0.145447
-0.065559
0.149303
0.132713
0.071908
-0.064300
0.043221
-0.041988
-0.053984
0.086238
0.082588
0.043199
0.064908
0.025868
-0.014942
0.079744
0.036925
0.038617
0.084345
-0.062193
0.031968
-0.043458
0.120904
-0.042946
0.105649
-0.025585
-0.008224
0.085736
0.092398
0.053121
-0.041619
0.018686
-0.059960
0.115609
0.103949
0.055189
0.127818
-0.057795
0.136701
0.010116
-0.017189
0.060662
0.003906
-0.039083
-0.054499
-0.031804
0.042941
0.065527
0.047230
0.124743
0.129503
-0.040396
-0.062879
0.035090
0.038576
0.089070
0.082967
0.064895
0.080155
0.140497
0.098015
0.138542
-0.073404
0.074145
0.147357
0.077104
0.037029
0.099656
-0.033083
-0.004940
0.114330
0.025966
0.049967
0.023927
0.094018
0.097137
-0.027398
-0.030537
-0.022299
0.015900
-0.061421
-0.023745
-0.037336
0.014301
0.089036
0.102498
-0.035914
-0.048463
-0.066199
0.001779
-0.002478
0.046091
0.009279
0.123916
-0.067908
0.072306
0.000797
0.033106
0.135618
-0.071547
0.094080
-0.054093
-0.052005
-0.043457
0.147380
-0.081185
0.019439
-0.074289
-0.007531
0.144388
-0.021963
0.120441
-0.027818
0.146362
-0.080185
0.083132
-0.068453
0.133037
0.148322
0.069105
-0.013338
0.008072
0.056505
-0.077251
-0.060668
0.043646
0.031157
0.089477
0.111854
0.130966
-0.049158
0.061750
-0.012480
-0.015896
0.029391
0.081123
0.025914
0.039574
0.034512
-0.059429
-0.019107
-0.043173
0.110711
0.039211
-0.022067
0.016419
0.074681
0.061828
0.090533
0.042677
0.126394
-0.010059
-0.055810
-0.063197
-0.068550
0.007249
0.087037
0.026250
0.000906
0.136562
0.111636
-0.000510
-0.072279
-0.011414
-0.018814
-0.034288
0.020028
0.020960
0.080579
-0.072332
-0.020053
-0.005461
-0.078240
0.072083
0.144404
0.081099
0.127815
-0.047155
0.044214
0.031624
-0.039334
0.119763
0.108564
0.022955
0.118092
0.053021
0.087324
-0.057248
-0.023892
0.049522
-0.041007
-0.041470
0.123097
-0.044544
0.016574
0.069573
0.095617
-0.028997
0.058550
0.007627
-0.061345
0.083991
0.040539
0.078918
0.121968
0.072243
0.057067
0.090640
-0.049822
-0.006071
-0.054837
0.012230
0.062789
0.142450
0.138606
0.100980
-0.030014
-0.064501
-0.037111
0.103882
0.096613
0.095005
0.142434
0.077153
-0.024863
0.067009
-0.022125
-0.079212
-0.000343
0.116011
0.092002
0.006015
0.035939
-0.052910
-0.014306
0.143428
0.128128
0.126195
-0.066473
-0.063554
0.106905
0.057332
0.034249
0.036276
0.145389
0.134851
0.130697
-0.064913
0.124946
0.045738
-0.013864
-0.044385
0.112739
-0.028792
0.036026
-0.056505
-0.058563
0.028388
0.026999
0.031887
0.107941
-0.015704
0.100921
-0.034328
0.026594
-0.039051
0.103235
-0.005861
-0.020381
0.083508
0.072038
-0.040278
0.104877
0.123316
0.055803
0.117072
0.125801
-0.060296
0.133694
-0.018139
0.119429
-0.036689
-0.056978
-0.051620
0.063683
0.035765
0.065647
-0.012372
0.080492
0.052669
0.044976
0.003087
0.114963
-0.052955
0.075049
0.140516
0.137546
0.141485
0.098915
-0.003362
-0.076275
-0.061592
0.023349
0.015928
0.032323
0.098955
-0.032360
-0.003911
0.086989
0.088832
0.022116
-0.020525
0.110089
0.121460
0.124682
0.028754
0.069276
0.050021
0.076763
0.018908
0.113683
-0.040798
0.057801
0.013625
0.009330
0.005202
0.011706
0.113290
-0.059974
0.092040
0.095018
-0.028405
-0.061567
-0.025419
-0.033629
0.100253
-0.049991
-0.045880
-0.008466
0.004419
0.078118
-0.075187
0.067899
-0.066706
-0.051360
-0.001171
-0.074262
0.070029
0.133607
0.095926
0.089976
0.019396
0.040248
-0.025842
-0.022902
-0.058685
0.139491
-0.054375
0.046299
0.084055
0.109796
-0.070413
0.059349
0.129945
0.058004
0.120029
-0.069353
0.117440
-0.040664
0.042252
-0.016821
-0.042516
-0.030095
-0.020353
-0.013847
-0.011711
0.030355
0.038078
0.034248
0.105705
0.098329
-0.031734
-0.036759
0.103295
-0.037979
-0.030144
0.016359
0.085730
0.054762
0.015779
-0.037923
0.058589
0.112074
0.096815
0.087942
-0.053897
0.006513
-0.018631
0.040067
-0.065603
0.046858
0.109038
0.113043
0.000038
0.023239
0.074004
-0.038390
0.063309
0.088798
-0.011179
0.000089
-0.004176
-0.067367
-0.069423
0.079040
0.070911
0.138567
0.131695
0.121623
0.117057
-0.073378
0.041629
0.107761
-0.007775
-0.016941
-0.027814
0.029954
0.094435
0.096739
0.025937
0.031762
-0.003652
0.085370
-0.018624
0.117025
0.048309
0.011193
-0.038090
0.053356
0.081862
0.003883
0.038001
-0.009484
0.093606
-0.026973
0.012991
-0.021939
0.061411
-0.055816
-0.015063
0.110764
-0.056993
-0.048204
-0.045261
0.106159
0.011484
-0.047169
-0.050086
0.078038
-0.061966
0.065713
-0.058444
0.139524
0.069663
0.128702
0.131836
0.101881
-0.034965
0.123061
0.048384
-0.023849
-0.026874
0.101564
-0.056747
0.092950
-0.015251
-0.042124
0.084990
0.110673
0.075994
0.116620
-0.064475
0.125106
-0.021005
0.060148
-0.006336
0.004425
0.072987
0.137608
0.122923
0.020597
0.135596
-0.058628
0.022489
0.115154
0.024561
-0.032490
0.033648
-0.053029
0.036354
0.028474
-0.038111
0.027835
-0.005552
0.005874
0.069781
0.012853
-0.054137
0.110469
0.118593
-0.051964
0.123811
-0.024820
0.003723
-0.048778
-0.039013
0.085891
-0.016190
0.130695
0.034536
0.055922
0.106535
0.081355
0.075474
0.016177
0.020496
0.103518
-0.034405
0.103007
0.035504
0.064407
-0.051890
-0.062509
-0.043482
0.068753
0.135653
0.120024
-0.057372
0.090878
0.008641
0.083594
-0.015175
-0.012382
0.115125
0.078853
-0.016831
-0.035363
0.029268
0.026081
-0.000248
0.043350
0.050499
-0.036191
0.058868
0.087253
0.017479
0.037746
-0.018627
-0.054076
-0.023520
-0.026111
0.090183
0.092750
0.062162
-0.010263
-0.007178
0.002369