# vtk DataFile Version 2.0
Test
ASCII
DATASET POLYDATA
POINTS 5510 float
0.000000 0.000000 0.000000
0.080000 0.000000 0.000000
0.080000 0.160000 0.000000
0.000000 0.160000 0.000000
0.035000 0.076250 0.000000
0.046500 0.083750 0.000000
0.002000 0.000000 0.000000
0.004000 0.000000 0.000000
0.006000 0.000000 0.000000
0.008000 0.000000 0.000000
0.010000 0.000000 0.000000
0.012000 0.000000 0.000000
0.014000 0.000000 0.000000
0.016000 0.000000 0.000000
0.018000 0.000000 0.000000
0.020000 0.000000 0.000000
0.022000 0.000000 0.000000
0.024000 0.000000 0.000000
0.026000 0.000000 0.000000
0.028000 0.000000 0.000000
0.030000 0.000000 0.000000
0.032000 0.000000 0.000000
0.034000 0.000000 0.000000
0.036000 0.000000 0.000000
0.038000 0.000000 0.000000
0.040000 0.000000 0.000000
0.042000 0.000000 0.000000
0.044000 0.000000 0.000000
0.046000 0.000000 0.000000
0.048000 0.000000 0.000000
0.050000 0.000000 0.000000
0.052000 0.000000 0.000000
0.054000 0.000000 0.000000
0.056000 0.000000 0.000000
0.058000 0.000000 0.000000
0.060000 0.000000 0.000000
0.062000 0.000000 0.000000
0.064000 0.000000 0.000000
0.066000 0.000000 0.000000
0.068000 0.000000 0.000000
0.070000 0.000000 0.000000
0.072000 0.000000 0.000000
0.074000 0.000000 0.000000
0.076000 0.000000 0.000000
0.078000 0.000000 0.000000
0.080000 0.002000 0.000000
0.080000 0.004000 0.000000
0.080000 0.006000 0.000000
0.080000 0.008000 0.000000
0.080000 0.010000 0.000000
0.080000 0.012000 0.000000
0.080000 0.014000 0.000000
0.080000 0.016000 0.000000
0.080000 0.018000 0.000000
0.080000 0.020000 0.000000
0.080000 0.022000 0.000000
0.080000 0.024000 0.000000
0.080000 0.026000 0.000000
0.080000 0.028000 0.000000
0.080000 0.030000 0.000000
0.080000 0.032000 0.000000
0.080000 0.034000 0.000000
0.080000 0.036000 0.000000
0.080000 0.038000 0.000000
0.080000 0.040000 0.000000
0.080000 0.042000 0.000000
0.080000 0.044000 0.000000
0.080000 0.046000 0.000000
0.080000 0.048000 0.000000
0.080000 0.050000 0.000000
0.080000 0.052000 0.000000
0.080000 0.054000 0.000000
0.080000 0.056000 0.000000
0.080000 0.058000 0.000000
0.080000 0.060000 0.000000
0.080000 0.062000 0.000000
0.080000 0.064000 0.000000
0.080000 0.066000 0.000000
0.080000 0.068000 0.000000
0.080000 0.070000 0.000000
0.080000 0.072000 0.000000
0.080000 0.074000 0.000000
0.080000 0.076000 0.000000
0.080000 0.078000 0.000000
0.080000 0.080000 0.000000
0.080000 0.082000 0.000000
0.080000 0.084000 0.000000
0.080000 0.086000 0.000000
0.080000 0.088000 0.000000
0.080000 0.090000 0.000000
0.080000 0.092000 0.000000
0.080000 0.094000 0.000000
0.080000 0.096000 0.000000
0.080000 0.098000 0.000000
0.080000 0.100000 0.000000
0.080000 0.102000 0.000000
0.080000 0.104000 0.000000
0.080000 0.106000 0.000000
0.080000 0.108000 0.000000
0.080000 0.110000 0.000000
0.080000 0.112000 0.000000
0.080000 0.114000 0.000000
0.080000 0.116000 0.000000
0.080000 0.118000 0.000000
0.080000 0.120000 0.000000
0.080000 0.122000 0.000000
0.080000 0.124000 0.000000
0.080000 0.126000 0.000000
0.080000 0.128000 0.000000
0.080000 0.130000 0.000000
0.080000 0.132000 0.000000
0.080000 0.134000 0.000000
0.080000 0.136000 0.000000
0.080000 0.138000 0.000000
0.080000 0.140000 0.000000
0.080000 0.142000 0.000000
0.080000 0.144000 0.000000
0.080000 0.146000 0.000000
0.080000 0.148000 0.000000
0.080000 0.150000 0.000000
0.080000 0.152000 0.000000
0.080000 0.154000 0.000000
0.080000 0.156000 0.000000
0.080000 0.158000 0.000000
0.078000 0.160000 0.000000
0.076000 0.160000 0.000000
0.074000 0.160000 0.000000
0.072000 0.160000 0.000000
0.070000 0.160000 0.000000
0.068000 0.160000 0.000000
0.066000 0.160000 0.000000
0.064000 0.160000 0.000000
0.062000 0.160000 0.000000
0.060000 0.160000 0.000000
0.058000 0.160000 0.000000
0.056000 0.160000 0.000000
0.054000 0.160000 0.000000
0.052000 0.160000 0.000000
0.050000 0.160000 0.000000
0.048000 0.160000 0.000000
0.046000 0.160000 0.000000
0.044000 0.160000 0.000000
0.042000 0.160000 0.000000
0.040000 0.160000 0.000000
0.038000 0.160000 0.000000
0.036000 0.160000 0.000000
0.034000 0.160000 0.000000
0.032000 0.160000 0.000000
0.030000 0.160000 0.000000
0.028000 0.160000 0.000000
0.026000 0.160000 0.000000
0.024000 0.160000 0.000000
0.022000 0.160000 0.000000
0.020000 0.160000 0.000000
0.018000 0.160000 0.000000
0.016000 0.160000 0.000000
0.014000 0.160000 0.000000
0.012000 0.160000 0.000000
0.010000 0.160000 0.000000
0.008000 0.160000 0.000000
0.006000 0.160000 0.000000
0.004000 0.160000 0.000000
0.002000 0.160000 0.000000
0.000000 0.158000 0.000000
0.000000 0.156000 0.000000
0.000000 0.154000 0.000000
0.000000 0.152000 0.000000
0.000000 0.150000 0.000000
0.000000 0.148000 0.000000
0.000000 0.146000 0.000000
0.000000 0.144000 0.000000
0.000000 0.142000 0.000000
0.000000 0.140000 0.000000
0.000000 0.138000 0.000000
0.000000 0.136000 0.000000
0.000000 0.134000 0.000000
0.000000 0.132000 0.000000
0.000000 0.130000 0.000000
0.000000 0.128000 0.000000
0.000000 0.126000 0.000000
0.000000 0.124000 0.000000
0.000000 0.122000 0.000000
0.000000 0.120000 0.000000
0.000000 0.118000 0.000000
0.000000 0.116000 0.000000
0.000000 0.114000 0.000000
0.000000 0.112000 0.000000
0.000000 0.110000 0.000000
0.000000 0.108000 0.000000
0.000000 0.106000 0.000000
0.000000 0.104000 0.000000
0.000000 0.102000 0.000000
0.000000 0.100000 0.000000
0.000000 0.098000 0.000000
0.000000 0.096000 0.000000
0.000000 0.094000 0.000000
0.000000 0.092000 0.000000
0.000000 0.090000 0.000000
0.000000 0.088000 0.000000
0.000000 0.086000 0.000000
0.000000 0.084000 0.000000
0.000000 0.082000 0.000000
0.000000 0.080000 0.000000
0.000000 0.078000 0.000000
0.000000 0.076000 0.000000
0.000000 0.074000 0.000000
0.000000 0.072000 0.000000
0.000000 0.070000 0.000000
0.000000 0.068000 0.000000
0.000000 0.066000 0.000000
0.000000 0.064000 0.000000
0.000000 0.062000 0.000000
0.000000 0.060000 0.000000
0.000000 0.058000 0.000000
0.000000 0.056000 0.000000
0.000000 0.054000 0.000000
0.000000 0.052000 0.000000
0.000000 0.050000 0.000000
0.000000 0.048000 0.000000
0.000000 0.046000 0.000000
0.000000 0.044000 0.000000
0.000000 0.042000 0.000000
0.000000 0.040000 0.000000
0.000000 0.038000 0.000000
0.000000 0.036000 0.000000
0.000000 0.034000 0.000000
0.000000 0.032000 0.000000
0.000000 0.030000 0.000000
0.000000 0.028000 0.000000
0.000000 0.026000 0.000000
0.000000 0.024000 0.000000
0.000000 0.022000 0.000000
0.000000 0.020000 0.000000
0.000000 0.018000 0.000000
0.000000 0.016000 0.000000
0.000000 0.014000 0.000000
0.000000 0.012000 0.000000
0.000000 0.010000 0.000000
0.000000 0.008000 0.000000
0.000000 0.006000 0.000000
0.000000 0.004000 0.000000
0.000000 0.002000 0.000000
0.035411 0.076518 0.000000
0.035821 0.076786 0.000000
0.036232 0.077054 0.000000
0.036643 0.077321 0.000000
0.037054 0.077589 0.000000
0.037464 0.077857 0.000000
0.037875 0.078125 0.000000
0.038286 0.078393 0.000000
0.038696 0.078661 0.000000
0.039107 0.078929 0.000000
0.039518 0.079196 0.000000
0.039929 0.079464 0.000000
0.040339 0.079732 0.000000
0.040750 0.080000 0.000000
0.041161 0.080268 0.000000
0.041571 0.080536 0.000000
0.041982 0.080804 0.000000
0.042393 0.081071 0.000000
0.042804 0.081339 0.000000
0.043214 0.081607 0.000000
0.043625 0.081875 0.000000
0.044036 0.082143 0.000000
0.044446 0.082411 0.000000
0.044857 0.082679 0.000000
0.045268 0.082946 0.000000
0.045679 0.083214 0.000000
0.046089 0.083482 0.000000
0.040000 0.002000 0.000000
0.040001 0.158005 0.000000
0.002000 0.116000 0.000000
0.078000 0.048000 0.000000
0.002000 0.106000 0.000000
0.078000 0.058000 0.000000
0.001986 0.042173 0.000000
0.078015 0.117826 0.000000
0.001985 0.094174 0.000000
0.001985 0.084174 0.000000
0.001914 0.056074 0.000000
0.002000 0.072000 0.000000
0.078015 0.065826 0.000000
0.078016 0.075826 0.000000
0.078000 0.088000 0.000000
0.078000 0.104000 0.000000
0.078003 0.029997 0.000000
0.001998 0.130002 0.000000
0.002000 0.032000 0.000000
0.078013 0.128003 0.000000
0.056000 0.158000 0.000000
0.026000 0.002000 0.000000
0.060000 0.002000 0.000000
0.020000 0.158000 0.000000
0.002000 0.020000 0.000000
0.078000 0.142000 0.000000
0.002000 0.146000 0.000000
0.078000 0.020000 0.000000
0.016000 0.002000 0.000000
0.068000 0.002000 0.000000
0.066000 0.158000 0.000000
0.002000 0.014000 0.000000
0.008000 0.158000 0.000000
0.010000 0.002000 0.000000
0.078000 0.148000 0.000000
0.078000 0.008000 0.000000
0.078005 0.037995 0.000000
0.051991 0.001990 0.000000
0.028000 0.158000 0.000000
0.002000 0.008000 0.000000
0.078000 0.094000 0.000000
0.078000 0.110000 0.000000
0.001983 0.066159 0.000000
0.002000 0.050000 0.000000
0.046000 0.158000 0.000000
0.078000 0.134000 0.000000
0.002000 0.140000 0.000000
0.006000 0.002000 0.000000
0.002000 0.154000 0.000000
0.074000 0.002000 0.000000
0.078000 0.152000 0.000000
0.074000 0.158000 0.000000
0.078000 0.080000 0.000000
0.078000 0.070000 0.000000
0.078000 0.122000 0.000000
0.002000 0.090000 0.000000
0.002000 0.080000 0.000000
0.002000 0.038000 0.000000
0.002000 0.102000 0.000000
0.002000 0.112000 0.000000
0.036000 0.002000 0.000000
0.078000 0.042000 0.000000
0.032000 0.002000 0.000000
0.047987 0.001989 0.000000
0.032008 0.158010 0.000000
0.002000 0.028000 0.000000
0.002000 0.126000 0.000000
0.060000 0.158000 0.000000
0.022000 0.002000 0.000000
0.002000 0.136000 0.000000
0.078000 0.024000 0.000000
0.012000 0.158000 0.000000
0.078000 0.158000 0.000000
0.001947 0.003947 0.000000
0.002000 0.158000 0.000000
0.078000 0.012000 0.000000
0.078000 0.096000 0.000000
0.078000 0.098000 0.000000
0.078000 0.082000 0.000000
0.078111 0.099889 0.000000
0.078035 0.083965 0.000000
0.078000 0.090000 0.000000
0.078000 0.106000 0.000000
0.078000 0.072000 0.000000
0.078000 0.112000 0.000000
0.078043 0.061976 0.000000
0.078000 0.114000 0.000000
0.002000 0.064000 0.000000
0.002000 0.062000 0.000000
0.002000 0.088000 0.000000
0.002000 0.078000 0.000000
0.002000 0.060000 0.000000
0.001966 0.076034 0.000000
0.002000 0.070000 0.000000
0.002000 0.054000 0.000000
0.001957 0.098024 0.000000
0.002000 0.048000 0.000000
0.002000 0.046000 0.000000
[...]
POINT_DATA 5510
SCALARS UX float 1
LOOKUP_TABLE default
-0.008099
0.020622
0.000001
-0.028150
-0.005625
-0.001444
-0.007378
-0.006658
-0.005937
-0.005216
-0.004495
-0.003774
-0.003054
-0.002333
-0.001613
-0.000894
-0.000175
0.000543
0.001261
0.001978
0.002694
0.003410
0.004125
0.004839
0.005553
0.006267
0.006981
0.007694
0.008407
0.009121
0.009834
0.010548
0.011263
0.011977
0.012693
0.013409
0.014126
0.014844
0.015563
0.016283
0.017003
0.017725
0.018448
0.019172
0.019896
0.020378
0.020137
0.019897
0.019657
0.019418
0.019180
0.018944
0.018708
0.018473
0.018238
0.018005
0.017773
0.017542
0.017314
0.017086
0.016861
0.016636
0.016414
0.016193
0.015973
0.015754
0.015536
0.015319
0.015101
0.014885
0.014667
0.014448
0.014226
0.014004
0.013778
0.013550
0.013319
0.013086
0.012850
0.012610
0.012369
0.012122
0.011872
0.011618
0.011358
0.011096
0.010826
0.010547
0.010259
0.009966
0.009658
0.009341
0.009018
0.008687
0.008350
0.008016
0.007688
0.007362
0.007052
0.006752
0.006464
0.006178
0.005910
0.005646
0.005388
0.005136
0.004885
0.004640
0.004397
0.004155
0.003915
0.003676
0.003438
0.003200
0.002963
0.002726
0.002489
0.002253
0.002019
0.001785
0.001553
0.001320
0.001063
0.000692
-0.000005
-0.000757
-0.001505
-0.002246
-0.002978
-0.003706
-0.004434
-0.005159
-0.005883
-0.006605
-0.007326
-0.008047
-0.008766
-0.009484
-0.010202
-0.010919
-0.011635
-0.012350
-0.013065
-0.013780
-0.014494
-0.015208
-0.015922
-0.016636
-0.017350
-0.018064
-0.018779
-0.019494
-0.020210
-0.020927
-0.021645
-0.022363
-0.023083
-0.023804
-0.024526
-0.025249
-0.025973
-0.026698
-0.027424
-0.027907
-0.027665
-0.027423
-0.027185
-0.026947
-0.026709
-0.026473
-0.026238
-0.026004
-0.025771
-0.025539
-0.025308
-0.025078
-0.024851
-0.024625
-0.024400
-0.024177
-0.023955
-0.023734
-0.023515
-0.023296
-0.023077
-0.022859
-0.022641
-0.022423
-0.022203
-0.021982
-0.021758
-0.021533
-0.021306
-0.021076
-0.020843
-0.020608
-0.020370
-0.020129
-0.019886
-0.019638
-0.019388
-0.019134
-0.018874
-0.018612
-0.018343
-0.018066
-0.017782
-0.017493
-0.017191
-0.016880
-0.016563
-0.016241
-0.015910
-0.015582
-0.015257
-0.014935
-0.014624
-0.014322
-0.014023
-0.013744
-0.013471
-0.013203
-0.012941
-0.012685
-0.012431
-0.012184
-0.011939
-0.011696
-0.011454
-0.011213
-0.010973
-0.010735
-0.010496
-0.010257
-0.010018
-0.009779
-0.009540
-0.009301
-0.009062
-0.008822
-0.008581
-0.008340
-0.005460
-0.005296
-0.005071
-0.004852
-0.004678
-0.004553
-0.004416
-0.004265
-0.004166
-0.004019
-0.003893
-0.003790
-0.003652
-0.003515
-0.003350
-0.003193
-0.003038
-0.002879
-0.002736
-0.002631
-0.002517
-0.002408
-0.002277
-0.002153
-0.002000
-0.001827
-0.001661
0.006027
-0.013540
-0.022345
0.014370
-0.021259
0.013285
-0.012487
0.004931
-0.019925
-0.018711
-0.014544
-0.017070
0.012403
0.011196
0.009547
0.006927
0.016353
-0.023891
-0.011208
0.003670
-0.007805
0.001020
0.013169
-0.020687
-0.009772
0.002001
-0.025744
0.017508
-0.002575
0.016041
-0.004193
-0.009058
-0.025006
-0.004737
0.001292
0.018931
0.015459
0.010307
-0.017825
-0.008341
0.008610
0.005996
-0.016182
-0.013564
-0.011394
0.002949
-0.025040
-0.006179
-0.026697
0.018205
0.000819
-0.001292
0.010656
0.011905
0.004398
-0.019423
-0.018170
-0.011946
-0.020816
-0.021912
0.004599
0.015018
0.003169
0.008878
-0.016394
-0.010726
-0.023441
-0.006363
-0.000416
-0.024575
0.017040
-0.023562
0.000036
-0.007874
-0.027179
0.018453
0.008278
0.007939
0.010391
0.007658
0.010134
0.009244
0.006606
0.011663
0.005708
0.012855
0.005432
-0.015827
-0.015496
-0.019180
-0.017906
-0.015161
-0.017650
-0.016772
-0.014180
-0.020381
-0.013274
-0.012995
0.013723
0.014810
0.014155
-0.021695
-0.022780
0.004151
-0.011697
0.007455
-0.014968
-0.012825
0.015904
-0.010678
-0.009961
-0.023220
0.002453
0.011738
-0.019254
-0.010486
0.003430
0.002712
-0.010248
0.002475
-0.024345
-0.009243
0.016810
-0.025508
-0.005641
-0.001136
0.014603
-0.022122
0.001764
0.017979
-0.026219
-0.009534
-0.008819
-0.003467
-0.003296
-0.002742
0.000582
-0.026453
-0.006943
-0.007721
0.019411
0.017483
0.019653
-0.021200
0.013656
-0.018737
-0.017499
-0.016371
-0.014461
-0.012835
0.009988
0.008849
0.006950
0.011220
0.005008
-0.013290
-0.022497
0.002940
-0.011227
0.002925
-0.009009
-0.010001
0.001752
-0.000658
-0.023844
0.016310
-0.006124
-0.008812
-0.002816
-0.025016
-0.003237
0.006191
0.014121
-0.008336
0.000088
0.017963
0.009474
0.007233
0.007894
-0.016988
-0.014791
-0.015437
-0.012296
0.008982
0.009884
0.007317
0.010968
0.011440
0.006344
0.012193
0.005187
-0.016515
-0.018954
-0.017401
-0.019712
-0.014853
-0.018481
-0.013891
-0.012747
0.012627
-0.020151
0.013080
-0.020609
0.013522
0.004711
-0.021055
-0.012263
0.013956
-0.021494
-0.022162
0.014598
-0.022573
0.015245
-0.023006
0.006736
-0.014249
0.005310
-0.012107
0.008164
-0.015678
0.003918
-0.011462
0.015681
0.003882
0.009591
-0.017107
-0.010433
0.011021
-0.018537
-0.023666
-0.010969
0.003190
0.016126
-0.009762
0.001737
0.002224
-0.008524
0.012452
-0.019969
-0.010011
0.002239
-0.024117
0.016580
-0.024807
-0.007085
0.000302
-0.025274
0.017274
-0.004917
-0.001855
-0.021404
0.013885
-0.022841
0.015321
0.001528
-0.009296
-0.024283
0.017743
-0.025981
0.001057
0.018216
-0.008580
-0.004016
-0.026457
-0.002016
0.018691
0.000327
-0.005458
-0.008101
-0.025729
-0.007140
0.016761
-0.000588
-0.026211
-0.026937
0.019170
0.018686
0.018928
-0.019969
0.012438
-0.013815
0.007923
0.006253
-0.009279
-0.016880
0.010788
-0.019731
0.013644
0.017489
-0.022600
0.000804
0.014965
0.005093
-0.024041
-0.025731
0.008272
0.004484
-0.015806
0.012010
0.011484
-0.019534
-0.019003
0.010751
0.010263
-0.018264
-0.017773
0.012877
-0.020411
0.003973
-0.010736
-0.015437
-0.010243
0.015393
0.002466
-0.022939
0.001496
0.000060
-0.002096
0.015080
-0.024544
-0.024076
-0.004257
-0.007859
-0.025254
0.017016
0.016543
-0.001801
-0.000161
0.017966
0.017722
0.008542
0.009149
-0.016069
0.006602
-0.016664
0.004790
-0.014113
-0.013164
0.013912
0.010991
-0.018505
-0.012041
-0.011498
-0.021436
-0.021853
0.005560
0.005884
0.013243
0.013448
-0.020782
-0.020989
-0.014033
0.007591
0.009734
-0.022281
-0.015131
-0.017246
0.005291
0.014523
0.014314
-0.012582
-0.010984
0.003190
0.009351
0.003658
-0.011141
0.006520
-0.011887
0.002706
-0.022721
-0.018303
-0.008294
0.002209
0.015847
0.016078
-0.023385
-0.023614
0.001514
0.012214
-0.009527
-0.009049
-0.009721
0.001990
-0.001375
-0.012590
-0.006844
-0.021163
-0.004680
-0.005403
-0.003958
-0.024779
-0.003536
0.016519
-0.008574
-0.008098
-0.005699
0.017241
-0.002518
-0.006420
0.018445
0.000328
-0.000411
-0.025970
-0.007381
-0.025486
-0.010789
0.013619
-0.020196
0.004031
-0.017111
-0.018359
-0.015446
-0.012293
0.010847
0.009627
0.007856
-0.021584
0.002477
-0.008770
0.003396
0.015123
0.001270
-0.022659
-0.000181
-0.005168
-0.008326
-0.002336
-0.023816
-0.007376
-0.012482
-0.013491
0.004928
-0.002294
0.008587
-0.016130
-0.011369
0.013256
0.006919
-0.014483
-0.009524
-0.010273
-0.022000
0.001969
-0.003777
0.001040
-0.024289
-0.000397
0.005872
0.007592
0.004624
-0.015143
0.010513
0.011734
-0.018025
-0.019255
0.012215
-0.019743
-0.021640
0.009073
0.006515
-0.014127
0.012661
-0.020194
-0.011812
-0.016582
0.004175
-0.022049
-0.013744
-0.013301
-0.011610
-0.013754
-0.016138
0.010384
-0.017897
0.014744
-0.020574
-0.011905
0.013036
0.010056
0.004362
0.005793
0.008623
0.003698
0.003445
0.015182
-0.010490
0.012781
-0.007564
0.015623
-0.017591
-0.023160
0.001028
0.001988
-0.010193
0.000777
-0.009290
-0.020326
-0.020770
0.011501
-0.019016
0.015354
0.015816
-0.009045
-0.022889
-0.023348
-0.006605
-0.004446
0.001744
0.012929
-0.020447
-0.024310
-0.001615
-0.014732
0.016779
-0.007852
0.001278
-0.021881
0.014361
-0.003727
0.015799
0.017251
0.016999
-0.004978
0.000566
-0.025491
0.017727
-0.006660
-0.023320
0.017481
0.018205
-0.007620
-0.000881
-0.001098
-0.025245
-0.024763
0.007219
0.005216
-0.019513
-0.014526
-0.013171
0.007022
-0.011430
-0.021942
0.001274
0.007686
0.014407
-0.008809
-0.016642
0.010550
0.014120
-0.004931
-0.019492
-0.001858
0.016526
0.011934
-0.021641
0.016759
-0.023079
0.005904
-0.019467
0.014248
0.000548
-0.013203
0.009785
-0.017387
-0.019015
-0.018514
0.011486
0.010996
0.004854
-0.022440
-0.007330
-0.008570
0.000533
0.016053
0.000556
-0.007138
-0.024522
-0.012689
0.010199
-0.017714
-0.011037
0.004353
-0.015877
0.008243
0.004315
-0.019734
0.012186
0.012649
-0.013573
0.013423
-0.020009
-0.021185
-0.020953
-0.021378
0.009318
-0.016826
0.008723
0.002716
0.003283
-0.016259
0.004099
-0.015199
-0.014448
0.007201
-0.014740
0.010588
-0.018103
0.005523
-0.010526
0.014898
0.013828
-0.012173
0.009110
0.003796
-0.022218
-0.021786
0.006260
-0.008058
-0.020519
-0.008810
0.001254
0.002230
0.002676
-0.017357
-0.009766
-0.010024
0.012969
-0.011646
0.015584
0.011263
-0.009481
0.014461
-0.010900
-0.023117
-0.023582
0.001509
0.000794
-0.008331
-0.020207
0.012689
-0.008090
-0.000898
0.015557
-0.005887
-0.003057
-0.004214
-0.007615
-0.018066
0.000317
-0.000158
0.016278
0.017003
0.017242
-0.005218
-0.004497
-0.006899
-0.005939
-0.024053
-0.003010
-0.024528
-0.025005
-0.013054
-0.001586
-0.000638
0.012925
0.011336
-0.017085
-0.016070
-0.011270
-0.012833
0.009576
0.008592
0.004568
-0.016417
0.010317
-0.019255
-0.007824
-0.004698
-0.022859
-0.007371
-0.020530
-0.000162
-0.010089
0.001729
0.011965
0.010293
-0.017803
-0.006894
-0.003296
-0.004737
-0.023565
-0.024282
-0.013516
0.006654
0.005223
0.007934
0.007241
-0.015490
-0.014783
-0.014195
0.012593
0.004573
-0.011852
0.014193
0.000793
0.009018
0.000294
0.014862
-0.001141
-0.006417
-0.000880
-0.002069
-0.012122
-0.020887
-0.021296
-0.021725
0.006255
0.005616
-0.020320
0.003987
0.003389
-0.013856
0.011214
-0.018737
-0.019278
-0.018877
-0.019226
0.011695
0.012473
0.003542
0.003003
0.009756
-0.017262
-0.012848
-0.010736
-0.009951
-0.009823
-0.014269
0.001512
0.002022
-0.009304
-0.015925
-0.019661
-0.010743
0.014040
0.009833
-0.007085
0.008399
0.001035
0.006959
-0.008097
0.012103
0.014636
0.003147
-0.020066
-0.022396
-0.022169
-0.009059
0.016289
-0.018776
0.011975
-0.008568
0.000313
-0.002577
0.015329
-0.006367
-0.005648
-0.009243
0.014674
-0.017121
-0.020922
0.014837
-0.023093
0.013403
-0.007847
0.000081
0.016038
0.016280
0.016764
-0.003498
-0.022359
-0.001357
0.016519
-0.005457
-0.006178
-0.023799
-0.024766
0.005555
-0.016497
-0.012919
0.009926
-0.017436
-0.009398
-0.018683
0.011292
-0.014184
-0.016565
0.006360
0.009015
-0.011196
0.000816
-0.008100
-0.021017
-0.016183
0.013477
-0.000161
-0.001381
0.012450
-0.022139
-0.013344
-0.007382
-0.021400
0.005708
0.002885
-0.018188
-0.018658
0.010663
0.011112
0.011458
-0.009713
-0.007562
0.002304
0.006022
0.013330
0.007448
-0.021452
0.013919
-0.018548
-0.002816
-0.000641
0.013879
0.015317
-0.024042
-0.013105
-0.016838
0.009309
0.003188
0.007576
0.008263
-0.015073
-0.010391
-0.015738
-0.017888
0.010367
0.003742
0.012733
0.011700
0.004890
-0.012596
0.003729
-0.011519
-0.012520
-0.013899
-0.009577
0.009992
0.001782
-0.017504
-0.018856
-0.019025
0.005268
0.013756
-0.021512
0.013971
0.009605
0.004988
-0.010988
0.000324
0.013126
0.008765
0.008173
-0.008589
-0.019848
-0.021078
-0.017828
0.001007
0.000078
0.015566
0.016042
-0.006128
-0.000427
-0.007856
-0.022627
-0.015705
-0.014978
0.003850
-0.007133
0.012283
-0.005412
-0.000402
0.015094
-0.008533
-0.023328
-0.003983
-0.007609
-0.004017
-0.022119
-0.023560
-0.004976
0.011025
-0.023803
-0.019967
0.015559
0.015798
-0.006656
-0.001836
-0.001119
-0.005696
-0.002782
0.002438
-0.012822
-0.020686
-0.016247
-0.016842
-0.012057
-0.013320
0.009186
0.006441
-0.018423
0.010894
0.005321
0.008215
0.012224
-0.018159
0.010296
-0.010899
-0.013578
-0.011866
0.005721
-0.007398
0.002199
0.009375
-0.019881
-0.005891
0.014614
-0.019016
-0.006652
-0.017825
-0.017231
0.009716
-0.000877
0.015321
-0.021162
-0.022606
-0.015902
0.008471
0.002993
0.011908
0.007998
0.007344
0.006841
0.010704
0.011111
-0.008846
-0.012652
-0.015508
-0.020201
-0.008269
-0.021906
0.000767
-0.000667
-0.004465
-0.004256
-0.002551
0.004320
-0.016344
0.008845
-0.014844
-0.012459
0.006043
0.004560
0.003899
-0.009772
-0.010215
-0.018294
0.003302
-0.018486
-0.011944
-0.012305
0.002561
-0.009129
-0.013590
-0.012338
0.009359
-0.010408
0.001080
-0.016890
0.002570
-0.011891
0.001631
-0.014774
-0.014039
-0.020596
0.013051
0.005291
-0.009010
0.000572
0.008883
-0.007624
0.012422
-0.019009
0.006722
-0.021228
0.011428
-0.021678
0.013693
-0.017602
-0.016885
-0.019400
-0.008383
-0.006841
0.000086
0.013536
0.011736
-0.016686
0.009181
-0.006413
-0.005215
-0.020804
-0.002100
-0.001121
-0.001600
-0.020680
-0.022372
-0.003534
0.014596
0.015803
-0.000397
-0.010299
0.014148
-0.003268
0.013164
0.014842
-0.023320
-0.006174
-0.007135
0.015079
-0.005935
-0.022838
0.002910
-0.023081
0.010079
0.013259
-0.015482
-0.011522
0.005891
0.004821
-0.017626
0.010100
0.002931
0.007764
-0.014426
-0.009011
0.011521
-0.016997
0.009471
-0.015763
0.006129
0.008317
0.004662
-0.012348
0.000392
-0.019914
-0.009519
-0.015252
0.002671
0.012554
-0.020742
0.009139
-0.000908
-0.000621
-0.006675
-0.021423
0.009023
-0.016535
-0.005935
-0.001600
0.013208
-0.003055
0.012210
0.014603
0.012845
-0.016663
-0.020444
0.015084
-0.004497
-0.005454
-0.022363
0.005248
-0.013853
0.009788
-0.017308
0.007021
-0.009604
0.007176
-0.015065
-0.019608
-0.017686
0.010901
0.012043
-0.018114
-0.011632
0.004247
-0.017947
-0.011289
0.008192
0.010512
0.001348
0.002248
0.001877
0.007188
-0.010305
-0.020404
-0.013109
0.006412
-0.012994
-0.013261
0.012623
-0.000131
-0.013849
-0.015667
-0.020005
-0.008739
0.007935
-0.018248
0.005764
0.008656
0.008465
-0.015959
0.010654
-0.016183
-0.007700
-0.008294
-0.020309
0.004183
-0.000633
-0.020968
-0.007313
0.012770
-0.019190
0.001485
0.014380
0.011603
0.000044
-0.019727
0.014849
-0.006602
0.014355
-0.001622
-0.006895
-0.021654
-0.005177
-0.002316
-0.021879
-0.001104
0.012926
-0.007157
-0.001358
0.008611
-0.010595
-0.018309
-0.003036
-0.003752
-0.022600
-0.022843
0.010784
0.003613
-0.008729
0.005021
0.008800
-0.016307
-0.011833
0.003195
-0.010963
0.007693
-0.012627
-0.012159
0.009916
-0.017438
0.006896
-0.009890
0.002384
-0.014603
0.003341
-0.015113
-0.008336
-0.017501
-0.015972
-0.014931
0.008461
-0.013300
-0.011279
0.005501
-0.012198
-0.006979
-0.009212
0.011846
-0.020042
-0.001150
-0.006364
0.001829
-0.020710
-0.018778
-0.020210
0.005476
-0.012485
0.011976
-0.010933
-0.017194
0.009353
-0.016878
0.011264
-0.010274
0.011940
0.007854
0.001241
-0.004230
-0.006182
-0.000198
-0.011318
0.013665
-0.004736
-0.002793
-0.022124
-0.021645
-0.009659
0.012342
-0.014516
0.001547
-0.017728
0.002693
0.011359
0.009151
-0.016675
-0.017272
0.009942
0.010123
-0.008019
0.003605
0.007488
-0.010048
-0.015325
0.010530
0.000663
-0.019535
-0.019251
-0.018943
-0.015555
0.006353
0.011721
-0.012944
0.000130
0.008057
-0.006923
0.008429
0.004392
-0.001345
0.008628
-0.016123
-0.012982
0.007003
-0.020112
-0.018369
0.010768
-0.006428
-0.015950
-0.011880
-0.000373
0.009674
0.001956
0.013435
-0.018740
0.014368
-0.001836
-0.008023
0.011494
-0.020526
-0.005655
-0.003778
-0.021888
-0.005696
0.012984
-0.002077
-0.000864
0.014125
-0.021190
-0.006704
0.004082
0.003373
-0.002339
0.003917
0.013900
-0.017366
0.013639
0.009840
0.005450
-0.019716
0.003335
-0.011657
-0.014554
0.007224
0.006715
-0.008411
0.004962
0.001221
-0.014105
0.006334
-0.009221
0.002796
0.007434
-0.019867
-0.010507
-0.017437
0.010611
-0.016719
0.009104
-0.015212
-0.012742
0.006942
0.007766
0.003834
-0.012050
-0.000008
-0.018901
0.005928
0.003131
-0.006290
0.008900
-0.015733
0.012500
-0.001073
-0.006127
-0.005974
-0.001810
-0.016632
-0.018289
-0.009658
0.003019
0.004656
-0.007675
0.011093
0.011641
-0.011515
-0.019230
0.002374
0.002576
-0.000440
0.006630
-0.005473
-0.002577
0.012954
0.001707
0.011259
-0.020482
-0.004020
0.013411
0.005769
-0.009013
0.008482
-0.016001
-0.012565
0.010310
-0.010603
-0.007284
0.000984
0.007925
0.008256
-0.015420
-0.015760
-0.015040
-0.011154
-0.019390
-0.014991
-0.010780
-0.000562
0.007339
0.008789
-0.016318
-0.017614
-0.019626
-0.002059
-0.002553
0.003358
-0.011547
0.007701
-0.019828
0.005210
-0.012094
0.002128
0.010547
-0.020263
0.000513
-0.018544
-0.014325
-0.017096
0.014134
-0.021409
-0.011286
-0.019487
-0.003510
0.012686
-0.007069
0.010931
-0.008493
0.013656
-0.020922
-0.001864
-0.018069
0.012063
0.013890
-0.004977
-0.004943
-0.001317
-0.006465
-0.020941
-0.016430
-0.008066
-0.009962
0.007644
0.004782
0.012140
-0.013634
0.004445
-0.013518
-0.014163
0.001670
0.006516
0.001016
-0.008584
0.002078
-0.019236
-0.014604
-0.017188
0.009963
-0.008464
-0.014548
-0.010758
0.005238
0.004102
0.007275
0.002726
0.010940
-0.012982
-0.015501
-0.018940
-0.019561
-0.001760
-0.000678
-0.010278
-0.002518
0.011026
0.009695
-0.011937
-0.019248
-0.004707
-0.014398
-0.010282
-0.010812
0.000326
0.006230
-0.020002
-0.006831
-0.003265
-0.020696
-0.004262
0.013422
-0.002101
0.011441
-0.013399
-0.007692
-0.009618
-0.011499
0.010589
0.009407
0.000540
0.006533
-0.006572
0.007132
-0.018602
-0.014762
0.003604
-0.016866
-0.016578
0.010888
-0.016888
-0.000276
0.004954
0.008094
-0.015591
-0.006225
-0.011356
-0.019051
0.006698
0.002758
0.006018
0.007470
0.004955
0.004080
0.007532
-0.017741
-0.012478
-0.015013
-0.000814
-0.005722
0.012461
0.012728
0.002417
-0.015428
-0.019423
-0.016386
0.008898
0.007919
0.000984
0.013187
-0.003298
-0.007777
-0.005222
-0.014789
-0.021175
-0.002307
0.010115
0.000264
-0.001562
0.002774
-0.018096
-0.005417
0.012945
0.011141
0.011252
-0.017838
-0.017129
0.003840
-0.006019
-0.009252
-0.009001
0.013177
0.012278
0.009600
-0.019137
0.008201
-0.007796
-0.013668
-0.012723
0.005243
-0.008961
0.002229
-0.018583
-0.018749
0.001216
0.001075
0.001661
0.009468
-0.013991
0.008629
-0.016150
0.000721
-0.015974
0.008536
-0.012231
-0.014104
0.006423
0.004709
-0.011943
0.003603
0.010240
-0.005899
0.006544
0.008662
-0.018264
0.011796
-0.006593
0.010146
-0.016082
-0.018231
-0.017647
-0.005256
0.001936
0.004358
-0.005183
0.006062
0.003491
0.002940
-0.002257
0.010052
-0.014806
-0.003550
0.012238
0.012251
0.012717
0.002172
-0.003021
-0.020465
-0.016902
0.000395
-0.000671
0.001543
0.008125
-0.015649
-0.012241
0.006842
0.007074
-0.010739
-0.014587
0.009533
0.010387
0.010741
-0.009986
0.004657
-0.006996
0.005503
-0.000220
0.005706
-0.016179
0.003856
-0.000957
-0.001501
-0.002004
-0.011074
0.009882
-0.018569
0.007433
0.007738
-0.015240
-0.018753
-0.014925
-0.015756
0.008234
-0.014086
-0.017010
-0.003988
-0.011508
-0.002815
-0.019954
-0.004755
-0.019345
-0.017913
-0.002761
-0.020228
-0.004504
0.010307
0.001454
0.000027
-0.010583
0.002453
-0.008248
-0.007531
-0.016198
0.011741
-0.017960
-0.007422
-0.001393
0.004538
-0.019776
-0.005780
0.011356
-0.005612
0.007262
-0.018539
0.010260
-0.016579
-0.007942
-0.014108
-0.012511
-0.009467
-0.014322
-0.013526
-0.013217
0.001493
-0.008494
-0.009007
0.008918
0.008131
-0.015648
-0.010882
0.008342
-0.015585
-0.015115
-0.010459
0.006457
0.003343
-0.000926
-0.011589
-0.005229
0.005581
0.001917
-0.000213
-0.015283
-0.002178
-0.013870
0.002177
-0.018863
-0.007052
0.009087
0.009453
-0.011565
-0.010215
0.004942
-0.016027
0.003898
0.006826
-0.012947
-0.002962
-0.003469
-0.018305
-0.019301
-0.002345
-0.004041
0.012010
0.010092
0.010049
0.009568
-0.019762
-0.007866
0.004299
-0.012476
-0.013896
-0.014923
0.001136
0.007416
0.007589
-0.010049
-0.009334
-0.011966
0.006641
-0.014103
0.009797
0.003198
-0.010814
-0.016204
-0.006280
0.006199
-0.011284
0.002205
-0.004485
0.007596
-0.015089
-0.001331
-0.014281
-0.005535
-0.018124
-0.013648
0.009279
-0.017888
-0.013899
-0.013183
0.008802
-0.001228
-0.017127
-0.017461
0.005647
-0.018446
-0.005020
-0.018395
0.012485
0.004455
0.009366
0.011577
0.002884
-0.015869
0.010557
-0.007149
-0.007994
-0.008729
0.008336
-0.015976
0.000740
-0.005886
-0.016308
-0.000921
0.004985
-0.003075
0.009874
-0.017601
0.010445
-0.007296
-0.005339
-0.003730
-0.002437
-0.003795
0.011531
0.007963
-0.000058
0.012021
-0.018078
-0.010056
0.006330
0.000461
-0.010113
0.001654
-0.017817
-0.008714
0.000961
-0.011420
0.000624
-0.011992
-0.010872
0.004241
-0.001566
-0.017227
0.005428
0.009357
-0.015060
0.008430
-0.008458
-0.002845
-0.017015
-0.015664
-0.000457
-0.006352
0.011090
-0.008707
-0.005645