# vtk DataFile Version 2.0
Test
ASCII
DATASET POLYDATA
POINTS 5510 float
0.000000 0.000000 0.000000
0.080000 0.000000 0.000000
0.080000 0.160000 0.000000
0.000000 0.160000 0.000000
0.035000 0.076250 0.000000
0.046500 0.083750 0.000000
0.002000 0.000000 0.000000
0.004000 0.000000 0.000000
0.006000 0.000000 0.000000
0.008000 0.000000 0.000000
0.010000 0.000000 0.000000
0.012000 0.000000 0.000000
0.014000 0.000000 0.000000
0.016000 0.000000 0.000000
0.018000 0.000000 0.000000
0.020000 0.000000 0.000000
0.022000 0.000000 0.000000
0.024000 0.000000 0.000000
0.026000 0.000000 0.000000
0.028000 0.000000 0.000000
0.030000 0.000000 0.000000
0.032000 0.000000 0.000000
0.034000 0.000000 0.000000
0.036000 0.000000 0.000000
0.038000 0.000000 0.000000
0.040000 0.000000 0.000000
0.042000 0.000000 0.000000
0.044000 0.000000 0.000000
0.046000 0.000000 0.000000
0.048000 0.000000 0.000000
0.050000 0.000000 0.000000
0.052000 0.000000 0.000000
0.054000 0.000000 0.000000
0.056000 0.000000 0.000000
0.058000 0.000000 0.000000
0.060000 0.000000 0.000000
0.062000 0.000000 0.000000
0.064000 0.000000 0.000000
0.066000 0.000000 0.000000
0.068000 0.000000 0.000000
0.070000 0.000000 0.000000
0.072000 0.000000 0.000000
0.074000 0.000000 0.000000
0.076000 0.000000 0.000000
0.078000 0.000000 0.000000
0.080000 0.002000 0.000000
0.080000 0.004000 0.000000
0.080000 0.006000 0.000000
0.080000 0.008000 0.000000
0.080000 0.010000 0.000000
0.080000 0.012000 0.000000
0.080000 0.014000 0.000000
0.080000 0.016000 0.000000
0.080000 0.018000 0.000000
0.080000 0.020000 0.000000
0.080000 0.022000 0.000000
0.080000 0.024000 0.000000
0.080000 0.026000 0.000000
0.080000 0.028000 0.000000
0.080000 0.030000 0.000000
0.080000 0.032000 0.000000
0.080000 0.034000 0.000000
0.080000 0.036000 0.000000
0.080000 0.038000 0.000000
0.080000 0.040000 0.000000
0.080000 0.042000 0.000000
0.080000 0.044000 0.000000
0.080000 0.046000 0.000000
0.080000 0.048000 0.000000
0.080000 0.050000 0.000000
0.080000 0.052000 0.000000
0.080000 0.054000 0.000000
0.080000 0.056000 0.000000
0.080000 0.058000 0.000000
0.080000 0.060000 0.000000
0.080000 0.062000 0.000000
0.080000 0.064000 0.000000
0.080000 0.066000 0.000000
0.080000 0.068000 0.000000
0.080000 0.070000 0.000000
0.080000 0.072000 0.000000
0.080000 0.074000 0.000000
0.080000 0.076000 0.000000
0.080000 0.078000 0.000000
0.080000 0.080000 0.000000
0.080000 0.082000 0.000000
0.080000 0.084000 0.000000
0.080000 0.086000 0.000000
0.080000 0.088000 0.000000
0.080000 0.090000 0.000000
0.080000 0.092000 0.000000
0.080000 0.094000 0.000000
0.080000 0.096000 0.000000
0.080000 0.098000 0.000000
0.080000 0.100000 0.000000
0.080000 0.102000 0.000000
0.080000 0.104000 0.000000
0.080000 0.106000 0.000000
0.080000 0.108000 0.000000
0.080000 0.110000 0.000000
0.080000 0.112000 0.000000
0.080000 0.114000 0.000000
0.080000 0.116000 0.000000
0.080000 0.118000 0.000000
0.080000 0.120000 0.000000
0.080000 0.122000 0.000000
0.080000 0.124000 0.000000
0.080000 0.126000 0.000000
0.080000 0.128000 0.000000
0.080000 0.130000 0.000000
0.080000 0.132000 0.000000
0.080000 0.134000 0.000000
0.080000 0.136000 0.000000
0.080000 0.138000 0.000000
0.080000 0.140000 0.000000
0.080000 0.142000 0.000000
0.080000 0.144000 0.000000
0.080000 0.146000 0.000000
0.080000 0.148000 0.000000
0.080000 0.150000 0.000000
0.080000 0.152000 0.000000
0.080000 0.154000 0.000000
0.080000 0.156000 0.000000
0.080000 0.158000 0.000000
0.078000 0.160000 0.000000
0.076000 0.160000 0.000000
0.074000 0.160000 0.000000
0.072000 0.160000 0.000000
0.070000 0.160000 0.000000
0.068000 0.160000 0.000000
0.066000 0.160000 0.000000
0.064000 0.160000 0.000000
0.062000 0.160000 0.000000
0.060000 0.160000 0.000000
0.058000 0.160000 0.000000
0.056000 0.160000 0.000000
0.054000 0.160000 0.000000
0.052000 0.160000 0.000000
0.050000 0.160000 0.000000
0.048000 0.160000 0.000000
0.046000 0.160000 0.000000
0.044000 0.160000 0.000000
0.042000 0.160000 0.000000
0.040000 0.160000 0.000000
0.038000 0.160000 0.000000
0.036000 0.160000 0.000000
0.034000 0.160000 0.000000
0.032000 0.160000 0.000000
0.030000 0.160000 0.000000
0.028000 0.160000 0.000000
0.026000 0.160000 0.000000
0.024000 0.160000 0.000000
0.022000 0.160000 0.000000
0.020000 0.160000 0.000000
0.018000 0.160000 0.000000
0.016000 0.160000 0.000000
0.014000 0.160000 0.000000
0.012000 0.160000 0.000000
0.010000 0.160000 0.000000
0.008000 0.160000 0.000000
0.006000 0.160000 0.000000
0.004000 0.160000 0.000000
0.002000 0.160000 0.000000
0.000000 0.158000 0.000000
0.000000 0.156000 0.000000
0.000000 0.154000 0.000000
0.000000 0.152000 0.000000
0.000000 0.150000 0.000000
0.000000 0.148000 0.000000
0.000000 0.146000 0.000000
0.000000 0.144000 0.000000
0.000000 0.142000 0.000000
0.000000 0.140000 0.000000
0.000000 0.138000 0.000000
0.000000 0.136000 0.000000
0.000000 0.134000 0.000000
0.000000 0.132000 0.000000
0.000000 0.130000 0.000000
0.000000 0.128000 0.000000
0.000000 0.126000 0.000000
0.000000 0.124000 0.000000
0.000000 0.122000 0.000000
0.000000 0.120000 0.000000
0.000000 0.118000 0.000000
0.000000 0.116000 0.000000
0.000000 0.114000 0.000000
0.000000 0.112000 0.000000
0.000000 0.110000 0.000000
0.000000 0.108000 0.000000
0.000000 0.106000 0.000000
0.000000 0.104000 0.000000
0.000000 0.102000 0.000000
0.000000 0.100000 0.000000
0.000000 0.098000 0.000000
0.000000 0.096000 0.000000
0.000000 0.094000 0.000000
0.000000 0.092000 0.000000
0.000000 0.090000 0.000000
0.000000 0.088000 0.000000
0.000000 0.086000 0.000000
0.000000 0.084000 0.000000
0.000000 0.082000 0.000000
0.000000 0.080000 0.000000
0.000000 0.078000 0.000000
0.000000 0.076000 0.000000
0.000000 0.074000 0.000000
0.000000 0.072000 0.000000
0.000000 0.070000 0.000000
0.000000 0.068000 0.000000
0.000000 0.066000 0.000000
0.000000 0.064000 0.000000
0.000000 0.062000 0.000000
0.000000 0.060000 0.000000
0.000000 0.058000 0.000000
0.000000 0.056000 0.000000
0.000000 0.054000 0.000000
0.000000 0.052000 0.000000
0.000000 0.050000 0.000000
0.000000 0.048000 0.000000
0.000000 0.046000 0.000000
0.000000 0.044000 0.000000
0.000000 0.042000 0.000000
0.000000 0.040000 0.000000
0.000000 0.038000 0.000000
0.000000 0.036000 0.000000
0.000000 0.034000 0.000000
0.000000 0.032000 0.000000
0.000000 0.030000 0.000000
0.000000 0.028000 0.000000
0.000000 0.026000 0.000000
0.000000 0.024000 0.000000
0.000000 0.022000 0.000000
0.000000 0.020000 0.000000
0.000000 0.018000 0.000000
0.000000 0.016000 0.000000
0.000000 0.014000 0.000000
0.000000 0.012000 0.000000
0.000000 0.010000 0.000000
0.000000 0.008000 0.000000
0.000000 0.006000 0.000000
0.000000 0.004000 0.000000
0.000000 0.002000 0.000000
0.035411 0.076518 0.000000
0.035821 0.076786 0.000000
0.036232 0.077054 0.000000
0.036643 0.077321 0.000000
0.037054 0.077589 0.000000
0.037464 0.077857 0.000000
0.037875 0.078125 0.000000
0.038286 0.078393 0.000000
0.038696 0.078661 0.000000
0.039107 0.078929 0.000000
0.039518 0.079196 0.000000
0.039929 0.079464 0.000000
0.040339 0.079732 0.000000
0.040750 0.080000 0.000000
0.041161 0.080268 0.000000
0.041571 0.080536 0.000000
0.041982 0.080804 0.000000
0.042393 0.081071 0.000000
0.042804 0.081339 0.000000
0.043214 0.081607 0.000000
0.043625 0.081875 0.000000
0.044036 0.082143 0.000000
0.044446 0.082411 0.000000
0.044857 0.082679 0.000000
0.045268 0.082946 0.000000
0.045679 0.083214 0.000000
0.046089 0.083482 0.000000
0.040000 0.002000 0.000000
0.040001 0.158005 0.000000
0.002000 0.116000 0.000000
0.078000 0.048000 0.000000
0.002000 0.106000 0.000000
0.078000 0.058000 0.000000
0.001986 0.042173 0.000000
0.078015 0.117826 0.000000
0.001985 0.094174 0.000000
0.001985 0.084174 0.000000
0.001914 0.056074 0.000000
0.002000 0.072000 0.000000
0.078015 0.065826 0.000000
0.078016 0.075826 0.000000
0.078000 0.088000 0.000000
0.078000 0.104000 0.000000
0.078003 0.029997 0.000000
0.001998 0.130002 0.000000
0.002000 0.032000 0.000000
0.078013 0.128003 0.000000
0.056000 0.158000 0.000000
0.026000 0.002000 0.000000
0.060000 0.002000 0.000000
0.020000 0.158000 0.000000
0.002000 0.020000 0.000000
0.078000 0.142000 0.000000
0.002000 0.146000 0.000000
0.078000 0.020000 0.000000
0.016000 0.002000 0.000000
0.068000 0.002000 0.000000
0.066000 0.158000 0.000000
0.002000 0.014000 0.000000
0.008000 0.158000 0.000000
0.010000 0.002000 0.000000
0.078000 0.148000 0.000000
0.078000 0.008000 0.000000
0.078005 0.037995 0.000000
0.051991 0.001990 0.000000
0.028000 0.158000 0.000000
0.002000 0.008000 0.000000
0.078000 0.094000 0.000000
0.078000 0.110000 0.000000
0.001983 0.066159 0.000000
0.002000 0.050000 0.000000
0.046000 0.158000 0.000000
0.078000 0.134000 0.000000
0.002000 0.140000 0.000000
0.006000 0.002000 0.000000
0.002000 0.154000 0.000000
0.074000 0.002000 0.000000
0.078000 0.152000 0.000000
0.074000 0.158000 0.000000
0.078000 0.080000 0.000000
0.078000 0.070000 0.000000
0.078000 0.122000 0.000000
0.002000 0.090000 0.000000
0.002000 0.080000 0.000000
0.002000 0.038000 0.000000
0.002000 0.102000 0.000000
0.002000 0.112000 0.000000
0.036000 0.002000 0.000000
0.078000 0.042000 0.000000
0.032000 0.002000 0.000000
0.047987 0.001989 0.000000
0.032008 0.158010 0.000000
0.002000 0.028000 0.000000
0.002000 0.126000 0.000000
0.060000 0.158000 0.000000
0.022000 0.002000 0.000000
0.002000 0.136000 0.000000
0.078000 0.024000 0.000000
0.012000 0.158000 0.000000
0.078000 0.158000 0.000000
0.001947 0.003947 0.000000
0.002000 0.158000 0.000000
0.078000 0.012000 0.000000
0.078000 0.096000 0.000000
0.078000 0.098000 0.000000
0.078000 0.082000 0.000000
0.078111 0.099889 0.000000
0.078035 0.083965 0.000000
0.078000 0.090000 0.000000
0.078000 0.106000 0.000000
0.078000 0.072000 0.000000
0.078000 0.112000 0.000000
0.078043 0.061976 0.000000
0.078000 0.114000 0.000000
0.002000 0.064000 0.000000
0.002000 0.062000 0.000000
0.002000 0.088000 0.000000
0.002000 0.078000 0.000000
0.002000 0.060000 0.000000
0.001966 0.076034 0.000000
0.002000 0.070000 0.000000
0.002000 0.054000 0.000000
0.001957 0.098024 0.000000
0.002000 0.048000 0.000000
0.002000 0.046000 0.000000
[...]
POINT_DATA 5510
SCALARS UX float 1
LOOKUP_TABLE default
0.012802
0.079663
0.000002
-0.065599
0.003693
0.011447
0.014475
0.016150
0.017824
0.019500
0.021177
0.022855
0.024534
0.026214
0.027895
0.029575
0.031256
0.032936
0.034614
0.036291
0.037965
0.039637
0.041306
0.042974
0.044639
0.046302
0.047963
0.049621
0.051278
0.052934
0.054590
0.056245
0.057901
0.059557
0.061215
0.062874
0.064535
0.066199
0.067867
0.069537
0.071211
0.072890
0.074576
0.076269
0.077963
0.078708
0.077763
0.076830
0.075897
0.074980
0.074063
0.073159
0.072256
0.071358
0.070463
0.069570
0.068686
0.067803
0.066924
0.066047
0.065170
0.064293
0.063413
0.062529
0.061638
0.060739
0.059841
0.058933
0.058017
0.057104
0.056172
0.055234
0.054289
0.053340
0.052387
0.051430
0.050472
0.049513
0.048552
0.047589
0.046625
0.045659
0.044692
0.043724
0.042755
0.041786
0.040815
0.039839
0.038855
0.037869
0.036844
0.035785
0.034699
0.033525
0.032201
0.030863
0.029486
0.028101
0.026791
0.025553
0.024393
0.023251
0.022222
0.021205
0.020216
0.019250
0.018288
0.017338
0.016390
0.015444
0.014500
0.013556
0.012612
0.011669
0.010727
0.009787
0.008846
0.007911
0.006979
0.006046
0.005121
0.004169
0.003131
0.001824
-0.000019
-0.001713
-0.003455
-0.005191
-0.006899
-0.008603
-0.010308
-0.012008
-0.013702
-0.015395
-0.017083
-0.018769
-0.020453
-0.022134
-0.023814
-0.025489
-0.027161
-0.028830
-0.030497
-0.032161
-0.033824
-0.035484
-0.037142
-0.038800
-0.040457
-0.042114
-0.043770
-0.045428
-0.047087
-0.048747
-0.050410
-0.052077
-0.053749
-0.055424
-0.057104
-0.058789
-0.060481
-0.062184
-0.063888
-0.064638
-0.063692
-0.062745
-0.061824
-0.060906
-0.059991
-0.059088
-0.058190
-0.057294
-0.056401
-0.055514
-0.054631
-0.053748
-0.052871
-0.051993
-0.051114
-0.050230
-0.049348
-0.048460
-0.047569
-0.046673
-0.045773
-0.044866
-0.043949
-0.043035
-0.042103
-0.041167
-0.040224
-0.039279
-0.038329
-0.037376
-0.036421
-0.035465
-0.034505
-0.033544
-0.032582
-0.031616
-0.030650
-0.029683
-0.028714
-0.027745
-0.026772
-0.025793
-0.024808
-0.023823
-0.022804
-0.021760
-0.020673
-0.019551
-0.018277
-0.016966
-0.015640
-0.014291
-0.012968
-0.011696
-0.010447
-0.009352
-0.008289
-0.007244
-0.006230
-0.005243
-0.004265
-0.003311
-0.002359
-0.001410
-0.000461
0.000487
0.001433
0.002379
0.003326
0.004273
0.005219
0.006166
0.007113
0.008060
0.009008
0.009956
0.010904
0.011852
0.003984
0.004285
0.004702
0.005104
0.005425
0.005660
0.005912
0.006190
0.006376
0.006650
0.006886
0.007080
0.007337
0.007594
0.007894
0.008180
0.008476
0.008766
0.009034
0.009255
0.009477
0.009683
0.009929
0.010162
0.010448
0.010767
0.011064
0.045356
-0.031216
-0.044064
0.056322
-0.039503
0.051681
-0.005588
0.019560
-0.033911
-0.029098
-0.013874
-0.023161
0.047959
0.043141
0.037211
0.027553
0.064288
-0.050238
-0.000663
0.014705
-0.017811
0.033660
0.061933
-0.047806
0.005005
0.008100
-0.057353
0.068723
0.025260
0.068591
-0.009353
0.007841
-0.057832
0.020226
0.005278
0.074189
0.060787
0.055303
-0.041173
0.010681
0.034100
0.023695
-0.020168
-0.009798
-0.026209
0.011868
-0.054656
0.016874
-0.061031
0.073619
0.003387
-0.002592
0.041108
0.045940
0.017534
-0.031895
-0.027066
-0.003516
-0.037624
-0.042266
0.042025
0.059014
0.038686
0.051988
-0.037856
0.001227
-0.048484
-0.014434
0.030301
-0.052876
0.066930
-0.054474
0.000323
0.012558
-0.062917
0.072347
0.032960
0.031693
0.040140
0.030518
0.039213
0.036202
0.026197
0.044975
0.022548
0.049825
0.021477
-0.018963
-0.017740
-0.030932
-0.026096
-0.016440
-0.025166
-0.022157
-0.012390
-0.035773
-0.008638
-0.007555
0.053563
0.058143
0.055408
-0.041350
-0.045842
0.016584
-0.002559
0.048678
-0.034540
-0.029549
0.062543
-0.024535
-0.022858
-0.047605
0.037013
0.058618
-0.044488
0.002172
0.013761
0.010925
0.003116
0.009983
-0.051993
-0.021178
0.066048
-0.056453
-0.012742
0.028621
0.065256
-0.051132
0.007159
0.070528
-0.059183
0.005950
0.008788
-0.007652
0.023581
-0.005961
0.002428
-0.061212
0.015134
0.013373
0.076054
0.071938
0.077000
-0.040595
0.054642
-0.030275
-0.025484
-0.021530
-0.014734
-0.007997
0.039532
0.035581
0.028682
0.044321
0.020890
-0.030252
-0.045889
0.013006
-0.001833
0.037729
-0.020241
0.002913
0.008304
0.029349
-0.051128
0.065187
-0.013482
0.007628
0.024310
-0.055632
-0.006746
0.025665
0.056507
0.009518
0.001661
0.072670
0.037673
0.030003
0.032409
-0.023622
-0.016063
-0.018393
-0.005908
0.035315
0.038333
0.029156
0.042250
0.044069
0.025077
0.047073
0.020520
-0.021277
-0.030025
-0.024283
-0.033026
-0.015169
-0.028205
-0.011140
-0.006573
0.048875
-0.034825
0.050781
-0.036727
0.052671
0.018708
-0.038611
-0.004710
0.054534
-0.040474
-0.043283
0.057258
-0.044985
0.059920
-0.046743
0.047011
-0.032871
0.043686
-0.027875
0.050329
-0.036193
0.015668
-0.001638
0.061668
0.040353
0.053644
-0.039511
-0.023574
0.056959
-0.042827
-0.049361
0.000274
0.012818
0.063412
0.003856
0.035337
0.010183
-0.019496
0.060274
-0.046145
0.004058
0.009044
-0.051113
0.065163
-0.053764
-0.016124
0.031981
-0.055553
0.067823
-0.011049
0.026940
-0.049467
0.063593
-0.052801
0.066921
0.006218
0.006896
-0.056152
0.069622
-0.058265
0.004338
0.071434
0.009734
0.021903
-0.060102
-0.004272
0.073261
0.001413
0.018549
0.011629
-0.059519
0.014251
0.070262
-0.001010
-0.060260
-0.061965
0.075116
0.074356
0.075305
-0.035325
0.049376
-0.013177
0.049387
0.027055
0.004595
-0.038601
0.056036
-0.045208
0.062652
0.069719
-0.051856
0.004529
0.059964
0.042798
-0.055201
-0.058391
0.033585
0.018861
-0.019548
0.047457
0.045350
-0.033408
-0.031292
0.042432
0.040536
-0.028386
-0.026477
0.051209
-0.037155
0.016893
0.000056
-0.035250
0.001967
0.061652
0.011135
-0.047623
0.034386
0.031027
0.025989
0.065978
-0.053819
-0.052019
0.020953
0.011409
-0.056547
0.067898
0.066083
-0.003430
0.000666
0.071559
0.071727
0.034543
0.036536
-0.020492
0.027180
-0.022480
0.020009
-0.013292
-0.009240
0.055593
0.043378
-0.029331
-0.004863
-0.002834
-0.041534
-0.043274
0.023029
0.024350
0.052853
0.053733
-0.038803
-0.039681
-0.031986
0.031302
0.038619
-0.045016
-0.017295
-0.024568
0.021978
0.058209
0.057352
-0.006991
-0.000897
0.013963
0.052704
0.039445
-0.025232
0.046125
-0.026978
0.012080
-0.046767
-0.041899
-0.018567
0.036056
0.063408
0.064294
-0.049359
-0.050242
0.007358
0.059339
0.004790
0.006685
-0.021909
0.009248
0.027672
-0.028618
-0.015169
-0.048526
-0.010106
-0.011797
-0.008418
-0.054720
0.022632
0.069315
0.008572
0.010463
0.017601
0.070990
-0.005083
0.015925
0.073416
0.002630
-0.000332
-0.059321
0.013303
-0.058566
-0.001171
0.055715
-0.037516
0.018131
-0.024908
-0.029772
-0.019099
-0.027543
0.043833
0.039019
0.033009
-0.043379
0.012301
-0.019293
0.038449
0.061678
0.007573
-0.047623
0.030076
-0.010863
0.008366
0.025042
-0.052090
0.012139
-0.007567
-0.011865
0.021569
-0.004221
0.035347
-0.021347
-0.003339
0.054068
0.029691
-0.015733
0.003646
0.000762
-0.045043
0.035108
0.021684
0.005472
-0.053916
0.000925
0.025366
0.032016
0.020356
-0.018018
0.041517
0.046365
-0.027470
-0.032316
0.048415
-0.034364
-0.042414
0.037058
0.028192
-0.014409
0.050329
-0.036276
-0.003930
-0.023001
0.017708
-0.044084
-0.011730
-0.010002
-0.025947
-0.030956
-0.036878
0.042008
-0.027957
0.059093
-0.037922
-0.005387
0.051973
0.054337
0.041087
0.044427
0.051013
0.015897
0.014939
0.060817
0.001006
0.052214
-0.016856
0.062538
-0.040249
-0.048488
0.006618
0.010410
-0.022627
0.032703
0.005730
-0.038179
-0.039931
0.057687
-0.043553
0.062569
0.064355
0.005523
-0.048508
-0.050285
-0.014222
-0.009181
0.009448
0.060995
-0.046867
-0.052918
0.026727
-0.033609
0.066988
0.010251
0.006417
-0.050189
0.064312
-0.007517
0.067645
0.068804
0.070047
0.019277
0.003582
-0.057465
0.070637
0.014977
-0.053525
0.070792
0.072484
0.012356
-0.001026
-0.001857
-0.057624
-0.056881
0.047748
0.022759
-0.035901
-0.016658
-0.011566
0.030789
-0.025148
-0.045911
0.008733
0.048455
0.059970
0.005312
-0.037665
0.055099
0.063370
-0.009940
-0.044268
0.025774
0.067093
0.048496
-0.049248
0.069108
-0.052583
0.026643
-0.034449
0.058249
0.005886
-0.010586
0.039664
-0.025830
-0.032549
-0.030419
0.046593
0.044474
0.041858
-0.046766
-0.015921
0.007406
0.031748
0.065265
0.004738
0.013084
-0.055937
-0.008456
0.041233
-0.027191
-0.002097
0.020239
-0.020518
0.034261
0.019206
-0.035587
0.049611
0.051551
-0.013159
0.054867
-0.036750
-0.041675
-0.040709
-0.042551
0.037924
-0.023910
0.035945
0.013226
0.015311
-0.021920
0.040091
-0.034314
-0.032569
0.030752
-0.016728
0.042859
-0.028809
0.023995
-0.000194
0.060793
0.056566
-0.006419
0.051761
0.017242
-0.045898
-0.044202
0.045137
-0.017628
-0.039002
0.006455
0.033434
0.011355
0.036762
-0.039323
0.002708
0.001712
0.053027
-0.004396
0.063458
0.056753
-0.020959
0.059089
-0.024283
-0.049392
-0.051186
0.008519
0.005681
0.007187
-0.045927
0.060056
0.009304
0.028401
0.066700
-0.012542
0.023361
-0.008280
0.011192
-0.040967
0.003787
0.001887
0.068372
0.068937
0.069862
0.018329
0.020008
0.014030
0.016653
-0.053003
-0.005866
-0.054839
-0.056690
-0.029319
-0.002624
-0.000051
0.054072
0.047231
-0.025716
-0.021882
-0.003929
-0.011150
0.039772
0.036018
0.040804
-0.036756
0.054176
-0.043337
-0.016696
-0.009035
-0.049473
0.010977
-0.040201
0.003065
0.000473
0.034162
0.049932
0.042547
-0.028481
0.012870
0.022417
0.019060
-0.052215
-0.054999
-0.030017
0.029550
0.023612
0.033804
0.031518
-0.019859
-0.017578
-0.015541
0.052503
0.021163
-0.006017
0.059124
0.006842
0.037610
0.030803
0.061747
0.027449
0.014760
0.000196
-0.003363
-0.026762
-0.041724
-0.043365
-0.045058
0.027903
0.025454
-0.039303
0.018995
0.016757
-0.014270
0.045389
-0.031340
-0.034909
-0.033210
-0.033444
0.047489
0.050837
0.016307
0.014285
0.040579
-0.026516
-0.010238
-0.023522
-0.021677
0.001452
-0.031770
0.009657
0.011607
0.003415
-0.036001
-0.036631
-0.001944
0.057415
0.053438
-0.014964
0.050110
0.007795
0.046761
0.008114
0.050623
0.060861
0.037483
-0.038291
-0.047676
-0.046793
0.004356
0.066177
-0.042612
0.058403
0.006251
0.004952
0.024094
0.063553
-0.013284
-0.011607
-0.020020
0.059927
-0.038391
-0.047583
0.065032
-0.050382
0.061710
0.009092
0.002842
0.067433
0.067247
0.068014
-0.006630
-0.050915
-0.001731
0.068176
0.017383
0.015706
-0.054256
-0.055761
0.043489
-0.023471
-0.009416
0.040239
-0.026189
0.002097
-0.033621
0.048364
-0.016123
-0.024566
0.029172
0.038512
-0.024222
0.008033
0.006967
-0.043373
-0.035828
0.057414
0.004229
0.026505
0.059116
-0.047774
-0.029236
0.009787
-0.048307
0.026600
0.014640
-0.030254
-0.032263
0.044302
0.046262
0.047885
-0.020739
-0.015705
0.012619
0.044199
0.055717
0.047519
-0.045090
0.059163
-0.041699
0.023151
0.001156
0.062429
0.065761
-0.054067
-0.012254
-0.024808
0.038815
0.015921
0.032721
0.035001
-0.018569
-0.000511
-0.020838
-0.029072
0.043123
0.018013
0.053232
0.048842
0.022384
-0.009133
0.018748
-0.004894
-0.009945
-0.015161
0.002382
0.041497
0.010687
-0.027438
-0.034397
-0.033935
0.042439
0.057408
-0.044217
0.058254
0.052525
0.023856
-0.002862
0.006127
0.054892
0.036719
0.049202
0.005114
-0.037428
-0.042509
-0.040031
0.032472
0.004017
0.064474
0.066323
-0.012354
0.029118
0.007915
-0.048573
-0.035108
-0.033418
0.039126
0.011919
0.051406
-0.010690
0.002109
0.062647
-0.018355
-0.051295
-0.007386
0.010034
0.020737
-0.049974
-0.053318
0.018115
0.055817
-0.053139
-0.044986
0.065565
0.066498
0.013814
-0.002446
-0.000770
0.016437
-0.004987
0.035821
-0.028396
-0.040914
-0.022580
-0.024564
-0.006854
-0.013122
0.038281
0.028693
-0.031282
0.045327
0.024219
0.034656
0.052400
-0.032464
0.044045
-0.003396
-0.014679
-0.008191
0.043117
0.008611
0.034881
0.051608
-0.038705
-0.011437
0.061875
-0.042396
0.012653
-0.030002
-0.027181
0.041235
0.001395
0.064638
-0.047372
-0.049601
-0.022078
0.036329
0.016169
0.050870
0.034611
0.032408
0.030577
0.045784
0.047577
0.004175
-0.027621
-0.020562
-0.040098
-0.017358
-0.046869
0.031529
0.028174
-0.008135
0.019792
-0.004096
0.039846
-0.023736
0.037815
-0.018334
-0.010536
0.028118
0.022022
0.019524
0.000901
-0.000763
-0.031943
0.017416
-0.032771
-0.007529
-0.008969
0.013600
0.003070
-0.014100
-0.008014
0.039971
-0.022384
0.009019
-0.025968
0.014544
-0.025842
0.011050
-0.032562
-0.030851
-0.041701
0.055728
0.025095
-0.019095
0.007093
0.050849
0.008833
0.053206
-0.035111
0.045824
-0.044215
0.049030
-0.045974
0.058280
-0.039120
-0.037459
-0.036708
0.005953
-0.014017
0.005191
0.056542
0.057464
-0.025159
0.039228
0.013600
0.017169
-0.042527
0.024824
0.000427
-0.001492
-0.046638
-0.048685
0.021475
0.064090
0.065397
0.003297
-0.001263
0.060059
-0.005743
0.060772
0.063899
-0.052384
0.014547
0.010751
0.064828
0.015492
-0.051642
0.036546
-0.051448
0.053239
0.056556
-0.034205
-0.005675
0.027469
0.023034
-0.029096
0.043144
0.014980
0.033610
-0.016944
0.002645
0.050717
-0.027700
0.041750
-0.022363
0.028923
0.036569
0.023466
-0.026536
0.007409
-0.040083
-0.019925
-0.033286
0.035606
0.054880
-0.043408
0.050675
0.027230
0.003534
0.011435
-0.046093
0.039522
-0.025460
0.014329
-0.000300
0.057481
0.022210
0.058177
0.062966
0.054906
-0.036558
-0.045708
0.063715
0.018845
0.016226
-0.049778
0.025776
-0.015566
0.041710
-0.027661
0.031436
0.000668
0.032253
-0.019296
-0.037532
-0.030576
0.046672
0.051591
-0.031152
-0.007114
0.020793
-0.031638
-0.004726
0.035387
0.044962
0.010033
0.013176
0.011960
0.046528
-0.021780
-0.040922
-0.028307
0.044724
-0.012599
-0.013622
0.054017
0.005433
-0.030028
-0.021235
-0.039299
-0.018085
0.048263
-0.032993
0.027751
0.049939
0.037235
-0.023142
0.046860
-0.023059
0.007521
0.005344
-0.041690
0.021337
0.002361
-0.044297
-0.014752
0.055740
-0.035879
0.033210
0.060961
0.049792
0.029838
-0.044046
0.062793
-0.013092
0.063149
0.025560
0.011697
-0.047003
-0.009781
-0.003166
-0.049035
0.001647
0.059838
0.009544
-0.000524
0.036957
-0.002294
-0.040760
-0.004836
-0.006488
-0.050710
-0.050524
0.054875
0.038187
0.003647
0.041478
0.038673
-0.024606
-0.006840
0.017487
-0.023300
0.033634
-0.011349
-0.009365
0.042311
-0.028263
0.030937
0.000274
0.013825
-0.017541
0.017262
-0.019207
0.004209
-0.030890
-0.024152
-0.019212
0.038215
-0.014283
-0.006666
0.027418
-0.025812
0.009219
-0.018823
0.053202
-0.041762
0.026286
-0.012175
0.012768
-0.044425
-0.041459
-0.044781
0.042160
-0.011407
0.057251
-0.004244
-0.028536
0.041106
-0.027061
0.049334
-0.001915
0.052408
0.034882
0.032257
-0.007224
0.013361
0.028892
-0.005915
0.059283
0.017901
-0.003886
-0.048847
-0.048110
0.000218
0.054032
-0.017825
0.011490
-0.030434
0.015772
0.049952
0.040169
-0.026129
-0.029952
0.043491
0.044530
0.006322
0.019159
0.033487
-0.020806
-0.020722
0.046252
0.008389
-0.038530
-0.037244
-0.035938
-0.021575
0.044207
0.051530
-0.027546
0.006431
0.035660
0.010465
0.049027
0.022335
0.000693
0.037946
-0.023852
-0.013265
0.045715
-0.040885
-0.033610
0.047470
0.012401
-0.034904
-0.009069
0.004496
0.042582
0.033933
0.058377
-0.035136
0.062044
-0.001247
-0.016411
0.056521
-0.042550
-0.010527
0.020522
-0.047920
0.015271
0.056598
-0.002210
0.002588
0.062236
-0.045182
0.010230
0.038907
0.037244
0.023883
0.020278
0.060202
-0.038190
0.061489
0.052300
0.026610
-0.039278
0.018168
-0.024916
-0.031667
0.032621
0.030927
0.004736
0.024619
0.010445
-0.016372
0.029645
0.001802
0.016288
0.032147
-0.038437
-0.001048
-0.029473
0.048206
-0.028742
0.041241
-0.021068
-0.012962
0.032200
0.035268
0.020952
-0.025096
0.006833
-0.037030
0.042845
0.036299
0.010828
0.049735
-0.034016
0.055816
0.002849
-0.011263
0.013069
-0.000014
-0.027216
-0.034367
-0.019548
0.017746
0.024310
0.006803
0.050072
0.052367
-0.024215
-0.038461
0.014710
0.016063
0.027947
0.030983
0.015018
0.022946
0.057617
0.032968
0.055593
-0.043522
0.019574
0.060578
0.028293
0.002015
0.038528
-0.024480
-0.011897
0.045407
-0.003066
0.008116
0.009549
0.035993
0.037412
-0.021902
-0.023337
-0.019739
-0.006003
-0.037870
-0.020218
-0.022495
0.004788
0.033699
0.039825
-0.025787
-0.031508
-0.040080
-0.000989
-0.002933
0.018934
-0.007752
0.047333
-0.040905
0.026424
-0.010055
0.013801
0.053940
-0.042644
0.030555
-0.034350
-0.030753
-0.029215
0.061123
-0.047183
-0.005479
-0.043106
-0.005553
0.058898
-0.013818
0.048189
-0.017140
0.060387
-0.046432
0.024615
-0.039819
0.054066
0.061309
0.016955
-0.008876
0.001906
0.011159
-0.045336
-0.035633
0.005182
-0.000825
0.034113
0.040537
0.053218
-0.029149
0.023338
-0.015028
-0.016749
0.012086
0.030265
0.010292
0.003282
0.014259
-0.036937
-0.018241
-0.029177
0.043795
0.003252
-0.019246
-0.005382
0.027055
0.022885
0.034196
0.017349
0.050708
-0.013751
-0.033096
-0.038464
-0.040998
0.001240
0.027012
-0.002652
-0.001687
0.054669
0.043933
-0.010110
-0.042168
-0.007961
-0.017959
-0.020967
-0.004753
0.007932
0.029827
-0.042769
-0.012903
-0.004598
-0.045526
0.018625
0.059464
0.023681
0.051552
-0.028220
0.005693
-0.000358
-0.023810
0.047716
0.042560
0.008829
0.044247
0.009811
0.032917
-0.035702
-0.020087
0.019975
-0.028117
-0.028076
0.049271
-0.029482
0.005848
0.025492
0.036719
-0.022630
0.012097
-0.007790
-0.037708
0.031387
0.016805
0.029091
0.046429
0.026115
0.021998
0.034437
-0.032131
-0.012091
-0.032349
0.003830
0.014049
0.057994
0.056722
0.034631
-0.022891
-0.039255
-0.026289
0.040424
0.036958
0.031278
0.058534
0.021261
-0.015467
0.015992
-0.019466
-0.046258
-0.001961
0.045920
0.029593
0.000957
0.015346
-0.033599
-0.009612
0.058735
0.051534
0.050769
-0.038900
-0.037257
0.037959
0.011829
0.000849
0.001763
0.059655
0.054934
0.051360
-0.039282
0.048115
0.006162
-0.015624
-0.026656
0.041236
-0.017872
0.014915
-0.035368
-0.036346
0.011356
0.010736
0.012982
0.042378
-0.016531
0.039113
-0.025062
0.010306
-0.026716
0.039900
-0.011769
-0.018273
0.030976
0.025792
-0.024512
0.037024
0.049053
0.011374
0.043881
0.048799
-0.036882
0.054169
-0.011985
0.047364
-0.025901
-0.035444
-0.032826
0.014759
0.014554
0.023932
-0.008701
0.029645
0.020405
0.018179
-0.000681
0.045463
-0.031487
0.020289
0.057094
0.055980
0.057826
0.033677
-0.003642
-0.044610
-0.036348
0.008857
0.005287
0.013038
0.037991
-0.023944
-0.011269
0.032555
0.033411
-0.004206
-0.018725
0.043227
0.048346
0.049888
-0.001620
0.025070
0.008374
0.027932
0.006739
0.041959
-0.027539
0.021822
0.004215
0.002208
0.000295
-0.006671
0.044697
-0.036908
0.034878
0.036223
-0.022143
-0.037681
-0.020782
-0.024504
0.038557
-0.029817
-0.030092
-0.006288
-0.008588
0.022010
-0.043806
0.016701
-0.040129
-0.032857
-0.002638
-0.043670
0.017680
0.053001
0.031999
0.028660
-0.004576
0.016400
-0.016203
-0.014531
-0.034714
0.056324
-0.034170
0.006672
0.025339
0.039585
-0.041870
0.012756
0.052399
0.012408
0.045547
-0.040522
0.046584
-0.027772
0.004777
-0.017014
-0.025794
-0.018756
-0.018440
-0.015488
-0.014503
0.012294
0.002827
0.001068
0.041116
0.037762
-0.023707
-0.022363
0.039773
-0.026042
-0.022710
-0.004992
0.031787
0.020579
0.005026
-0.023355
0.012935
0.041268
0.032702
0.027724
-0.032214
0.000627
-0.017446
0.016055
-0.039366
0.007175
0.042504
0.044333
-0.009530
-0.003303
0.026562
-0.026501
0.022877
0.033205
-0.014082
-0.002351
-0.004310
-0.039598
-0.041142
0.022732
0.018383
0.056186
0.052119
0.048252
0.046085
-0.042979
0.004614
0.038646
-0.012565
-0.016869
-0.021684
0.011857
0.035758
0.036750
-0.002473
-0.000049
-0.010891
0.031810
-0.017639
0.046175
0.019205
-0.006408
-0.026519
0.010172
0.030221
-0.008394
0.015502
-0.007069
0.035587
-0.021489
0.003680
-0.018987
0.013706
-0.034880
-0.016006
0.043308
-0.035304
-0.029007
-0.027347
0.041197
0.003215
-0.030685
-0.032082
0.028470
-0.037665
0.015690
-0.036162
0.056908
0.024925
0.050432
0.053292
0.035342
-0.025092
0.049111
0.007653
-0.015247
-0.016966
0.039124
-0.033818
0.030329
-0.010337
-0.028150
0.026068
0.040270
0.021025
0.046039
-0.037969
0.049897
-0.013623
0.013411
-0.005303
-0.000345
0.019339
0.055454
0.047176
0.007487
0.055064
-0.036091
-0.003265
0.043003
0.009355
-0.020162
0.013593
-0.033512
0.002041
0.011183
-0.023293
0.010677
-0.011432
-0.007469
0.024707
0.003440
-0.033751
0.040556
0.046617
-0.031319
0.047878
-0.015972
-0.000936
-0.031307
-0.026507
0.026777
-0.011059
0.052515
0.001439
0.011625
0.041143
0.029821
0.027160
-0.004625
0.007255
0.039763
-0.024614
0.036161
0.014175
0.015374
-0.032838
-0.037058
-0.026536
0.017383
0.054545
0.047494
-0.035273
0.029371
0.001626
0.030790
-0.015852
-0.014600
0.045141
0.028725
-0.016607
-0.021896
-0.001134
-0.001977
-0.009326
0.017270
0.019417
-0.025421
0.021675