# vtk DataFile Version 2.0
Test
ASCII
DATASET POLYDATA
POINTS 5510 float
0.000000 0.000000 0.000000
0.080000 0.000000 0.000000
0.080000 0.160000 0.000000
0.000000 0.160000 0.000000
0.035000 0.076250 0.000000
0.046500 0.083750 0.000000
0.002000 0.000000 0.000000
0.004000 0.000000 0.000000
0.006000 0.000000 0.000000
0.008000 0.000000 0.000000
0.010000 0.000000 0.000000
0.012000 0.000000 0.000000
0.014000 0.000000 0.000000
0.016000 0.000000 0.000000
0.018000 0.000000 0.000000
0.020000 0.000000 0.000000
0.022000 0.000000 0.000000
0.024000 0.000000 0.000000
0.026000 0.000000 0.000000
0.028000 0.000000 0.000000
0.030000 0.000000 0.000000
0.032000 0.000000 0.000000
0.034000 0.000000 0.000000
0.036000 0.000000 0.000000
0.038000 0.000000 0.000000
0.040000 0.000000 0.000000
0.042000 0.000000 0.000000
0.044000 0.000000 0.000000
0.046000 0.000000 0.000000
0.048000 0.000000 0.000000
0.050000 0.000000 0.000000
0.052000 0.000000 0.000000
0.054000 0.000000 0.000000
0.056000 0.000000 0.000000
0.058000 0.000000 0.000000
0.060000 0.000000 0.000000
0.062000 0.000000 0.000000
0.064000 0.000000 0.000000
0.066000 0.000000 0.000000
0.068000 0.000000 0.000000
0.070000 0.000000 0.000000
0.072000 0.000000 0.000000
0.074000 0.000000 0.000000
0.076000 0.000000 0.000000
0.078000 0.000000 0.000000
0.080000 0.002000 0.000000
0.080000 0.004000 0.000000
0.080000 0.006000 0.000000
0.080000 0.008000 0.000000
0.080000 0.010000 0.000000
0.080000 0.012000 0.000000
0.080000 0.014000 0.000000
0.080000 0.016000 0.000000
0.080000 0.018000 0.000000
0.080000 0.020000 0.000000
0.080000 0.022000 0.000000
0.080000 0.024000 0.000000
0.080000 0.026000 0.000000
0.080000 0.028000 0.000000
0.080000 0.030000 0.000000
0.080000 0.032000 0.000000
0.080000 0.034000 0.000000
0.080000 0.036000 0.000000
0.080000 0.038000 0.000000
0.080000 0.040000 0.000000
0.080000 0.042000 0.000000
0.080000 0.044000 0.000000
0.080000 0.046000 0.000000
0.080000 0.048000 0.000000
0.080000 0.050000 0.000000
0.080000 0.052000 0.000000
0.080000 0.054000 0.000000
0.080000 0.056000 0.000000
0.080000 0.058000 0.000000
0.080000 0.060000 0.000000
0.080000 0.062000 0.000000
0.080000 0.064000 0.000000
0.080000 0.066000 0.000000
0.080000 0.068000 0.000000
0.080000 0.070000 0.000000
0.080000 0.072000 0.000000
0.080000 0.074000 0.000000
0.080000 0.076000 0.000000
0.080000 0.078000 0.000000
0.080000 0.080000 0.000000
0.080000 0.082000 0.000000
0.080000 0.084000 0.000000
0.080000 0.086000 0.000000
0.080000 0.088000 0.000000
0.080000 0.090000 0.000000
0.080000 0.092000 0.000000
0.080000 0.094000 0.000000
0.080000 0.096000 0.000000
0.080000 0.098000 0.000000
0.080000 0.100000 0.000000
0.080000 0.102000 0.000000
0.080000 0.104000 0.000000
0.080000 0.106000 0.000000
0.080000 0.108000 0.000000
0.080000 0.110000 0.000000
0.080000 0.112000 0.000000
0.080000 0.114000 0.000000
0.080000 0.116000 0.000000
0.080000 0.118000 0.000000
0.080000 0.120000 0.000000
0.080000 0.122000 0.000000
0.080000 0.124000 0.000000
0.080000 0.126000 0.000000
0.080000 0.128000 0.000000
0.080000 0.130000 0.000000
0.080000 0.132000 0.000000
0.080000 0.134000 0.000000
0.080000 0.136000 0.000000
0.080000 0.138000 0.000000
0.080000 0.140000 0.000000
0.080000 0.142000 0.000000
0.080000 0.144000 0.000000
0.080000 0.146000 0.000000
0.080000 0.148000 0.000000
0.080000 0.150000 0.000000
0.080000 0.152000 0.000000
0.080000 0.154000 0.000000
0.080000 0.156000 0.000000
0.080000 0.158000 0.000000
0.078000 0.160000 0.000000
0.076000 0.160000 0.000000
0.074000 0.160000 0.000000
0.072000 0.160000 0.000000
0.070000 0.160000 0.000000
0.068000 0.160000 0.000000
0.066000 0.160000 0.000000
0.064000 0.160000 0.000000
0.062000 0.160000 0.000000
0.060000 0.160000 0.000000
0.058000 0.160000 0.000000
0.056000 0.160000 0.000000
0.054000 0.160000 0.000000
0.052000 0.160000 0.000000
0.050000 0.160000 0.000000
0.048000 0.160000 0.000000
0.046000 0.160000 0.000000
0.044000 0.160000 0.000000
0.042000 0.160000 0.000000
0.040000 0.160000 0.000000
0.038000 0.160000 0.000000
0.036000 0.160000 0.000000
0.034000 0.160000 0.000000
0.032000 0.160000 0.000000
0.030000 0.160000 0.000000
0.028000 0.160000 0.000000
0.026000 0.160000 0.000000
0.024000 0.160000 0.000000
0.022000 0.160000 0.000000
0.020000 0.160000 0.000000
0.018000 0.160000 0.000000
0.016000 0.160000 0.000000
0.014000 0.160000 0.000000
0.012000 0.160000 0.000000
0.010000 0.160000 0.000000
0.008000 0.160000 0.000000
0.006000 0.160000 0.000000
0.004000 0.160000 0.000000
0.002000 0.160000 0.000000
0.000000 0.158000 0.000000
0.000000 0.156000 0.000000
0.000000 0.154000 0.000000
0.000000 0.152000 0.000000
0.000000 0.150000 0.000000
0.000000 0.148000 0.000000
0.000000 0.146000 0.000000
0.000000 0.144000 0.000000
0.000000 0.142000 0.000000
0.000000 0.140000 0.000000
0.000000 0.138000 0.000000
0.000000 0.136000 0.000000
0.000000 0.134000 0.000000
0.000000 0.132000 0.000000
0.000000 0.130000 0.000000
0.000000 0.128000 0.000000
0.000000 0.126000 0.000000
0.000000 0.124000 0.000000
0.000000 0.122000 0.000000
0.000000 0.120000 0.000000
0.000000 0.118000 0.000000
0.000000 0.116000 0.000000
0.000000 0.114000 0.000000
0.000000 0.112000 0.000000
0.000000 0.110000 0.000000
0.000000 0.108000 0.000000
0.000000 0.106000 0.000000
0.000000 0.104000 0.000000
0.000000 0.102000 0.000000
0.000000 0.100000 0.000000
0.000000 0.098000 0.000000
0.000000 0.096000 0.000000
0.000000 0.094000 0.000000
0.000000 0.092000 0.000000
0.000000 0.090000 0.000000
0.000000 0.088000 0.000000
0.000000 0.086000 0.000000
0.000000 0.084000 0.000000
0.000000 0.082000 0.000000
0.000000 0.080000 0.000000
0.000000 0.078000 0.000000
0.000000 0.076000 0.000000
0.000000 0.074000 0.000000
0.000000 0.072000 0.000000
0.000000 0.070000 0.000000
0.000000 0.068000 0.000000
0.000000 0.066000 0.000000
0.000000 0.064000 0.000000
0.000000 0.062000 0.000000
0.000000 0.060000 0.000000
0.000000 0.058000 0.000000
0.000000 0.056000 0.000000
0.000000 0.054000 0.000000
0.000000 0.052000 0.000000
0.000000 0.050000 0.000000
0.000000 0.048000 0.000000
0.000000 0.046000 0.000000
0.000000 0.044000 0.000000
0.000000 0.042000 0.000000
0.000000 0.040000 0.000000
0.000000 0.038000 0.000000
0.000000 0.036000 0.000000
0.000000 0.034000 0.000000
0.000000 0.032000 0.000000
0.000000 0.030000 0.000000
0.000000 0.028000 0.000000
0.000000 0.026000 0.000000
0.000000 0.024000 0.000000
0.000000 0.022000 0.000000
0.000000 0.020000 0.000000
0.000000 0.018000 0.000000
0.000000 0.016000 0.000000
0.000000 0.014000 0.000000
0.000000 0.012000 0.000000
0.000000 0.010000 0.000000
0.000000 0.008000 0.000000
0.000000 0.006000 0.000000
0.000000 0.004000 0.000000
0.000000 0.002000 0.000000
0.035411 0.076518 0.000000
0.035821 0.076786 0.000000
0.036232 0.077054 0.000000
0.036643 0.077321 0.000000
0.037054 0.077589 0.000000
0.037464 0.077857 0.000000
0.037875 0.078125 0.000000
0.038286 0.078393 0.000000
0.038696 0.078661 0.000000
0.039107 0.078929 0.000000
0.039518 0.079196 0.000000
0.039929 0.079464 0.000000
0.040339 0.079732 0.000000
0.040750 0.080000 0.000000
0.041161 0.080268 0.000000
0.041571 0.080536 0.000000
0.041982 0.080804 0.000000
0.042393 0.081071 0.000000
0.042804 0.081339 0.000000
0.043214 0.081607 0.000000
0.043625 0.081875 0.000000
0.044036 0.082143 0.000000
0.044446 0.082411 0.000000
0.044857 0.082679 0.000000
0.045268 0.082946 0.000000
0.045679 0.083214 0.000000
0.046089 0.083482 0.000000
0.040000 0.002000 0.000000
0.040001 0.158005 0.000000
0.002000 0.116000 0.000000
0.078000 0.048000 0.000000
0.002000 0.106000 0.000000
0.078000 0.058000 0.000000
0.001986 0.042173 0.000000
0.078015 0.117826 0.000000
0.001985 0.094174 0.000000
0.001985 0.084174 0.000000
0.001914 0.056074 0.000000
0.002000 0.072000 0.000000
0.078015 0.065826 0.000000
0.078016 0.075826 0.000000
0.078000 0.088000 0.000000
0.078000 0.104000 0.000000
0.078003 0.029997 0.000000
0.001998 0.130002 0.000000
0.002000 0.032000 0.000000
0.078013 0.128003 0.000000
0.056000 0.158000 0.000000
0.026000 0.002000 0.000000
0.060000 0.002000 0.000000
0.020000 0.158000 0.000000
0.002000 0.020000 0.000000
0.078000 0.142000 0.000000
0.002000 0.146000 0.000000
0.078000 0.020000 0.000000
0.016000 0.002000 0.000000
0.068000 0.002000 0.000000
0.066000 0.158000 0.000000
0.002000 0.014000 0.000000
0.008000 0.158000 0.000000
0.010000 0.002000 0.000000
0.078000 0.148000 0.000000
0.078000 0.008000 0.000000
0.078005 0.037995 0.000000
0.051991 0.001990 0.000000
0.028000 0.158000 0.000000
0.002000 0.008000 0.000000
0.078000 0.094000 0.000000
0.078000 0.110000 0.000000
0.001983 0.066159 0.000000
0.002000 0.050000 0.000000
0.046000 0.158000 0.000000
0.078000 0.134000 0.000000
0.002000 0.140000 0.000000
0.006000 0.002000 0.000000
0.002000 0.154000 0.000000
0.074000 0.002000 0.000000
0.078000 0.152000 0.000000
0.074000 0.158000 0.000000
0.078000 0.080000 0.000000
0.078000 0.070000 0.000000
0.078000 0.122000 0.000000
0.002000 0.090000 0.000000
0.002000 0.080000 0.000000
0.002000 0.038000 0.000000
0.002000 0.102000 0.000000
0.002000 0.112000 0.000000
0.036000 0.002000 0.000000
0.078000 0.042000 0.000000
0.032000 0.002000 0.000000
0.047987 0.001989 0.000000
0.032008 0.158010 0.000000
0.002000 0.028000 0.000000
0.002000 0.126000 0.000000
0.060000 0.158000 0.000000
0.022000 0.002000 0.000000
0.002000 0.136000 0.000000
0.078000 0.024000 0.000000
0.012000 0.158000 0.000000
0.078000 0.158000 0.000000
0.001947 0.003947 0.000000
0.002000 0.158000 0.000000
0.078000 0.012000 0.000000
0.078000 0.096000 0.000000
0.078000 0.098000 0.000000
0.078000 0.082000 0.000000
0.078111 0.099889 0.000000
0.078035 0.083965 0.000000
0.078000 0.090000 0.000000
0.078000 0.106000 0.000000
0.078000 0.072000 0.000000
0.078000 0.112000 0.000000
0.078043 0.061976 0.000000
0.078000 0.114000 0.000000
0.002000 0.064000 0.000000
0.002000 0.062000 0.000000
0.002000 0.088000 0.000000
0.002000 0.078000 0.000000
0.002000 0.060000 0.000000
0.001966 0.076034 0.000000
0.002000 0.070000 0.000000
0.002000 0.054000 0.000000
0.001957 0.098024 0.000000
0.002000 0.048000 0.000000
0.002000 0.046000 0.000000
[...]
POINT_DATA 5510
SCALARS UX float 1
LOOKUP_TABLE default
0.113874
0.253944
0.000008
-0.144313
0.046413
0.065470
0.117226
0.120637
0.124072
0.127548
0.131032
0.134522
0.138010
0.141501
0.144990
0.148476
0.151960
0.155438
0.158911
0.162379
0.165844
0.169308
0.172773
0.176237
0.179703
0.183168
0.186631
0.190092
0.193549
0.197003
0.200452
0.203900
0.207345
0.210791
0.214244
0.217712
0.221206
0.224716
0.228254
0.231808
0.235393
0.239015
0.242685
0.246416
0.250156
0.251397
0.248965
0.246673
0.244356
0.242277
0.240176
0.238302
0.236420
0.234580
0.232762
0.230965
0.229240
0.227518
0.225750
0.223930
0.222039
0.220070
0.218019
0.215889
0.213682
0.211408
0.209165
0.206889
0.204593
0.202308
0.199966
0.197619
0.195283
0.192961
0.190650
0.188346
0.186053
0.183762
0.181471
0.179170
0.176870
0.174548
0.172218
0.169874
0.167498
0.165122
0.162687
0.160197
0.157658
0.155082
0.152242
0.149208
0.145945
0.141126
0.131362
0.121019
0.108844
0.096172
0.084552
0.074840
0.067183
0.060008
0.055986
0.052325
0.049286
0.046704
0.044155
0.041825
0.039500
0.037180
0.034863
0.032547
0.030231
0.027912
0.025590
0.023270
0.020953
0.018632
0.016305
0.013967
0.011631
0.009215
0.006628
0.003624
-0.000069
-0.003247
-0.006697
-0.010202
-0.013653
-0.017126
-0.020665
-0.024200
-0.027725
-0.031266
-0.034796
-0.038318
-0.041840
-0.045367
-0.048893
-0.052450
-0.056024
-0.059609
-0.063217
-0.066847
-0.070486
-0.074143
-0.077814
-0.081500
-0.085189
-0.088888
-0.092597
-0.096320
-0.100062
-0.103831
-0.107644
-0.111505
-0.115419
-0.119371
-0.123347
-0.127383
-0.131502
-0.135736
-0.139983
-0.141366
-0.138620
-0.135823
-0.133396
-0.131006
-0.128674
-0.126506
-0.124395
-0.122294
-0.120237
-0.118209
-0.116192
-0.114210
-0.112123
-0.109982
-0.107783
-0.105511
-0.103290
-0.101035
-0.098781
-0.096509
-0.094245
-0.091961
-0.089678
-0.087420
-0.085136
-0.082844
-0.080553
-0.078269
-0.075982
-0.073694
-0.071402
-0.069106
-0.066803
-0.064487
-0.062173
-0.059851
-0.057528
-0.055199
-0.052858
-0.050522
-0.048162
-0.045790
-0.043402
-0.041040
-0.038481
-0.035785
-0.032713
-0.028989
-0.020875
-0.011570
-0.001428
0.009736
0.022269
0.033937
0.044922
0.051082
0.056211
0.060817
0.064687
0.067850
0.070844
0.073250
0.075641
0.078018
0.080387
0.082758
0.085131
0.087514
0.089900
0.092292
0.094690
0.097093
0.099498
0.101912
0.104328
0.106742
0.109145
0.111534
0.047042
0.047726
0.048648
0.049562
0.050311
0.050904
0.051575
0.052160
0.052639
0.053301
0.053888
0.054378
0.055021
0.055675
0.056421
0.057143
0.057917
0.058638
0.059347
0.060049
0.060708
0.061294
0.061946
0.062571
0.063272
0.064004
0.064663
0.180675
-0.064227
-0.090689
0.200996
-0.079516
0.189417
0.064753
0.048773
-0.065992
-0.054426
0.006071
-0.040088
0.180472
0.168981
0.154187
0.098771
0.219476
-0.105718
0.078995
0.036192
-0.035780
0.156416
0.215244
-0.101108
0.093257
0.019957
-0.121726
0.228284
0.139011
0.229285
-0.018210
0.100448
-0.124447
0.128574
0.012949
0.240301
0.211920
0.201422
-0.086201
0.107680
0.145247
0.067878
-0.032333
0.042822
-0.053448
0.029234
-0.115526
0.121672
-0.131322
0.240061
0.008206
-0.004584
0.164080
0.175675
0.043218
-0.061145
-0.049554
0.071650
-0.074944
-0.086281
0.173747
0.207676
0.166819
0.194509
-0.078820
0.083738
-0.101569
-0.028724
0.149462
-0.111567
0.224653
-0.116500
0.000774
0.112471
-0.136839
0.235970
0.141113
0.133128
0.161694
0.123800
0.159340
0.151410
0.086785
0.173373
0.060684
0.184918
0.055577
-0.028607
-0.022049
-0.058829
-0.047215
-0.013497
-0.044942
-0.037590
0.019154
-0.070460
0.050678
0.056164
0.194066
0.205494
0.198700
-0.084034
-0.095061
0.040835
0.074193
0.187601
-0.071492
-0.060611
0.215849
-0.049891
-0.046352
-0.099394
0.163358
0.208327
-0.093621
0.086109
0.033881
0.026918
0.088487
0.024598
-0.109625
-0.042821
0.222941
-0.119647
-0.025213
0.145980
0.222223
-0.108712
0.017630
0.232034
-0.126381
0.095649
0.102857
-0.014716
0.135530
-0.011294
0.005792
-0.132601
0.118167
0.114676
0.244954
0.236434
0.247462
-0.082871
0.197396
-0.057841
-0.046345
-0.036722
-0.006472
0.049951
0.160760
0.150649
0.114528
0.172228
0.055785
-0.061619
-0.095489
0.032867
0.075016
0.164324
-0.040336
0.087085
0.021290
0.146973
-0.106941
0.220170
-0.026252
0.099017
0.136541
-0.117174
-0.012470
0.088764
0.201926
0.103822
0.004768
0.237487
0.156122
0.126057
0.140867
-0.041834
-0.015962
-0.028244
0.060659
0.148828
0.157079
0.112970
0.166828
0.171199
0.077427
0.178360
0.051980
-0.035320
-0.056639
-0.042784
-0.063851
-0.004066
-0.052273
0.030882
0.060691
0.182649
-0.068182
0.187220
-0.072760
0.191843
0.046312
-0.077328
0.067908
0.196488
-0.081874
-0.088761
0.203304
-0.092935
0.209872
-0.097266
0.184129
-0.067844
0.177204
-0.057019
0.191049
-0.075138
0.038560
0.076552
0.213928
0.170279
0.197963
-0.082504
-0.047354
0.204873
-0.089900
-0.103669
0.081350
0.031564
0.217686
0.089465
0.159887
0.025917
-0.039301
0.211780
-0.097352
0.090864
0.022283
-0.107704
0.221211
-0.113526
-0.032254
0.152941
-0.117568
0.226428
-0.021707
0.142496
-0.104886
0.218718
-0.112579
0.225737
0.015295
0.098047
-0.120463
0.230113
-0.124004
0.010594
0.233946
0.105268
0.132048
-0.128772
-0.007915
0.238013
0.003305
0.125111
0.110091
-0.128488
0.115864
0.232845
-0.001610
-0.129654
-0.133950
0.242549
0.241147
0.243727
-0.070014
0.184284
-0.000118
0.188584
0.107404
0.090437
-0.079918
0.202446
-0.094683
0.216259
0.229753
-0.109816
0.011949
0.209769
0.174855
-0.117593
-0.124339
0.144618
0.048139
-0.031426
0.179635
0.174654
-0.065330
-0.060260
0.167719
0.163177
-0.053294
-0.048705
0.188763
-0.074436
0.042539
0.079884
-0.072532
0.084704
0.213201
0.028257
-0.099415
0.157402
0.150448
0.140015
0.223246
-0.112900
-0.108866
0.129599
0.108642
-0.119472
0.225795
0.221962
-0.005886
0.002294
0.234060
0.234963
0.147678
0.153156
-0.034073
0.101083
-0.039021
0.052105
0.004314
0.040888
0.199661
0.169974
-0.055559
0.065278
0.072231
-0.085086
-0.089256
0.068096
0.077469
0.192886
0.195095
-0.078481
-0.080625
-0.065380
0.134625
0.158505
-0.093435
-0.022896
-0.044137
0.061803
0.205930
0.203953
0.055468
0.077452
0.035220
0.195501
0.167885
-0.050860
0.181781
-0.054579
0.030582
-0.097504
-0.087262
-0.036835
0.160861
0.216648
0.218380
-0.103139
-0.105029
0.018960
0.209335
0.091829
0.096623
-0.043845
0.023614
0.143502
-0.058098
-0.029744
-0.102202
-0.019284
-0.022772
-0.015827
-0.114945
0.133067
0.230310
0.101414
0.106230
0.122701
0.233882
-0.009159
0.119271
0.238667
0.007205
-0.000118
-0.126922
0.113462
-0.125564
0.075644
0.200142
-0.075937
0.047401
-0.045505
-0.057156
-0.031166
-0.055303
0.171410
0.159959
0.144318
-0.089668
0.031973
-0.037849
0.165314
0.212162
0.020306
-0.098605
0.147963
-0.020377
0.100005
0.137554
-0.108280
0.109623
0.048384
0.010095
0.063085
-0.007130
0.150817
-0.036856
0.068797
0.196337
0.128582
-0.017586
0.088039
0.080716
-0.093270
0.158385
0.130622
0.014298
-0.112694
0.003783
0.091814
0.140835
0.056071
-0.027998
0.165540
0.177060
-0.051105
-0.062726
0.181957
-0.067683
-0.087209
0.155198
0.117322
-0.009081
0.186609
-0.072321
0.068780
-0.040934
0.044796
-0.091205
0.018091
0.033012
-0.051900
-0.062660
-0.076109
0.167101
-0.052812
0.207898
-0.076340
0.060161
0.190692
0.198904
0.171292
0.178237
0.191972
0.040009
0.037627
0.211533
0.082285
0.191871
-0.033258
0.214947
-0.083582
-0.101295
0.017955
0.027305
-0.044863
0.153916
0.094208
-0.077596
-0.081713
0.205889
-0.090964
0.213951
0.217632
0.092793
-0.100463
-0.104273
-0.027292
-0.016958
0.024934
0.212796
-0.098433
-0.110853
0.141035
-0.068926
0.223852
0.104805
0.016636
-0.105992
0.219738
-0.013631
0.226765
0.227704
0.231363
0.126144
0.009587
-0.121823
0.231854
0.116858
-0.113668
0.232525
0.236291
0.111053
-0.001072
-0.002944
-0.122756
-0.121554
0.185161
0.070795
-0.072617
-0.024719
0.007155
0.137820
-0.049742
-0.094118
0.023989
0.186147
0.207797
0.091357
-0.077328
0.200003
0.217285
-0.018096
-0.092035
0.138561
0.223585
0.182622
-0.103313
0.228895
-0.110950
0.109598
-0.068514
0.205448
0.016959
0.021969
0.161528
-0.047640
-0.063907
-0.058723
0.178010
0.172941
0.172399
-0.096833
-0.030810
0.097572
0.151425
0.219567
0.013306
0.112034
-0.118743
0.040686
0.165243
-0.050952
0.072983
0.058519
-0.034822
0.147973
0.051044
-0.071281
0.185376
0.190172
-0.004790
0.198230
-0.074097
-0.085782
-0.083529
-0.087798
0.157334
-0.043148
0.152481
0.034271
0.039446
-0.038362
0.168720
-0.069960
-0.066153
0.135108
-0.023066
0.169127
-0.054873
0.080533
0.078251
0.210435
0.201989
0.055045
0.193042
0.044706
-0.095052
-0.091469
0.179229
-0.034368
-0.079576
0.095161
0.154916
0.029641
0.161812
-0.080996
0.085666
0.083140
0.193890
0.064622
0.215760
0.203454
-0.041346
0.207110
-0.048365
-0.102338
-0.106252
0.022638
0.015639
0.096128
-0.095771
0.210353
0.102395
0.144497
0.224276
-0.023831
0.134081
-0.014788
0.107206
-0.084650
0.010946
0.006208
0.227807
0.227940
0.230192
0.123721
0.127172
0.114448
0.120281
-0.110462
-0.010367
-0.115118
-0.120083
-0.059113
-0.004116
0.001330
0.196167
0.180040
-0.047951
-0.038724
0.064286
0.005613
0.162154
0.153079
0.169711
-0.074834
0.197599
-0.089449
-0.031939
-0.015938
-0.101777
0.105782
-0.082474
0.009972
0.078978
0.155917
0.186687
0.168679
-0.054536
0.110618
0.131644
0.124741
-0.108485
-0.116023
-0.060155
0.131622
0.081885
0.147429
0.140430
-0.033787
-0.027676
-0.019825
0.192803
0.064222
0.054252
0.206107
0.019315
0.156996
0.148956
0.211497
0.142019
0.115449
0.002797
-0.005213
-0.053176
-0.085713
-0.089023
-0.092390
0.119212
0.099390
-0.080493
0.052504
0.044548
-0.012518
0.175118
-0.060955
-0.070236
-0.066126
-0.066080
0.180173
0.188415
0.042118
0.036880
0.164093
-0.049923
0.018704
-0.046284
-0.042374
0.081526
-0.063947
0.026277
0.031096
0.086544
-0.073663
-0.074389
0.071891
0.203765
0.196539
-0.028351
0.189599
0.021671
0.182608
0.098492
0.188398
0.209631
0.162809
-0.078257
-0.097820
-0.095948
0.088937
0.221517
-0.088323
0.206900
0.093743
0.014648
0.135098
0.215373
-0.024894
-0.021463
-0.038895
0.208737
-0.078438
-0.099530
0.220770
-0.103908
0.213813
0.100976
0.008594
0.225343
0.224162
0.225729
-0.011539
-0.107120
-0.002039
0.226497
0.121297
0.117864
-0.114806
-0.117538
0.175790
-0.042577
0.032410
0.162911
-0.048593
0.082290
-0.067668
0.183256
-0.024035
-0.045675
0.132510
0.159516
-0.047319
0.023071
0.094670
-0.087995
-0.072335
0.201767
0.013664
0.139564
0.207918
-0.097503
-0.058033
0.101873
-0.100650
0.113732
0.038518
-0.058928
-0.063819
0.172927
0.177668
0.181698
-0.039955
-0.029440
0.033565
0.176784
0.199469
0.183709
-0.091506
0.205433
-0.085785
0.132660
0.005213
0.214843
0.221824
-0.113401
-0.003012
-0.045806
0.159916
0.042101
0.144530
0.150640
-0.030562
0.076464
-0.036275
-0.056091
0.170133
0.048465
0.194404
0.184021
0.072418
0.028934
0.053413
0.059750
0.015323
-0.020315
0.083913
0.166249
0.028813
-0.052115
-0.069511
-0.067928
0.173116
0.202750
-0.090712
0.204394
0.194154
0.091241
0.068625
0.018355
0.197838
0.154868
0.187219
0.089976
-0.076276
-0.087307
-0.082072
0.152414
0.012332
0.217486
0.221891
-0.022574
0.145470
0.097085
-0.099769
-0.071219
-0.067528
0.166219
0.108188
0.190277
-0.019225
0.007594
0.213439
-0.035407
-0.106138
-0.012696
0.103377
0.128188
-0.104439
-0.112102
0.122316
0.201027
-0.110900
-0.093156
0.220524
0.222916
0.113031
-0.003022
0.000362
0.118877
-0.008327
0.159355
-0.056672
-0.084010
-0.040453
-0.045074
0.048761
-0.009161
0.158622
0.125826
-0.061444
0.175403
0.088324
0.149582
0.191996
-0.065289
0.172777
0.064569
-0.020009
0.025500
0.174050
0.097983
0.156905
0.191768
-0.078985
-0.020363
0.211473
-0.086867
0.109186
-0.058950
-0.051926
0.165911
0.006625
0.218185
-0.098043
-0.102021
-0.039738
0.154290
0.043817
0.188982
0.150068
0.144268
0.138043
0.177000
0.181379
0.087620
-0.054562
-0.035999
-0.081699
-0.032868
-0.095395
0.149952
0.143010
-0.013834
0.125757
-0.006281
0.167233
-0.043702
0.157856
-0.030480
0.005889
0.126494
0.074652
0.058083
0.079343
0.074512
-0.063624
0.048106
-0.065635
0.036969
0.024456
0.036029
0.084763
-0.014871
0.038989
0.162980
-0.043440
0.025485
-0.049095
0.039242
-0.050758
0.030456
-0.065214
-0.061509
-0.084744
0.198411
0.101973
-0.036500
0.020748
0.190657
0.099437
0.193562
-0.071192
0.180169
-0.089684
0.184828
-0.093405
0.203551
-0.079587
-0.075918
-0.074792
0.092155
-0.025966
0.016039
0.201071
0.204468
-0.047156
0.161221
0.111612
0.119891
-0.086334
0.136103
0.004211
-0.000626
-0.096874
-0.099707
0.129215
0.218319
0.219658
0.011351
0.072563
0.207381
-0.009486
0.211380
0.216996
-0.109442
0.114036
0.104330
0.219400
0.116459
-0.108247
0.160366
-0.106836
0.195173
0.200035
-0.068789
0.052759
0.121643
0.083155
-0.056714
0.170579
0.039557
0.147328
-0.026593
0.082933
0.187717
-0.053934
0.167693
-0.040902
0.133393
0.155214
0.093608
-0.051823
0.022275
-0.080554
-0.037827
-0.066351
0.157920
0.195806
-0.087202
0.189352
0.140560
0.012728
0.105206
-0.093417
0.162216
-0.048344
0.112605
0.003203
0.201377
0.130230
0.205490
0.214603
0.196823
-0.073503
-0.094300
0.215895
0.123326
0.117472
-0.103000
0.112984
-0.023130
0.167098
-0.053171
0.141561
0.077817
0.144345
-0.033117
-0.076564
-0.060867
0.179185
0.190424
-0.061698
0.035628
0.065600
-0.063380
0.058518
0.152046
0.174994
0.027982
0.035591
0.032700
0.181162
-0.041761
-0.083270
-0.055601
0.177399
-0.008974
-0.015113
0.195118
0.017424
-0.059303
-0.037714
-0.080137
-0.033966
0.184779
-0.066558
0.127491
0.188281
0.156811
-0.042775
0.179877
-0.042049
0.095266
0.089807
-0.083635
0.073813
0.009028
-0.089173
-0.027074
0.197597
-0.072932
0.153437
0.209378
0.186558
0.146451
-0.090569
0.213654
-0.023692
0.215881
0.137118
0.106746
-0.095687
-0.017074
-0.004019
-0.101798
0.008051
0.208961
0.100367
0.001817
0.155844
0.069002
-0.083226
-0.007353
-0.010604
-0.105601
-0.104431
0.198592
0.163775
0.085454
0.170628
0.160222
-0.046328
0.044060
0.049547
-0.044950
0.147659
-0.001332
0.015312
0.168559
-0.054661
0.139803
0.077456
0.037339
-0.028311
0.047019
-0.032678
0.086194
-0.061945
-0.045691
-0.033224
0.159445
-0.019875
0.033785
0.128295
-0.049882
0.098719
-0.035127
0.191665
-0.083121
0.138119
-0.021504
0.035366
-0.089494
-0.084340
-0.091757
0.171576
-0.004665
0.203094
0.058228
-0.055962
0.166081
-0.052309
0.185261
0.068890
0.190947
0.151229
0.150964
-0.011688
0.110132
0.143994
0.045479
0.205517
0.120901
-0.005020
-0.100482
-0.099226
0.076093
0.194092
-0.029761
0.032089
-0.060378
0.043348
0.186334
0.163796
-0.050006
-0.059777
0.171790
0.174400
0.092236
0.058799
0.147722
-0.039303
-0.036967
0.178465
0.024645
-0.077716
-0.075433
-0.072908
-0.039013
0.175852
0.189265
-0.053575
0.019883
0.153098
0.102726
0.185907
0.083522
0.005675
0.158500
-0.044513
-0.015582
0.178993
-0.082069
-0.067940
0.181211
0.107677
-0.069877
0.013209
0.015105
0.169685
0.154442
0.203402
-0.071255
0.212266
0.000821
-0.030489
0.202031
-0.085387
-0.018219
0.126766
-0.098045
0.115022
0.199433
-0.001614
0.010386
0.213508
-0.091223
0.101256
0.164792
0.161326
0.133667
0.065742
0.207712
-0.077100
0.212412
0.192748
0.119868
-0.079068
0.053518
-0.048374
-0.062842
0.145564
0.140858
0.088130
0.103125
0.029650
-0.025601
0.136459
0.080678
0.045304
0.142663
-0.078492
0.074830
-0.058188
0.181829
-0.057220
0.166846
-0.038263
-0.015999
0.144938
0.152440
0.076952
-0.047980
0.021513
-0.073867
0.172550
0.158880
0.101999
0.186929
-0.067527
0.197497
0.011793
-0.019363
0.108519
0.004702
-0.053247
-0.069190
-0.036338
0.053945
0.106240
0.092791
0.185466
0.189919
-0.046487
-0.076372
0.040452
0.045621
0.141547
0.141446
0.113505
0.131245
0.201809
0.151950
0.199632
-0.087258
0.124328
0.210042
0.132465
0.080745
0.160273
-0.046581
-0.008462
0.176523
0.064190
0.095973
0.027447
0.154174
0.157550
-0.040278
-0.043759
-0.034618
0.040398
-0.076566
-0.036214
-0.042846
0.016553
0.148724
0.163400
-0.049734
-0.063317
-0.079518
0.002266
-0.002615
0.060312
0.024357
0.182368
-0.081236
0.122195
0.004461
0.037969
0.196179
-0.085153
0.147434
-0.069532
-0.060454
-0.058034
0.209966
-0.096694
0.050614
-0.088007
-0.008371
0.206536
-0.024815
0.182739
-0.031622
0.208744
-0.095453
0.134679
-0.080706
0.193538
0.211114
0.118471
-0.014952
0.009462
0.103629
-0.091812
-0.071065
0.088614
0.072785
0.149340
0.168186
0.192498
-0.057004
0.097143
-0.022422
-0.026937
0.033638
0.138648
0.029657
0.083826
0.039763
-0.075005
-0.030941
-0.057796
0.172604
0.083364
-0.034303
0.040049
0.128702
0.098931
0.150185
0.054401
0.185864
-0.019190
-0.065137
-0.075505
-0.081286
0.008539
0.139130
0.063976
0.001298
0.197246
0.173218
0.000461
-0.085500
-0.012777
-0.030627
-0.039271
0.050179
0.024076
0.138230
-0.085704
-0.022650
-0.006006
-0.092973
0.121889
0.206398
0.132264
0.188273
-0.054625
0.089279
0.073145
-0.045254
0.181234
0.170007
0.026313
0.175467
0.099473
0.146792
-0.071629
-0.036342
0.068299
-0.055387
-0.055677
0.183902
-0.058848
0.019129
0.115851
0.155901
-0.042051
0.106034
0.019292
-0.075009
0.142813
0.049356
0.135675
0.180031
0.123274
0.086392
0.150492
-0.064636
-0.011709
-0.063904
0.014201
0.111024
0.204188
0.199639
0.155410
-0.043133
-0.077879
-0.051052
0.164901
0.156789
0.148443
0.204068
0.127788
-0.028175
0.115998
-0.034396
-0.094213
-0.000166
0.177490
0.144951
0.007113
0.041455
-0.067656
-0.016070
0.205280
0.187665
0.186753
-0.078265
-0.074637
0.162339
0.104504
0.076933
0.079687
0.207653
0.195471
0.190327
-0.077280
0.183541
0.091046
-0.024409
-0.051293
0.169177
-0.032802
0.041764
-0.071245
-0.072729
0.032375
0.030831
0.036472
0.169433
-0.026798
0.161669
-0.047968
0.030227
-0.052755
0.163984
-0.012269
-0.032389
0.142245
0.123901
-0.046429
0.159918
0.181936
0.102671
0.174230
0.184516
-0.071713
0.193793
-0.020502
0.179243
-0.050502
-0.069800
-0.065449
0.111970
0.041762
0.107924
-0.013886
0.138282
0.077439
0.059240
0.003793
0.176616
-0.061649
0.125298
0.201853
0.198264
0.202942
0.152948
-0.003598
-0.090510
-0.072255
0.026662
0.018356
0.037033
0.159332
-0.045729
-0.007135
0.146274
0.148319
0.055402
-0.032587
0.171610
0.181126
0.184136
0.068544
0.116434
0.095990
0.132646
0.021712
0.170246
-0.054536
0.089418
0.015765
0.010905
0.006208
0.028828
0.174967
-0.072406
0.151813
0.155043
-0.041349
-0.073900
-0.038037
-0.047125
0.160736
-0.058049
-0.060125
-0.009424
0.011645
0.128828
-0.089134
0.116944
-0.079216
-0.066151
-0.001083
-0.088030
0.119461
0.193760
0.149462
0.142540
0.047376
0.049639
-0.029355
-0.025940
-0.068669
0.200701
-0.067786
0.091690
0.135677
0.165724
-0.083436
0.106871
0.189617
0.105231
0.177712
-0.081853
0.178796
-0.054879
0.086990
-0.028245
-0.049107
-0.034379
-0.032373
-0.024553
-0.021620
0.034650
0.081899
0.076701
0.166756
0.158689
-0.045047
-0.042195
0.163840
-0.051147
-0.043201
0.038480
0.144697
0.083671
0.018099
-0.043686
0.105889
0.168321
0.150455
0.140128
-0.062864
0.007677
-0.030414
0.050122
-0.077564
0.092356
0.169973
0.173581
0.000346
0.056112
0.128206
-0.052202
0.103672
0.148088
-0.021148
0.000373
-0.004511
-0.079411
-0.082065
0.129822
0.120400
0.199508
0.191466
0.180172
0.175852
-0.086887
0.086249
0.163295
-0.015929
-0.028457
-0.040649
0.034131
0.154235
0.156706
0.062435
0.072990
-0.007695
0.144440
-0.030408
0.176760
0.066996
0.026348
-0.052037
0.099838
0.140146
0.009346
0.045457
-0.010583
0.153509
-0.039762
0.014973
-0.034131
0.109297
-0.068957
-0.026172
0.171691
-0.068414
-0.055945
-0.052398
0.167057
0.013347
-0.061311
-0.064010
0.134750
-0.073481
0.114366
-0.071040
0.200601
0.118435
0.187937
0.191696
0.156413
-0.048591
0.182573
0.094100
-0.027105
-0.030623
0.162146
-0.066355
0.145996
-0.017183
-0.055802
0.136703
0.166713
0.126313
0.176925
-0.075823
0.183861
-0.023809
0.107733
-0.006987
0.005310
0.122856
0.198430
0.181122
0.023559
0.195983
-0.070017
0.053346
0.171943
0.027951
-0.037213
0.038770
-0.066731
0.079609
0.032378
-0.043849
0.031583
-0.012552
0.012784
0.119800
0.014716
-0.064678
0.166410
0.176333
-0.060593
0.182140
-0.028320
0.004453
-0.061725
-0.052049
0.137704
-0.018320
0.190177
0.076794
0.102804
0.166746
0.139537
0.131051
0.036554
0.023317
0.163810
-0.047857
0.157692
0.041881
0.112731
-0.064313
-0.073450
-0.050333
0.117853
0.196083
0.178570
-0.067993
0.143541
0.010082
0.142260
-0.026412
-0.022845
0.173901
0.136161
-0.028357
-0.040651
0.068868
0.061187
-0.001500
0.056918
0.073638
-0.049771
0.093283
0.146388
0.019957
0.045771
-0.030397
-0.065852
-0.035889
-0.038757
0.149590
0.152366
0.110093
-0.011489
-0.007947
0.002974