# vtk DataFile Version 2.0
Test
ASCII
DATASET POLYDATA
POINTS 5510 float
0.000000 0.000000 0.000000
0.080000 0.000000 0.000000
0.080000 0.160000 0.000000
0.000000 0.160000 0.000000
0.035000 0.076250 0.000000
0.046500 0.083750 0.000000
0.002000 0.000000 0.000000
0.004000 0.000000 0.000000
0.006000 0.000000 0.000000
0.008000 0.000000 0.000000
0.010000 0.000000 0.000000
0.012000 0.000000 0.000000
0.014000 0.000000 0.000000
0.016000 0.000000 0.000000
0.018000 0.000000 0.000000
0.020000 0.000000 0.000000
0.022000 0.000000 0.000000
0.024000 0.000000 0.000000
0.026000 0.000000 0.000000
0.028000 0.000000 0.000000
0.030000 0.000000 0.000000
0.032000 0.000000 0.000000
0.034000 0.000000 0.000000
0.036000 0.000000 0.000000
0.038000 0.000000 0.000000
0.040000 0.000000 0.000000
0.042000 0.000000 0.000000
0.044000 0.000000 0.000000
0.046000 0.000000 0.000000
0.048000 0.000000 0.000000
0.050000 0.000000 0.000000
0.052000 0.000000 0.000000
0.054000 0.000000 0.000000
0.056000 0.000000 0.000000
0.058000 0.000000 0.000000
0.060000 0.000000 0.000000
0.062000 0.000000 0.000000
0.064000 0.000000 0.000000
0.066000 0.000000 0.000000
0.068000 0.000000 0.000000
0.070000 0.000000 0.000000
0.072000 0.000000 0.000000
0.074000 0.000000 0.000000
0.076000 0.000000 0.000000
0.078000 0.000000 0.000000
0.080000 0.002000 0.000000
0.080000 0.004000 0.000000
0.080000 0.006000 0.000000
0.080000 0.008000 0.000000
0.080000 0.010000 0.000000
0.080000 0.012000 0.000000
0.080000 0.014000 0.000000
0.080000 0.016000 0.000000
0.080000 0.018000 0.000000
0.080000 0.020000 0.000000
0.080000 0.022000 0.000000
0.080000 0.024000 0.000000
0.080000 0.026000 0.000000
0.080000 0.028000 0.000000
0.080000 0.030000 0.000000
0.080000 0.032000 0.000000
0.080000 0.034000 0.000000
0.080000 0.036000 0.000000
0.080000 0.038000 0.000000
0.080000 0.040000 0.000000
0.080000 0.042000 0.000000
0.080000 0.044000 0.000000
0.080000 0.046000 0.000000
0.080000 0.048000 0.000000
0.080000 0.050000 0.000000
0.080000 0.052000 0.000000
0.080000 0.054000 0.000000
0.080000 0.056000 0.000000
0.080000 0.058000 0.000000
0.080000 0.060000 0.000000
0.080000 0.062000 0.000000
0.080000 0.064000 0.000000
0.080000 0.066000 0.000000
0.080000 0.068000 0.000000
0.080000 0.070000 0.000000
0.080000 0.072000 0.000000
0.080000 0.074000 0.000000
0.080000 0.076000 0.000000
0.080000 0.078000 0.000000
0.080000 0.080000 0.000000
0.080000 0.082000 0.000000
0.080000 0.084000 0.000000
0.080000 0.086000 0.000000
0.080000 0.088000 0.000000
0.080000 0.090000 0.000000
0.080000 0.092000 0.000000
0.080000 0.094000 0.000000
0.080000 0.096000 0.000000
0.080000 0.098000 0.000000
0.080000 0.100000 0.000000
0.080000 0.102000 0.000000
0.080000 0.104000 0.000000
0.080000 0.106000 0.000000
0.080000 0.108000 0.000000
0.080000 0.110000 0.000000
0.080000 0.112000 0.000000
0.080000 0.114000 0.000000
0.080000 0.116000 0.000000
0.080000 0.118000 0.000000
0.080000 0.120000 0.000000
0.080000 0.122000 0.000000
0.080000 0.124000 0.000000
0.080000 0.126000 0.000000
0.080000 0.128000 0.000000
0.080000 0.130000 0.000000
0.080000 0.132000 0.000000
0.080000 0.134000 0.000000
0.080000 0.136000 0.000000
0.080000 0.138000 0.000000
0.080000 0.140000 0.000000
0.080000 0.142000 0.000000
0.080000 0.144000 0.000000
0.080000 0.146000 0.000000
0.080000 0.148000 0.000000
0.080000 0.150000 0.000000
0.080000 0.152000 0.000000
0.080000 0.154000 0.000000
0.080000 0.156000 0.000000
0.080000 0.158000 0.000000
0.078000 0.160000 0.000000
0.076000 0.160000 0.000000
0.074000 0.160000 0.000000
0.072000 0.160000 0.000000
0.070000 0.160000 0.000000
0.068000 0.160000 0.000000
0.066000 0.160000 0.000000
0.064000 0.160000 0.000000
0.062000 0.160000 0.000000
0.060000 0.160000 0.000000
0.058000 0.160000 0.000000
0.056000 0.160000 0.000000
0.054000 0.160000 0.000000
0.052000 0.160000 0.000000
0.050000 0.160000 0.000000
0.048000 0.160000 0.000000
0.046000 0.160000 0.000000
0.044000 0.160000 0.000000
0.042000 0.160000 0.000000
0.040000 0.160000 0.000000
0.038000 0.160000 0.000000
0.036000 0.160000 0.000000
0.034000 0.160000 0.000000
0.032000 0.160000 0.000000
0.030000 0.160000 0.000000
0.028000 0.160000 0.000000
0.026000 0.160000 0.000000
0.024000 0.160000 0.000000
0.022000 0.160000 0.000000
0.020000 0.160000 0.000000
0.018000 0.160000 0.000000
0.016000 0.160000 0.000000
0.014000 0.160000 0.000000
0.012000 0.160000 0.000000
0.010000 0.160000 0.000000
0.008000 0.160000 0.000000
0.006000 0.160000 0.000000
0.004000 0.160000 0.000000
0.002000 0.160000 0.000000
0.000000 0.158000 0.000000
0.000000 0.156000 0.000000
0.000000 0.154000 0.000000
0.000000 0.152000 0.000000
0.000000 0.150000 0.000000
0.000000 0.148000 0.000000
0.000000 0.146000 0.000000
0.000000 0.144000 0.000000
0.000000 0.142000 0.000000
0.000000 0.140000 0.000000
0.000000 0.138000 0.000000
0.000000 0.136000 0.000000
0.000000 0.134000 0.000000
0.000000 0.132000 0.000000
0.000000 0.130000 0.000000
0.000000 0.128000 0.000000
0.000000 0.126000 0.000000
0.000000 0.124000 0.000000
0.000000 0.122000 0.000000
0.000000 0.120000 0.000000
0.000000 0.118000 0.000000
0.000000 0.116000 0.000000
0.000000 0.114000 0.000000
0.000000 0.112000 0.000000
0.000000 0.110000 0.000000
0.000000 0.108000 0.000000
0.000000 0.106000 0.000000
0.000000 0.104000 0.000000
0.000000 0.102000 0.000000
0.000000 0.100000 0.000000
0.000000 0.098000 0.000000
0.000000 0.096000 0.000000
0.000000 0.094000 0.000000
0.000000 0.092000 0.000000
0.000000 0.090000 0.000000
0.000000 0.088000 0.000000
0.000000 0.086000 0.000000
0.000000 0.084000 0.000000
0.000000 0.082000 0.000000
0.000000 0.080000 0.000000
0.000000 0.078000 0.000000
0.000000 0.076000 0.000000
0.000000 0.074000 0.000000
0.000000 0.072000 0.000000
0.000000 0.070000 0.000000
0.000000 0.068000 0.000000
0.000000 0.066000 0.000000
0.000000 0.064000 0.000000
0.000000 0.062000 0.000000
0.000000 0.060000 0.000000
0.000000 0.058000 0.000000
0.000000 0.056000 0.000000
0.000000 0.054000 0.000000
0.000000 0.052000 0.000000
0.000000 0.050000 0.000000
0.000000 0.048000 0.000000
0.000000 0.046000 0.000000
0.000000 0.044000 0.000000
0.000000 0.042000 0.000000
0.000000 0.040000 0.000000
0.000000 0.038000 0.000000
0.000000 0.036000 0.000000
0.000000 0.034000 0.000000
0.000000 0.032000 0.000000
0.000000 0.030000 0.000000
0.000000 0.028000 0.000000
0.000000 0.026000 0.000000
0.000000 0.024000 0.000000
0.000000 0.022000 0.000000
0.000000 0.020000 0.000000
0.000000 0.018000 0.000000
0.000000 0.016000 0.000000
0.000000 0.014000 0.000000
0.000000 0.012000 0.000000
0.000000 0.010000 0.000000
0.000000 0.008000 0.000000
0.000000 0.006000 0.000000
0.000000 0.004000 0.000000
0.000000 0.002000 0.000000
0.035411 0.076518 0.000000
0.035821 0.076786 0.000000
0.036232 0.077054 0.000000
0.036643 0.077321 0.000000
0.037054 0.077589 0.000000
0.037464 0.077857 0.000000
0.037875 0.078125 0.000000
0.038286 0.078393 0.000000
0.038696 0.078661 0.000000
0.039107 0.078929 0.000000
0.039518 0.079196 0.000000
0.039929 0.079464 0.000000
0.040339 0.079732 0.000000
0.040750 0.080000 0.000000
0.041161 0.080268 0.000000
0.041571 0.080536 0.000000
0.041982 0.080804 0.000000
0.042393 0.081071 0.000000
0.042804 0.081339 0.000000
0.043214 0.081607 0.000000
0.043625 0.081875 0.000000
0.044036 0.082143 0.000000
0.044446 0.082411 0.000000
0.044857 0.082679 0.000000
0.045268 0.082946 0.000000
0.045679 0.083214 0.000000
0.046089 0.083482 0.000000
0.040000 0.002000 0.000000
0.040001 0.158005 0.000000
0.002000 0.116000 0.000000
0.078000 0.048000 0.000000
0.002000 0.106000 0.000000
0.078000 0.058000 0.000000
0.001986 0.042173 0.000000
0.078015 0.117826 0.000000
0.001985 0.094174 0.000000
0.001985 0.084174 0.000000
0.001914 0.056074 0.000000
0.002000 0.072000 0.000000
0.078015 0.065826 0.000000
0.078016 0.075826 0.000000
0.078000 0.088000 0.000000
0.078000 0.104000 0.000000
0.078003 0.029997 0.000000
0.001998 0.130002 0.000000
0.002000 0.032000 0.000000
0.078013 0.128003 0.000000
0.056000 0.158000 0.000000
0.026000 0.002000 0.000000
0.060000 0.002000 0.000000
0.020000 0.158000 0.000000
0.002000 0.020000 0.000000
0.078000 0.142000 0.000000
0.002000 0.146000 0.000000
0.078000 0.020000 0.000000
0.016000 0.002000 0.000000
0.068000 0.002000 0.000000
0.066000 0.158000 0.000000
0.002000 0.014000 0.000000
0.008000 0.158000 0.000000
0.010000 0.002000 0.000000
0.078000 0.148000 0.000000
0.078000 0.008000 0.000000
0.078005 0.037995 0.000000
0.051991 0.001990 0.000000
0.028000 0.158000 0.000000
0.002000 0.008000 0.000000
0.078000 0.094000 0.000000
0.078000 0.110000 0.000000
0.001983 0.066159 0.000000
0.002000 0.050000 0.000000
0.046000 0.158000 0.000000
0.078000 0.134000 0.000000
0.002000 0.140000 0.000000
0.006000 0.002000 0.000000
0.002000 0.154000 0.000000
0.074000 0.002000 0.000000
0.078000 0.152000 0.000000
0.074000 0.158000 0.000000
0.078000 0.080000 0.000000
0.078000 0.070000 0.000000
0.078000 0.122000 0.000000
0.002000 0.090000 0.000000
0.002000 0.080000 0.000000
0.002000 0.038000 0.000000
0.002000 0.102000 0.000000
0.002000 0.112000 0.000000
0.036000 0.002000 0.000000
0.078000 0.042000 0.000000
0.032000 0.002000 0.000000
0.047987 0.001989 0.000000
0.032008 0.158010 0.000000
0.002000 0.028000 0.000000
0.002000 0.126000 0.000000
0.060000 0.158000 0.000000
0.022000 0.002000 0.000000
0.002000 0.136000 0.000000
0.078000 0.024000 0.000000
0.012000 0.158000 0.000000
0.078000 0.158000 0.000000
0.001947 0.003947 0.000000
0.002000 0.158000 0.000000
0.078000 0.012000 0.000000
0.078000 0.096000 0.000000
0.078000 0.098000 0.000000
0.078000 0.082000 0.000000
0.078111 0.099889 0.000000
0.078035 0.083965 0.000000
0.078000 0.090000 0.000000
0.078000 0.106000 0.000000
0.078000 0.072000 0.000000
0.078000 0.112000 0.000000
0.078043 0.061976 0.000000
0.078000 0.114000 0.000000
0.002000 0.064000 0.000000
0.002000 0.062000 0.000000
0.002000 0.088000 0.000000
0.002000 0.078000 0.000000
0.002000 0.060000 0.000000
0.001966 0.076034 0.000000
0.002000 0.070000 0.000000
0.002000 0.054000 0.000000
0.001957 0.098024 0.000000
0.002000 0.048000 0.000000
0.002000 0.046000 0.000000
[...]
POINT_DATA 5510
SCALARS UX float 1
LOOKUP_TABLE default
0.037397
0.134616
0.000004
-0.095425
0.015056
0.025652
0.039834
0.042272
0.044709
0.047148
0.049588
0.052030
0.054473
0.056919
0.059366
0.061814
0.064262
0.066710
0.069156
0.071599
0.074036
0.076469
0.078898
0.081322
0.083741
0.086155
0.088565
0.090969
0.093371
0.095770
0.098167
0.100563
0.102960
0.105358
0.107757
0.110159
0.112567
0.114980
0.117400
0.119826
0.122260
0.124705
0.127164
0.129642
0.132122
0.133025
0.131459
0.129925
0.128390
0.126901
0.125412
0.123961
0.122510
0.121069
0.119631
0.118199
0.116782
0.115364
0.113941
0.112514
0.111078
0.109630
0.108166
0.106684
0.105181
0.103653
0.102131
0.100588
0.099032
0.097480
0.095894
0.094300
0.092701
0.091102
0.089500
0.087897
0.086295
0.084693
0.083089
0.081483
0.079876
0.078265
0.076653
0.075040
0.073425
0.071811
0.070195
0.068580
0.066965
0.065356
0.063720
0.062049
0.060343
0.058431
0.055960
0.053410
0.050644
0.047821
0.045185
0.042794
0.040653
0.038571
0.036828
0.035117
0.033472
0.031871
0.030274
0.028693
0.027110
0.025528
0.023947
0.022365
0.020783
0.019202
0.017624
0.016049
0.014474
0.012909
0.011345
0.009776
0.008215
0.006597
0.004840
0.002701
-0.000034
-0.002434
-0.004960
-0.007485
-0.009966
-0.012446
-0.014934
-0.017414
-0.019884
-0.022352
-0.024814
-0.027270
-0.029723
-0.032173
-0.034620
-0.037058
-0.039490
-0.041918
-0.044341
-0.046759
-0.049172
-0.051582
-0.053987
-0.056390
-0.058791
-0.061193
-0.063594
-0.065996
-0.068400
-0.070807
-0.073221
-0.075642
-0.078073
-0.080511
-0.082957
-0.085416
-0.087892
-0.090395
-0.092900
-0.093817
-0.092249
-0.090676
-0.089173
-0.087679
-0.086196
-0.084743
-0.083300
-0.081858
-0.080423
-0.078996
-0.077573
-0.076147
-0.074716
-0.073275
-0.071821
-0.070345
-0.068877
-0.067385
-0.065890
-0.064381
-0.062865
-0.061335
-0.059791
-0.058251
-0.056684
-0.055110
-0.053530
-0.051947
-0.050361
-0.048771
-0.047178
-0.045582
-0.043983
-0.042380
-0.040776
-0.039167
-0.037556
-0.035945
-0.034330
-0.032716
-0.031098
-0.029480
-0.027861
-0.026251
-0.024614
-0.022954
-0.021229
-0.019426
-0.017115
-0.014647
-0.012094
-0.009425
-0.006728
-0.004182
-0.001723
0.000212
0.002051
0.003843
0.005559
0.007210
0.008842
0.010428
0.012012
0.013597
0.015183
0.016768
0.018356
0.019943
0.021530
0.023118
0.024705
0.026292
0.027879
0.029466
0.031052
0.032638
0.034224
0.035811
0.015441
0.015849
0.016416
0.016959
0.017396
0.017719
0.018063
0.018441
0.018700
0.019077
0.019403
0.019675
0.020026
0.020379
0.020785
0.021173
0.021584
0.021975
0.022344
0.022670
0.022986
0.023273
0.023613
0.023937
0.024328
0.024758
0.025151
0.084581
-0.045185
-0.060382
0.096573
-0.052701
0.088686
0.006256
0.032740
-0.043333
-0.035305
-0.009261
-0.025466
0.082439
0.074399
0.064571
0.047442
0.109881
-0.070660
0.014472
0.024665
-0.025668
0.067561
0.108600
-0.069245
0.023973
0.013593
-0.082145
0.117030
0.055326
0.118253
-0.013337
0.028731
-0.083817
0.048000
0.008859
0.125868
0.104121
0.099003
-0.059631
0.033489
0.059624
0.039907
-0.020668
-0.001109
-0.037902
0.019911
-0.077808
0.043123
-0.088136
0.125563
0.005671
-0.003519
0.071016
0.079071
0.029385
-0.039972
-0.031923
0.009723
-0.049544
-0.057357
0.079740
0.101143
0.074882
0.094201
-0.054824
0.017634
-0.067776
-0.020744
0.062667
-0.074942
0.114147
-0.078926
0.000555
0.036639
-0.091261
0.122869
0.057801
0.055555
0.069403
0.053297
0.067861
0.062949
0.044704
0.077461
0.037816
0.085556
0.035958
-0.018747
-0.016620
-0.038364
-0.030309
-0.014229
-0.028761
-0.023841
-0.006293
-0.046438
0.001019
0.002897
0.091874
0.099659
0.095016
-0.055812
-0.063365
0.027805
0.011313
0.089403
-0.050011
-0.042761
0.107029
-0.035466
-0.033023
-0.066311
0.072448
0.103801
-0.064436
0.019218
0.023084
0.018330
0.020803
0.016750
-0.073514
-0.030576
0.112727
-0.080700
-0.018278
0.060220
0.113415
-0.074071
0.012016
0.119934
-0.085117
0.025559
0.030318
-0.010857
0.052883
-0.008401
0.004047
-0.088755
0.040608
0.038068
0.128932
0.123116
0.130504
-0.054926
0.094122
-0.037597
-0.029603
-0.023093
-0.011541
0.001704
0.068700
0.062203
0.050290
0.076694
0.035341
-0.043583
-0.063779
0.022194
0.012169
0.073287
-0.029006
0.020086
0.014308
0.061076
-0.072319
0.111536
-0.019151
0.028000
0.053739
-0.079589
-0.009354
0.044292
0.097262
0.031172
0.003137
0.123982
0.065610
0.052931
0.057160
-0.026508
-0.014051
-0.018081
0.005334
0.061529
0.066404
0.050668
0.072908
0.075943
0.042486
0.080954
0.034341
-0.022425
-0.036845
-0.027299
-0.041850
-0.011791
-0.033811
-0.003756
0.004586
0.083966
-0.044855
0.087162
-0.048034
0.090355
0.031324
-0.051194
0.007735
0.093519
-0.054328
-0.059062
0.098156
-0.061923
0.102665
-0.064869
0.086986
-0.047589
0.082157
-0.040328
0.091798
-0.052412
0.026272
0.012850
0.105585
0.077309
0.096600
-0.057223
-0.033862
0.101400
-0.062030
-0.069222
0.016039
0.021503
0.108455
0.021668
0.070005
0.017459
-0.028124
0.106198
-0.066837
0.022384
0.015175
-0.072087
0.111300
-0.076372
-0.023209
0.065114
-0.079252
0.115582
-0.015809
0.057772
-0.071654
0.111004
-0.076494
0.115829
0.010438
0.027145
-0.081369
0.118474
-0.083624
0.007277
0.121392
0.031903
0.050441
-0.086613
-0.005953
0.124348
0.002343
0.045561
0.035075
-0.086278
0.039099
0.120680
-0.001278
-0.087163
-0.089674
0.127384
0.126441
0.128023
-0.046036
0.085158
-0.009096
0.090233
0.047733
0.022534
-0.055706
0.099868
-0.065283
0.109445
0.118849
-0.074925
0.007975
0.103050
0.080667
-0.079785
-0.084083
0.058995
0.031916
-0.019888
0.081903
0.078399
-0.042797
-0.039278
0.073532
0.070365
-0.034436
-0.031245
0.088247
-0.049098
0.028645
0.015311
-0.050844
0.018502
0.105816
0.019056
-0.066628
0.068416
0.063521
0.056184
0.114265
-0.076659
-0.073758
0.048854
0.034342
-0.081074
0.115907
0.112979
-0.004569
0.001460
0.121842
0.122418
0.060533
0.063732
-0.021414
0.047244
-0.024623
0.033831
-0.008756
-0.000604
0.095698
0.075112
-0.036012
0.007132
0.010514
-0.056490
-0.059413
0.039170
0.041663
0.091063
0.092563
-0.051894
-0.053376
-0.046105
0.055256
0.067184
-0.062326
-0.016213
-0.028084
0.037274
0.100142
0.098704
0.003474
0.013723
0.023792
0.095041
0.075788
-0.036277
0.085500
-0.038822
0.020640
-0.065225
-0.060487
-0.026565
0.070851
0.108663
0.110093
-0.069454
-0.070886
0.012722
0.104649
0.023238
0.026417
-0.031436
0.015890
0.058634
-0.041207
-0.021610
-0.070093
-0.014230
-0.016695
-0.011774
-0.078109
0.051296
0.119106
0.029584
0.032756
0.043975
0.121539
-0.006954
0.041537
0.124885
0.004777
-0.000209
-0.085611
0.037513
-0.084687
0.012934
0.096290
-0.050066
0.031038
-0.028941
-0.037049
-0.019425
-0.039442
0.076165
0.068127
0.058339
-0.059913
0.021375
-0.027420
0.074135
0.106063
0.013455
-0.066847
0.061933
-0.015133
0.028864
0.054601
-0.074077
0.035196
0.002047
-0.006540
0.036971
-0.005551
0.062067
-0.023036
0.009334
0.093480
0.052804
-0.013840
0.020947
0.016135
-0.062649
0.069266
0.049712
0.009560
-0.077043
0.002276
0.044263
0.056726
0.034791
-0.017674
0.072009
0.080093
-0.032911
-0.040987
0.083536
-0.044422
-0.057977
0.064891
0.050009
-0.011436
0.086767
-0.047632
0.008719
-0.025785
0.030011
-0.060773
-0.005607
-0.002203
-0.037119
-0.044408
-0.053205
0.073131
-0.034029
0.101612
-0.050412
0.005859
0.089567
0.097407
0.078177
0.083032
0.092590
0.027009
0.025416
0.104450
0.016896
0.090374
-0.024070
0.107253
-0.058095
-0.068039
0.011855
0.018213
-0.032278
0.065963
0.024815
-0.051217
-0.054133
0.102258
-0.062884
0.107507
0.110400
0.024094
-0.068282
-0.071161
-0.020025
-0.012692
0.016600
0.107047
-0.067688
-0.075206
0.057054
-0.048460
0.114439
0.032028
0.011144
-0.072506
0.111851
-0.010289
0.116681
0.117367
0.119974
0.046414
0.006381
-0.082566
0.120338
0.039951
-0.077349
0.120874
0.123351
0.035927
-0.001017
-0.002351
-0.083123
-0.082230
0.087854
0.039171
-0.047706
-0.015723
-0.006503
0.054975
-0.035755
-0.064277
0.015764
0.088682
0.103503
0.023373
-0.054148
0.098313
0.110293
-0.013607
-0.063724
0.055462
0.114834
0.084026
-0.070947
0.118423
-0.075787
0.047474
-0.044907
0.100482
0.010997
-0.003916
0.069217
-0.030436
-0.041717
-0.038134
0.080817
0.077246
0.079099
-0.065455
-0.022502
0.027255
0.064370
0.111872
0.008699
0.036780
-0.080661
0.000303
0.071824
-0.032736
0.011401
0.034969
-0.021697
0.060333
0.032831
-0.046823
0.085926
0.089213
-0.009561
0.094857
-0.048783
-0.057058
-0.055441
-0.058541
0.066322
-0.027302
0.063099
0.022921
0.026365
-0.024025
0.076525
-0.049286
-0.046751
0.054663
-0.015584
0.074560
-0.035459
0.041566
0.014549
0.104629
0.097706
0.004076
0.093476
0.029561
-0.064043
-0.061271
0.083865
-0.024992
-0.052608
0.025659
0.066826
0.019796
0.071676
-0.056552
0.019379
0.017717
0.091764
0.007551
0.108947
0.100708
-0.029848
0.101857
-0.034693
-0.069714
-0.072616
0.015040
0.010282
0.026515
-0.066129
0.105492
0.030439
0.059492
0.115118
-0.017578
0.052153
-0.011213
0.033608
-0.058937
0.007103
0.003906
0.117542
0.117838
0.119350
0.044830
0.047272
0.038365
0.042389
-0.075559
-0.007914
-0.078552
-0.081581
-0.042026
-0.003292
0.000623
0.093851
0.082251
-0.030578
-0.024194
0.007994
-0.006202
0.069684
0.063417
0.077362
-0.052628
0.096777
-0.062176
-0.023430
-0.012127
-0.070062
0.032875
-0.054919
0.006263
0.015328
0.067686
0.086844
0.074288
-0.035165
0.036051
0.050574
0.045687
-0.074538
-0.079109
-0.042841
0.052917
0.041264
0.059807
0.056142
-0.020871
-0.017222
-0.013870
0.091178
0.036658
0.004434
0.102126
0.012596
0.066074
0.062790
0.106393
0.057903
0.039220
0.001428
-0.004176
-0.038104
-0.057452
-0.060136
-0.062891
0.049852
0.045105
-0.053419
0.032851
0.029109
-0.011631
0.078781
-0.039677
-0.046035
-0.043171
-0.043221
0.082328
0.088009
0.028023
0.024673
0.071058
-0.031944
-0.003841
-0.033385
-0.030692
0.016945
-0.045390
0.017312
0.020565
0.020206
-0.051735
-0.048966
0.011331
0.099111
0.095906
-0.020905
0.091082
0.014193
0.086221
0.028072
0.088050
0.104952
0.072525
-0.051743
-0.067144
-0.065710
0.021778
0.113347
-0.061323
0.103098
0.024945
0.009430
0.053016
0.109326
-0.018460
-0.016022
-0.028276
0.103223
-0.055001
-0.068532
0.112700
-0.071543
0.107888
0.029711
0.005515
0.115989
0.115362
0.116332
-0.008844
-0.073365
-0.001833
0.116887
0.043245
0.040804
-0.078215
-0.080058
0.081468
-0.026839
-0.001578
0.070187
-0.031089
0.017696
-0.044211
0.084557
-0.015069
-0.028931
0.052545
0.067865
-0.034205
0.014946
0.025784
-0.060363
-0.051080
0.099561
0.008584
0.056324
0.103937
-0.067544
-0.041503
0.030512
-0.069387
0.047819
0.025530
-0.038188
-0.041571
0.077290
0.080607
0.083400
-0.029123
-0.021788
0.022231
0.082300
0.096565
0.087123
-0.063159
0.102419
-0.059801
0.051439
0.003052
0.108737
0.113565
-0.077573
-0.008350
-0.029080
0.068114
0.027699
0.058100
0.061790
-0.018827
0.013749
-0.022519
-0.036224
0.075326
0.031171
0.092440
0.085003
0.038916
-0.001584
0.032711
0.006335
-0.003850
-0.013495
0.018488
0.072582
0.019028
-0.033471
-0.045530
-0.044420
0.079741
0.099333
-0.061524
0.100710
0.094384
0.042454
0.009798
0.011759
0.095207
0.064606
0.089564
0.022698
-0.050311
-0.058742
-0.057381
0.065223
0.007861
0.110829
0.113849
-0.016919
0.060335
0.027370
-0.068600
-0.050237
-0.047783
0.074918
0.034456
0.089383
-0.014511
0.004657
0.107857
-0.025849
-0.073033
-0.009759
0.031292
0.048128
-0.071806
-0.076662
0.044104
0.099157
-0.076051
-0.064569
0.112909
0.114446
0.037634
-0.002658
-0.000208
0.041661
-0.006490
0.070102
-0.040481
-0.056119
-0.025370
-0.028589
0.002904
-0.009976
0.067203
0.051380
-0.039924
0.079028
0.042599
0.061157
0.091352
-0.042557
0.077217
0.008582
-0.012927
-0.000850
0.080525
0.028182
0.068530
0.092855
-0.052722
-0.015413
0.106851
-0.060616
0.035315
-0.038114
-0.033283
0.072387
0.003829
0.111385
-0.067838
-0.070541
-0.024803
0.064198
0.028435
0.088758
0.061350
0.057760
0.054765
0.080160
0.083219
0.021146
-0.039152
-0.022263
-0.055026
-0.024195
-0.066062
0.063646
0.058756
-0.010660
0.046545
-0.005042
0.075764
-0.027555
0.066693
-0.018640
-0.005494
0.050759
0.038718
0.034132
0.015784
0.013023
-0.041373
0.030537
-0.042774
0.001015
-0.001834
0.023866
0.019298
-0.011696
0.000654
0.070326
-0.031531
0.016584
-0.031304
0.025735
-0.036561
0.019947
-0.046337
-0.043850
-0.057642
0.096809
0.044934
-0.026727
0.013376
0.091954
0.028912
0.092681
-0.046749
0.084660
-0.061735
0.085709
-0.064601
0.100976
-0.055861
-0.053448
-0.049412
0.024115
-0.019333
0.010192
0.097919
0.101543
-0.029955
0.069077
0.036904
0.042520
-0.058986
0.053876
0.002202
-0.001044
-0.066967
-0.069037
0.048997
0.111143
0.112335
0.007020
0.012122
0.103881
-0.007402
0.106336
0.110488
-0.075117
0.038492
0.032127
0.112023
0.040078
-0.074227
0.070957
-0.073573
0.095221
0.098160
-0.048724
0.004645
0.049559
0.040717
-0.036573
0.075677
0.026151
0.059633
-0.016395
0.018302
0.088827
-0.034569
0.073681
-0.025543
0.052333
0.064864
0.042218
-0.037374
0.014236
-0.055217
-0.027746
-0.047185
0.069384
0.095649
-0.060650
0.091300
0.057179
0.007774
0.032912
-0.065063
0.069834
-0.030720
0.037758
0.001351
0.099916
0.049863
0.102381
0.108948
0.095466
-0.051939
-0.065423
0.109868
0.044961
0.040939
-0.071141
0.046781
-0.014358
0.073232
-0.034133
0.056230
0.015108
0.057661
-0.020287
-0.050773
-0.039408
0.081680
0.089997
-0.040032
0.001362
0.036391
-0.041186
0.006352
0.062663
0.078766
0.018272
0.023415
0.021455
0.085481
-0.030459
-0.056371
-0.039948
0.082861
-0.009370
-0.011175
0.094011
0.010948
-0.042452
-0.023411
-0.053718
-0.025060
0.088000
-0.043489
0.050404
0.090433
0.066000
-0.026846
0.082347
-0.026410
0.026385
0.022784
-0.057842
0.037831
0.005451
-0.062108
-0.020212
0.097060
-0.048039
0.066095
0.105355
0.086998
0.061181
-0.063011
0.108355
-0.017805
0.109588
0.054745
0.033713
-0.066563
-0.013026
-0.003492
-0.070250
0.004617
0.104788
0.029744
0.000594
0.065276
0.010426
-0.058242
-0.005914
-0.008294
-0.072682
-0.072058
0.097594
0.073346
0.019947
0.078139
0.068429
-0.029313
0.002478
0.030835
-0.032660
0.059774
-0.007158
-0.003204
0.074260
-0.035159
0.055401
0.014683
0.024539
-0.017360
0.030176
-0.020045
0.020573
-0.040238
-0.028812
-0.020291
0.067924
-0.012477
0.001698
0.050074
-0.036121
0.028868
-0.025942
0.093143
-0.058209
0.055601
-0.016302
0.023127
-0.062612
-0.059058
-0.063884
0.078929
-0.007573
0.100843
0.006839
-0.035979
0.072555
-0.033456
0.086471
0.010770
0.091601
0.062080
0.064505
-0.009167
0.036139
0.059601
0.003669
0.102879
0.043379
-0.004327
-0.069604
-0.068717
0.014273
0.094261
-0.018036
0.020933
-0.039077
0.028015
0.087545
0.070953
-0.031868
-0.038669
0.076548
0.078387
0.024392
0.033804
0.059744
-0.028842
-0.022820
0.081297
0.015853
-0.052686
-0.050562
-0.048407
-0.024233
0.081909
0.090163
-0.038642
0.012612
0.063380
0.031289
0.088907
0.039922
0.003017
0.067205
-0.028050
-0.010818
0.084098
-0.056526
-0.044549
0.083406
0.034531
-0.049535
-0.003096
0.009381
0.075079
0.066946
0.101387
-0.047088
0.107427
-0.000247
-0.022623
0.099980
-0.059246
-0.013925
0.047404
-0.068075
0.039338
0.098469
-0.001876
0.006193
0.108074
-0.063564
0.030541
0.074193
0.071770
0.052301
0.035811
0.104390
-0.054311
0.107182
0.093659
0.048388
-0.053906
0.032080
-0.035012
-0.044834
0.058341
0.055590
0.021719
0.044485
0.019256
-0.015648
0.053515
0.016888
0.028918
0.057147
-0.052231
0.012827
-0.037533
0.084943
-0.036939
0.073118
-0.023647
-0.010512
0.057858
0.062953
0.037662
-0.034882
0.013590
-0.050443
0.079728
0.070190
0.031215
0.089735
-0.048044
0.097453
0.006977
-0.014810
0.035294
0.002191
-0.034047
-0.046065
-0.026831
0.031660
0.044425
0.024919
0.087988
0.091769
-0.033795
-0.052790
0.026306
0.028756
0.058022
0.055806
0.038553
0.050732
0.100430
0.065337
0.098439
-0.061118
0.045817
0.105669
0.051505
0.017050
0.068514
-0.029418
-0.008523
0.079895
0.008856
0.027049
0.017766
0.064192
0.066589
-0.025044
-0.027462
-0.021212
0.003094
-0.051596
-0.022231
-0.031290
0.010204
0.060362
0.070701
-0.031608
-0.041310
-0.055441
0.000554
-0.002717
0.033710
-0.000471
0.086447
-0.056797
0.048370
-0.005112
0.024807
0.096041
-0.059664
0.062024
-0.045784
-0.043302
-0.037427
0.105907
-0.067180
0.004657
-0.061453
-0.006752
0.103234
-0.018677
0.084617
-0.023493
0.105012
-0.066279
0.053166
-0.056678
0.094566
0.106540
0.041794
-0.011547
0.005401
0.032096
-0.064120
-0.050394
0.022176
0.012568
0.060804
0.076565
0.092927
-0.040971
0.042407
-0.013691
-0.016325
0.021968
0.054517
0.019210
0.019039
0.025776
-0.050007
-0.018759
-0.037244
0.077126
0.018828
-0.020848
0.003781
0.049671
0.042054
0.061424
0.031260
0.089294
-0.011800
-0.046506
-0.053039
-0.057242
0.004629
0.056456
0.009260
-0.000259
0.096901
0.077717
-0.005585
-0.059894
-0.010041
-0.018458
-0.028876
0.005451
0.015365
0.053993
-0.060187
-0.017176
-0.005153
-0.064771
0.044229
0.103484
0.051602
0.090429
-0.039419
0.022727
0.013063
-0.033010
0.084049
0.075359
0.016888
0.081763
0.029537
0.059058
-0.048260
-0.022252
0.035699
-0.035542
-0.035799
0.086681
-0.038184
0.011959
0.046708
0.065421
-0.026274
0.033668
-0.001030
-0.051558
0.056534
0.030055
0.052790
0.084938
0.048097
0.039792
0.061593
-0.042371
-0.009067
-0.045621
0.008608
0.036932
0.101728
0.098949
0.067761
-0.026972
-0.054088
-0.032515
0.071752
0.066091
0.062875
0.101945
0.048277
-0.021065
0.040181
-0.020984
-0.065647
-0.001078
0.081103
0.060420
0.003816
0.027073
-0.044805
-0.012427
0.102611
0.090662
0.089142
-0.055144
-0.052756
0.072608
0.032871
0.015017
0.016532
0.104137
0.095997
0.092095
-0.054393
0.087381
0.023793
-0.014695
-0.037148
0.077381
-0.024371
0.026891
-0.047665
-0.049318
0.021078
0.020020
0.023756
0.074924
-0.016106
0.069491
-0.030385
0.019601
-0.033830
0.071153
-0.008737
-0.019460
0.056063
0.047764
-0.033858
0.071043
0.086834
0.031810
0.081023
0.088173
-0.050704
0.095028
-0.015671
0.083772
-0.032109
-0.048071
-0.043763
0.037763
0.026546
0.044151
-0.010919
0.053839
0.037056
0.032726
0.001421
0.080294
-0.044168
0.046655
0.100227
0.098034
0.101100
0.066167
-0.003541
-0.063248
-0.051236
0.017124
0.011338
0.024013
0.067878
-0.028776
-0.007668
0.058699
0.060116
0.006588
-0.019756
0.076522
0.085384
0.087940
0.010990
0.046267
0.027201
0.051104
0.013670
0.078242
-0.035197
0.039878
0.009559
0.006237
0.003051
0.001207
0.078997
-0.050475
0.062578
0.064862
-0.025725
-0.051747
-0.023425
-0.029747
0.068865
-0.041740
-0.039225
-0.007615
-0.002728
0.049165
-0.062273
0.041008
-0.055800
-0.043580
-0.001857
-0.061686
0.042648
0.094479
0.063724
0.058859
0.005402
0.029648
-0.021948
-0.019528
-0.048859
0.099303
-0.045970
0.024340
0.054018
0.074974
-0.058693
0.034423
0.092091
0.033516
0.083446
-0.057501
0.082220
-0.035201
0.021214
-0.016930
-0.035701
-0.025504
-0.019524
-0.014604
-0.013013
0.022598
0.018016
0.015143
0.073095
0.067422
-0.028312
-0.030902
0.071133
-0.032941
-0.026974
0.004092
0.057647
0.037868
0.011137
-0.032002
0.034085
0.077023
0.064545
0.057292
-0.045026
0.003933
-0.018107
0.029322
-0.054849
0.024882
0.075615
0.078733
-0.004932
0.007701
0.049044
-0.033351
0.042526
0.060003
-0.012509
-0.001027
-0.004308
-0.055961
-0.057813
0.050016
0.043469
0.098714
0.093000
0.085502
0.081890
-0.060878
0.020795
0.073403
-0.010044
-0.016915
-0.025191
0.022172
0.064324
0.066070
0.009284
0.013317
-0.007275
0.057464
-0.018197
0.081867
0.034665
0.001263
-0.033180
0.029891
0.054828
-0.002745
0.028125
-0.008548
0.063779
-0.024621
0.008958
-0.020658
0.036010
-0.047132
-0.015493
0.076959
-0.048092
-0.040364
-0.037952
0.073391
0.007903
-0.040235
-0.042544
0.052001
-0.052013
0.039324
-0.049250
0.099574
0.046277
0.090549
0.093574
0.068593
-0.030769
0.086655
0.025955
-0.020383
-0.022872
0.069860
-0.047358
0.061290
-0.013289
-0.036232
0.054879
0.075780
0.047525
0.081549
-0.053594
0.088238
-0.018037
0.035174
-0.005971
0.002319
0.045067
0.097845
0.085815
0.014959
0.096513
-0.049390
0.007489
0.079546
0.018032
-0.027493
0.024981
-0.044886
0.016721
0.021047
-0.032083
0.020458
-0.008361
-0.001337
0.046133
0.008774
-0.045796
0.075797
0.083077
-0.043528
0.086634
-0.021254
0.001653
-0.041492
-0.033746
0.055711
-0.014146
0.092599
0.015502
0.031992
0.073602
0.054351
0.050037
0.004344
0.014801
0.071262
-0.030246
0.069599
0.026181
0.038454
-0.043993
-0.052072
-0.036578
0.041804
0.096329
0.084241
-0.048338
0.059692
0.005582
0.056010
-0.015465
-0.013381
0.080360
0.052519
-0.016723
-0.029897
0.011532
0.009731
-0.004862
0.031441
0.035535
-0.031622
0.040099
0.058817
0.012443
0.027744
-0.018026
-0.045758
-0.021874
-0.023861
0.061061
0.063015