# vtk DataFile Version 2.0
Test
ASCII
DATASET POLYDATA
POINTS 5510 float
0.000000 0.000000 0.000000
0.080000 0.000000 0.000000
0.080000 0.160000 0.000000
0.000000 0.160000 0.000000
0.035000 0.076250 0.000000
0.046500 0.083750 0.000000
0.002000 0.000000 0.000000
0.004000 0.000000 0.000000
0.006000 0.000000 0.000000
0.008000 0.000000 0.000000
0.010000 0.000000 0.000000
0.012000 0.000000 0.000000
0.014000 0.000000 0.000000
0.016000 0.000000 0.000000
0.018000 0.000000 0.000000
0.020000 0.000000 0.000000
0.022000 0.000000 0.000000
0.024000 0.000000 0.000000
0.026000 0.000000 0.000000
0.028000 0.000000 0.000000
0.030000 0.000000 0.000000
0.032000 0.000000 0.000000
0.034000 0.000000 0.000000
0.036000 0.000000 0.000000
0.038000 0.000000 0.000000
0.040000 0.000000 0.000000
0.042000 0.000000 0.000000
0.044000 0.000000 0.000000
0.046000 0.000000 0.000000
0.048000 0.000000 0.000000
0.050000 0.000000 0.000000
0.052000 0.000000 0.000000
0.054000 0.000000 0.000000
0.056000 0.000000 0.000000
0.058000 0.000000 0.000000
0.060000 0.000000 0.000000
0.062000 0.000000 0.000000
0.064000 0.000000 0.000000
0.066000 0.000000 0.000000
0.068000 0.000000 0.000000
0.070000 0.000000 0.000000
0.072000 0.000000 0.000000
0.074000 0.000000 0.000000
0.076000 0.000000 0.000000
0.078000 0.000000 0.000000
0.080000 0.002000 0.000000
0.080000 0.004000 0.000000
0.080000 0.006000 0.000000
0.080000 0.008000 0.000000
0.080000 0.010000 0.000000
0.080000 0.012000 0.000000
0.080000 0.014000 0.000000
0.080000 0.016000 0.000000
0.080000 0.018000 0.000000
0.080000 0.020000 0.000000
0.080000 0.022000 0.000000
0.080000 0.024000 0.000000
0.080000 0.026000 0.000000
0.080000 0.028000 0.000000
0.080000 0.030000 0.000000
0.080000 0.032000 0.000000
0.080000 0.034000 0.000000
0.080000 0.036000 0.000000
0.080000 0.038000 0.000000
0.080000 0.040000 0.000000
0.080000 0.042000 0.000000
0.080000 0.044000 0.000000
0.080000 0.046000 0.000000
0.080000 0.048000 0.000000
0.080000 0.050000 0.000000
0.080000 0.052000 0.000000
0.080000 0.054000 0.000000
0.080000 0.056000 0.000000
0.080000 0.058000 0.000000
0.080000 0.060000 0.000000
0.080000 0.062000 0.000000
0.080000 0.064000 0.000000
0.080000 0.066000 0.000000
0.080000 0.068000 0.000000
0.080000 0.070000 0.000000
0.080000 0.072000 0.000000
0.080000 0.074000 0.000000
0.080000 0.076000 0.000000
0.080000 0.078000 0.000000
0.080000 0.080000 0.000000
0.080000 0.082000 0.000000
0.080000 0.084000 0.000000
0.080000 0.086000 0.000000
0.080000 0.088000 0.000000
0.080000 0.090000 0.000000
0.080000 0.092000 0.000000
0.080000 0.094000 0.000000
0.080000 0.096000 0.000000
0.080000 0.098000 0.000000
0.080000 0.100000 0.000000
0.080000 0.102000 0.000000
0.080000 0.104000 0.000000
0.080000 0.106000 0.000000
0.080000 0.108000 0.000000
0.080000 0.110000 0.000000
0.080000 0.112000 0.000000
0.080000 0.114000 0.000000
0.080000 0.116000 0.000000
0.080000 0.118000 0.000000
0.080000 0.120000 0.000000
0.080000 0.122000 0.000000
0.080000 0.124000 0.000000
0.080000 0.126000 0.000000
0.080000 0.128000 0.000000
0.080000 0.130000 0.000000
0.080000 0.132000 0.000000
0.080000 0.134000 0.000000
0.080000 0.136000 0.000000
0.080000 0.138000 0.000000
0.080000 0.140000 0.000000
0.080000 0.142000 0.000000
0.080000 0.144000 0.000000
0.080000 0.146000 0.000000
0.080000 0.148000 0.000000
0.080000 0.150000 0.000000
0.080000 0.152000 0.000000
0.080000 0.154000 0.000000
0.080000 0.156000 0.000000
0.080000 0.158000 0.000000
0.078000 0.160000 0.000000
0.076000 0.160000 0.000000
0.074000 0.160000 0.000000
0.072000 0.160000 0.000000
0.070000 0.160000 0.000000
0.068000 0.160000 0.000000
0.066000 0.160000 0.000000
0.064000 0.160000 0.000000
0.062000 0.160000 0.000000
0.060000 0.160000 0.000000
0.058000 0.160000 0.000000
0.056000 0.160000 0.000000
0.054000 0.160000 0.000000
0.052000 0.160000 0.000000
0.050000 0.160000 0.000000
0.048000 0.160000 0.000000
0.046000 0.160000 0.000000
0.044000 0.160000 0.000000
0.042000 0.160000 0.000000
0.040000 0.160000 0.000000
0.038000 0.160000 0.000000
0.036000 0.160000 0.000000
0.034000 0.160000 0.000000
0.032000 0.160000 0.000000
0.030000 0.160000 0.000000
0.028000 0.160000 0.000000
0.026000 0.160000 0.000000
0.024000 0.160000 0.000000
0.022000 0.160000 0.000000
0.020000 0.160000 0.000000
0.018000 0.160000 0.000000
0.016000 0.160000 0.000000
0.014000 0.160000 0.000000
0.012000 0.160000 0.000000
0.010000 0.160000 0.000000
0.008000 0.160000 0.000000
0.006000 0.160000 0.000000
0.004000 0.160000 0.000000
0.002000 0.160000 0.000000
0.000000 0.158000 0.000000
0.000000 0.156000 0.000000
0.000000 0.154000 0.000000
0.000000 0.152000 0.000000
0.000000 0.150000 0.000000
0.000000 0.148000 0.000000
0.000000 0.146000 0.000000
0.000000 0.144000 0.000000
0.000000 0.142000 0.000000
0.000000 0.140000 0.000000
0.000000 0.138000 0.000000
0.000000 0.136000 0.000000
0.000000 0.134000 0.000000
0.000000 0.132000 0.000000
0.000000 0.130000 0.000000
0.000000 0.128000 0.000000
0.000000 0.126000 0.000000
0.000000 0.124000 0.000000
0.000000 0.122000 0.000000
0.000000 0.120000 0.000000
0.000000 0.118000 0.000000
0.000000 0.116000 0.000000
0.000000 0.114000 0.000000
0.000000 0.112000 0.000000
0.000000 0.110000 0.000000
0.000000 0.108000 0.000000
0.000000 0.106000 0.000000
0.000000 0.104000 0.000000
0.000000 0.102000 0.000000
0.000000 0.100000 0.000000
0.000000 0.098000 0.000000
0.000000 0.096000 0.000000
0.000000 0.094000 0.000000
0.000000 0.092000 0.000000
0.000000 0.090000 0.000000
0.000000 0.088000 0.000000
0.000000 0.086000 0.000000
0.000000 0.084000 0.000000
0.000000 0.082000 0.000000
0.000000 0.080000 0.000000
0.000000 0.078000 0.000000
0.000000 0.076000 0.000000
0.000000 0.074000 0.000000
0.000000 0.072000 0.000000
0.000000 0.070000 0.000000
0.000000 0.068000 0.000000
0.000000 0.066000 0.000000
0.000000 0.064000 0.000000
0.000000 0.062000 0.000000
0.000000 0.060000 0.000000
0.000000 0.058000 0.000000
0.000000 0.056000 0.000000
0.000000 0.054000 0.000000
0.000000 0.052000 0.000000
0.000000 0.050000 0.000000
0.000000 0.048000 0.000000
0.000000 0.046000 0.000000
0.000000 0.044000 0.000000
0.000000 0.042000 0.000000
0.000000 0.040000 0.000000
0.000000 0.038000 0.000000
0.000000 0.036000 0.000000
0.000000 0.034000 0.000000
0.000000 0.032000 0.000000
0.000000 0.030000 0.000000
0.000000 0.028000 0.000000
0.000000 0.026000 0.000000
0.000000 0.024000 0.000000
0.000000 0.022000 0.000000
0.000000 0.020000 0.000000
0.000000 0.018000 0.000000
0.000000 0.016000 0.000000
0.000000 0.014000 0.000000
0.000000 0.012000 0.000000
0.000000 0.010000 0.000000
0.000000 0.008000 0.000000
0.000000 0.006000 0.000000
0.000000 0.004000 0.000000
0.000000 0.002000 0.000000
0.035411 0.076518 0.000000
0.035821 0.076786 0.000000
0.036232 0.077054 0.000000
0.036643 0.077321 0.000000
0.037054 0.077589 0.000000
0.037464 0.077857 0.000000
0.037875 0.078125 0.000000
0.038286 0.078393 0.000000
0.038696 0.078661 0.000000
0.039107 0.078929 0.000000
0.039518 0.079196 0.000000
0.039929 0.079464 0.000000
0.040339 0.079732 0.000000
0.040750 0.080000 0.000000
0.041161 0.080268 0.000000
0.041571 0.080536 0.000000
0.041982 0.080804 0.000000
0.042393 0.081071 0.000000
0.042804 0.081339 0.000000
0.043214 0.081607 0.000000
0.043625 0.081875 0.000000
0.044036 0.082143 0.000000
0.044446 0.082411 0.000000
0.044857 0.082679 0.000000
0.045268 0.082946 0.000000
0.045679 0.083214 0.000000
0.046089 0.083482 0.000000
0.040000 0.002000 0.000000
0.040001 0.158005 0.000000
0.002000 0.116000 0.000000
0.078000 0.048000 0.000000
0.002000 0.106000 0.000000
0.078000 0.058000 0.000000
0.001986 0.042173 0.000000
0.078015 0.117826 0.000000
0.001985 0.094174 0.000000
0.001985 0.084174 0.000000
0.001914 0.056074 0.000000
0.002000 0.072000 0.000000
0.078015 0.065826 0.000000
0.078016 0.075826 0.000000
0.078000 0.088000 0.000000
0.078000 0.104000 0.000000
0.078003 0.029997 0.000000
0.001998 0.130002 0.000000
0.002000 0.032000 0.000000
0.078013 0.128003 0.000000
0.056000 0.158000 0.000000
0.026000 0.002000 0.000000
0.060000 0.002000 0.000000
0.020000 0.158000 0.000000
0.002000 0.020000 0.000000
0.078000 0.142000 0.000000
0.002000 0.146000 0.000000
0.078000 0.020000 0.000000
0.016000 0.002000 0.000000
0.068000 0.002000 0.000000
0.066000 0.158000 0.000000
0.002000 0.014000 0.000000
0.008000 0.158000 0.000000
0.010000 0.002000 0.000000
0.078000 0.148000 0.000000
0.078000 0.008000 0.000000
0.078005 0.037995 0.000000
0.051991 0.001990 0.000000
0.028000 0.158000 0.000000
0.002000 0.008000 0.000000
0.078000 0.094000 0.000000
0.078000 0.110000 0.000000
0.001983 0.066159 0.000000
0.002000 0.050000 0.000000
0.046000 0.158000 0.000000
0.078000 0.134000 0.000000
0.002000 0.140000 0.000000
0.006000 0.002000 0.000000
0.002000 0.154000 0.000000
0.074000 0.002000 0.000000
0.078000 0.152000 0.000000
0.074000 0.158000 0.000000
0.078000 0.080000 0.000000
0.078000 0.070000 0.000000
0.078000 0.122000 0.000000
0.002000 0.090000 0.000000
0.002000 0.080000 0.000000
0.002000 0.038000 0.000000
0.002000 0.102000 0.000000
0.002000 0.112000 0.000000
0.036000 0.002000 0.000000
0.078000 0.042000 0.000000
0.032000 0.002000 0.000000
0.047987 0.001989 0.000000
0.032008 0.158010 0.000000
0.002000 0.028000 0.000000
0.002000 0.126000 0.000000
0.060000 0.158000 0.000000
0.022000 0.002000 0.000000
0.002000 0.136000 0.000000
0.078000 0.024000 0.000000
0.012000 0.158000 0.000000
0.078000 0.158000 0.000000
0.001947 0.003947 0.000000
0.002000 0.158000 0.000000
0.078000 0.012000 0.000000
0.078000 0.096000 0.000000
0.078000 0.098000 0.000000
0.078000 0.082000 0.000000
0.078111 0.099889 0.000000
0.078035 0.083965 0.000000
0.078000 0.090000 0.000000
0.078000 0.106000 0.000000
0.078000 0.072000 0.000000
0.078000 0.112000 0.000000
0.078043 0.061976 0.000000
0.078000 0.114000 0.000000
0.002000 0.064000 0.000000
0.002000 0.062000 0.000000
0.002000 0.088000 0.000000
0.002000 0.078000 0.000000
0.002000 0.060000 0.000000
0.001966 0.076034 0.000000
0.002000 0.070000 0.000000
0.002000 0.054000 0.000000
0.001957 0.098024 0.000000
0.002000 0.048000 0.000000
0.002000 0.046000 0.000000
[...]
POINT_DATA 5510
SCALARS UX float 1
LOOKUP_TABLE default
0.043625
0.147168
0.000004
-0.101640
0.017935
0.029180
0.046223
0.048820
0.051417
0.054015
0.056615
0.059216
0.061819
0.064424
0.067031
0.069639
0.072248
0.074855
0.077461
0.080062
0.082659
0.085249
0.087835
0.090416
0.092991
0.095561
0.098125
0.100684
0.103239
0.105792
0.108342
0.110891
0.113441
0.115992
0.118544
0.121101
0.123663
0.126232
0.128809
0.131393
0.133986
0.136591
0.139213
0.141858
0.144504
0.145441
0.143744
0.142085
0.140426
0.138821
0.137216
0.135658
0.134099
0.132551
0.131007
0.129468
0.127946
0.126422
0.124891
0.123352
0.121801
0.120234
0.118647
0.117038
0.115404
0.113741
0.112086
0.110407
0.108713
0.107025
0.105299
0.103566
0.101828
0.100090
0.098350
0.096610
0.094871
0.093133
0.091392
0.089649
0.087905
0.086156
0.084406
0.082654
0.080900
0.079146
0.077390
0.075634
0.073879
0.072132
0.070361
0.068557
0.066717
0.064633
0.061829
0.058919
0.055719
0.052443
0.049391
0.046654
0.044237
0.041893
0.039980
0.038105
0.036312
0.034572
0.032836
0.031119
0.029399
0.027680
0.025962
0.024242
0.022524
0.020806
0.019093
0.017381
0.015671
0.013971
0.012270
0.010565
0.008866
0.007104
0.005193
0.002879
-0.000037
-0.002580
-0.005267
-0.007955
-0.010595
-0.013234
-0.015886
-0.018528
-0.021160
-0.023789
-0.026411
-0.029027
-0.031640
-0.034248
-0.036855
-0.039450
-0.042040
-0.044626
-0.047206
-0.049780
-0.052350
-0.054914
-0.057475
-0.060032
-0.062589
-0.065145
-0.067701
-0.070258
-0.072818
-0.075381
-0.077951
-0.080531
-0.083120
-0.085719
-0.088326
-0.090948
-0.093591
-0.096264
-0.098941
-0.099894
-0.098194
-0.096489
-0.094867
-0.093255
-0.091657
-0.090094
-0.088542
-0.086992
-0.085450
-0.083915
-0.082383
-0.080850
-0.079305
-0.077748
-0.076173
-0.074572
-0.072981
-0.071362
-0.069739
-0.068102
-0.066457
-0.064796
-0.063121
-0.061451
-0.059751
-0.058043
-0.056329
-0.054614
-0.052893
-0.051168
-0.049440
-0.047709
-0.045973
-0.044233
-0.042491
-0.040744
-0.038996
-0.037245
-0.035491
-0.033737
-0.031979
-0.030222
-0.028464
-0.026717
-0.024945
-0.023152
-0.021289
-0.019333
-0.016732
-0.013929
-0.011011
-0.007938
-0.004804
-0.001857
0.000976
0.003133
0.005168
0.007142
0.009024
0.010825
0.012605
0.014326
0.016047
0.017768
0.019491
0.021213
0.022939
0.024663
0.026387
0.028113
0.029838
0.031562
0.033286
0.035010
0.036733
0.038456
0.040179
0.041902
0.018341
0.018774
0.019374
0.019949
0.020412
0.020756
0.021120
0.021521
0.021798
0.022198
0.022545
0.022835
0.023208
0.023582
0.024012
0.024425
0.024862
0.025276
0.025669
0.026019
0.026358
0.026664
0.027025
0.027371
0.027785
0.028238
0.028653
0.093853
-0.048072
-0.063811
0.106095
-0.055478
0.097515
0.009722
0.035573
-0.045315
-0.036599
-0.007888
-0.025912
0.090732
0.082005
0.071326
0.052155
0.120528
-0.074946
0.018666
0.026795
-0.027288
0.075730
0.119411
-0.073686
0.028990
0.014765
-0.087304
0.128215
0.062696
0.129686
-0.014152
0.034161
-0.089211
0.054891
0.009621
0.137726
0.114301
0.109201
-0.063451
0.039331
0.065973
0.043507
-0.020719
0.001542
-0.040318
0.021629
-0.082641
0.049694
-0.093768
0.137474
0.006153
-0.003704
0.078330
0.087077
0.031924
-0.041666
-0.032926
0.013507
-0.052054
-0.060530
0.088700
0.111067
0.083528
0.104092
-0.058334
0.022102
-0.071828
-0.022043
0.070516
-0.079561
0.125117
-0.083998
0.000601
0.042753
-0.097156
0.134492
0.063996
0.061481
0.076578
0.058901
0.074901
0.069567
0.048985
0.085330
0.041153
0.094114
0.039095
-0.018638
-0.016272
-0.039921
-0.031172
-0.013570
-0.029489
-0.024151
-0.004455
-0.048683
0.003942
0.006022
0.100981
0.109452
0.104400
-0.058855
-0.067047
0.030208
0.015235
0.098986
-0.053211
-0.045492
0.117450
-0.037723
-0.035122
-0.070240
0.080935
0.114305
-0.068566
0.023823
0.025077
0.019911
0.025546
0.018195
-0.078022
-0.032515
0.123590
-0.085751
-0.019416
0.067909
0.124535
-0.078825
0.013052
0.131335
-0.090508
0.030714
0.035885
-0.011511
0.060093
-0.008897
0.004386
-0.094478
0.047018
0.044315
0.141039
0.134866
0.142744
-0.057941
0.103482
-0.039133
-0.030451
-0.023384
-0.010622
0.004616
0.075859
0.068801
0.055569
0.084540
0.038489
-0.046335
-0.067534
0.024164
0.016111
0.081797
-0.030811
0.024714
0.015594
0.068789
-0.076743
0.122314
-0.020313
0.033315
0.060973
-0.084564
-0.009883
0.048643
0.106895
0.036761
0.003451
0.135758
0.072499
0.058612
0.063342
-0.027089
-0.013477
-0.017958
0.008639
0.068030
0.073316
0.055890
0.080384
0.083680
0.046431
0.089119
0.037321
-0.022618
-0.038270
-0.027901
-0.043704
-0.010788
-0.034976
-0.001511
0.007887
0.092389
-0.046966
0.095858
-0.050414
0.099327
0.034031
-0.053843
0.011340
0.102770
-0.057243
-0.062379
0.107817
-0.065482
0.112720
-0.068677
0.096413
-0.050633
0.091273
-0.042901
0.101534
-0.055767
0.028541
0.016905
0.115888
0.086111
0.106644
-0.060889
-0.035983
0.111750
-0.066005
-0.073393
0.020369
0.023359
0.118990
0.026434
0.078333
0.019017
-0.029903
0.116855
-0.071123
0.027264
0.016484
-0.076485
0.122056
-0.081097
-0.024669
0.073123
-0.084195
0.126658
-0.016785
0.065302
-0.076251
0.121969
-0.081406
0.127104
0.011337
0.032438
-0.086602
0.129766
-0.088897
0.007900
0.132903
0.037608
0.057491
-0.092122
-0.006293
0.136084
0.002535
0.052292
0.041054
-0.091836
0.045374
0.132271
-0.001331
-0.092748
-0.095433
0.139363
0.138380
0.140097
-0.048292
0.093728
-0.007942
0.099837
0.052758
0.027322
-0.059242
0.110090
-0.069437
0.120280
0.130179
-0.079704
0.008712
0.113172
0.089656
-0.084881
-0.089414
0.065324
0.034731
-0.019908
0.090190
0.086390
-0.044774
-0.040956
0.081106
0.077666
-0.035700
-0.032233
0.097084
-0.051614
0.031170
0.019526
-0.054067
0.022992
0.116159
0.020752
-0.070612
0.076608
0.071394
0.063577
0.125409
-0.081410
-0.078291
0.055767
0.040206
-0.086165
0.127014
0.123865
-0.004796
0.001627
0.133405
0.134062
0.066991
0.070458
-0.021563
0.052039
-0.025040
0.036825
-0.007439
0.001997
0.105192
0.082822
-0.037411
0.010620
0.014314
-0.059635
-0.062804
0.042775
0.045607
0.100151
0.101784
-0.054650
-0.056259
-0.049021
0.061227
0.074212
-0.065961
-0.015891
-0.028801
0.040648
0.110024
0.108463
0.006584
0.017801
0.025899
0.104955
0.084461
-0.038555
0.094801
-0.041266
0.022474
-0.069098
-0.064332
-0.028211
0.079201
0.119223
0.120762
-0.073658
-0.075201
0.013870
0.115177
0.028140
0.031595
-0.033398
0.017312
0.066187
-0.043805
-0.022932
-0.074559
-0.015072
-0.017697
-0.012457
-0.082970
0.058370
0.130563
0.035037
0.038483
0.050570
0.133154
-0.007331
0.047971
0.136693
0.005236
-0.000183
-0.091067
0.043651
-0.090107
0.016892
0.105884
-0.052709
0.033831
-0.029775
-0.038578
-0.019450
-0.041894
0.084005
0.075277
0.064658
-0.063382
0.023325
-0.029089
0.082668
0.116431
0.014718
-0.070859
0.069669
-0.016002
0.034201
0.061858
-0.078640
0.041083
0.004912
-0.005010
0.040392
-0.005817
0.068694
-0.023360
0.012969
0.102828
0.058566
-0.013319
0.025598
0.020369
-0.066337
0.077480
0.056649
0.010435
-0.081837
0.002568
0.048726
0.062903
0.037951
-0.017548
0.079453
0.088227
-0.034045
-0.042811
0.091966
-0.046541
-0.061249
0.071764
0.055386
-0.010609
0.095477
-0.050024
0.012359
-0.026349
0.032657
-0.064278
-0.003794
0.000134
-0.039419
-0.047183
-0.056580
0.080713
-0.035300
0.111617
-0.053041
0.009150
0.098523
0.107471
0.087004
0.092173
0.102346
0.029394
0.027664
0.114685
0.021248
0.099455
-0.025553
0.117706
-0.061786
-0.072135
0.012980
0.019888
-0.034263
0.073995
0.029854
-0.053962
-0.057120
0.112633
-0.066883
0.117985
0.121099
0.029017
-0.072404
-0.075503
-0.021212
-0.013404
0.018136
0.117728
-0.071998
-0.079848
0.064471
-0.051528
0.125435
0.037641
0.012156
-0.077128
0.122839
-0.010849
0.127981
0.128583
0.131457
0.053168
0.006979
-0.087775
0.131783
0.046249
-0.082286
0.132390
0.135033
0.041928
-0.001013
-0.002448
-0.088410
-0.087487
0.097305
0.042874
-0.050193
-0.015467
-0.005083
0.061036
-0.037935
-0.068098
0.017279
0.098155
0.113682
0.028181
-0.057553
0.108404
0.121152
-0.014349
-0.067747
0.062742
0.125871
0.092544
-0.075437
0.129777
-0.080592
0.052576
-0.047111
0.110418
0.012100
-0.001960
0.076463
-0.031393
-0.043648
-0.039756
0.089058
0.085179
0.087954
-0.069360
-0.023850
0.032453
0.072264
0.122682
0.009551
0.042803
-0.085785
0.002906
0.079292
-0.033895
0.015225
0.038224
-0.021910
0.066817
0.035790
-0.049191
0.094611
0.098187
-0.008579
0.104328
-0.051317
-0.060291
-0.058538
-0.061897
0.073318
-0.027997
0.069823
0.025006
0.028745
-0.024441
0.085213
-0.052376
-0.049677
0.060642
-0.015264
0.082265
-0.036855
0.045620
0.018646
0.114888
0.107417
0.007177
0.103257
0.032221
-0.067838
-0.064849
0.093029
-0.026503
-0.055471
0.030719
0.074882
0.021609
0.080048
-0.060112
0.023893
0.022087
0.100968
0.011013
0.119535
0.110953
-0.031676
0.111901
-0.036835
-0.073945
-0.077068
0.016440
0.011271
0.031597
-0.070307
0.116043
0.035914
0.067069
0.126287
-0.018606
0.059250
-0.011805
0.039357
-0.062650
0.007817
0.004341
0.128868
0.129111
0.130742
0.051447
0.054050
0.044526
0.048847
-0.080237
-0.008326
-0.083466
-0.086740
-0.044645
-0.003425
0.000769
0.103272
0.090663
-0.031594
-0.024660
0.011440
-0.004844
0.077009
0.070198
0.086072
-0.055903
0.106740
-0.066069
-0.024807
-0.012750
-0.074329
0.038509
-0.058009
0.006956
0.019443
0.075765
0.095660
0.082002
-0.036569
0.041960
0.057535
0.052327
-0.079158
-0.084103
-0.045483
0.058768
0.045365
0.066281
0.062304
-0.021053
-0.017099
-0.013429
0.100369
0.040123
0.007508
0.112198
0.013837
0.073088
0.070549
0.116795
0.065342
0.045404
0.001699
-0.004338
-0.040437
-0.060746
-0.063639
-0.066606
0.055292
0.049841
-0.056385
0.035880
0.031786
-0.010927
0.086845
-0.041432
-0.048379
-0.045271
-0.045281
0.090699
0.096878
0.030550
0.026908
0.078504
-0.033081
-0.002003
-0.035411
-0.032541
0.021198
-0.048196
0.018961
0.022497
0.024741
-0.054983
-0.051563
0.015094
0.108936
0.105844
-0.022117
0.100710
0.015572
0.095537
0.033289
0.096976
0.115243
0.080920
-0.054573
-0.071186
-0.069641
0.026448
0.124269
-0.065191
0.113496
0.029890
0.010398
0.060136
0.119953
-0.019513
-0.016918
-0.029969
0.113373
-0.058429
-0.072866
0.123714
-0.075925
0.118593
0.035070
0.006090
0.127186
0.126467
0.127486
-0.009289
-0.078013
-0.001849
0.128115
0.049725
0.047125
-0.083179
-0.085093
0.090476
-0.027533
0.000743
0.077517
-0.032109
0.021966
-0.046443
0.093222
-0.014793
-0.029843
0.058413
0.075073
-0.036252
0.016442
0.030750
-0.063890
-0.054223
0.109444
0.009530
0.063627
0.114358
-0.071631
-0.044025
0.035889
-0.073747
0.053066
0.027881
-0.039859
-0.043533
0.085269
0.088875
0.091918
-0.030839
-0.023026
0.024304
0.091331
0.106205
0.096465
-0.066903
0.112525
-0.063539
0.058422
0.003465
0.119467
0.124605
-0.082439
-0.007307
-0.029969
0.075307
0.030247
0.064435
0.068439
-0.018844
0.017735
-0.022848
-0.037728
0.083139
0.034031
0.101742
0.093658
0.042677
0.000617
0.035778
0.009608
-0.002140
-0.013071
0.022875
0.080158
0.020826
-0.034737
-0.047875
-0.046630
0.088605
0.109189
-0.065134
0.110673
0.104192
0.046891
0.013420
0.012978
0.104738
0.071495
0.099062
0.027398
-0.053023
-0.062137
-0.060963
0.073141
0.008692
0.121575
0.124833
-0.017843
0.067933
0.032474
-0.072754
-0.053357
-0.050745
0.083468
0.040227
0.098426
-0.015283
0.005211
0.118372
-0.027383
-0.077533
-0.010236
0.036789
0.054928
-0.076323
-0.081495
0.050607
0.109272
-0.080793
-0.068617
0.123852
0.125515
0.043681
-0.002695
-0.000083
0.048005
-0.006790
0.078338
-0.042969
-0.059308
-0.025940
-0.029425
0.005785
-0.009153
0.074316
0.057042
-0.041745
0.087158
0.046935
0.067740
0.100592
-0.044684
0.085237
0.012031
-0.012492
0.001222
0.089407
0.033305
0.076632
0.102534
-0.055660
-0.016214
0.117305
-0.064377
0.041108
-0.039823
-0.034565
0.079977
0.004362
0.122204
-0.072067
-0.074870
-0.025363
0.071086
0.031099
0.097780
0.067992
0.064094
0.060832
0.088437
0.091765
0.025714
-0.041521
-0.022600
-0.058145
-0.025589
-0.070033
0.071427
0.066219
-0.011167
0.053209
-0.005229
0.084337
-0.028350
0.073798
-0.018672
-0.004133
0.056430
0.042555
0.037372
0.019901
0.016896
-0.043361
0.033397
-0.044883
0.003495
0.000205
0.026082
0.023705
-0.011076
0.003204
0.077747
-0.033405
0.018220
-0.032424
0.028160
-0.038762
0.021872
-0.049173
-0.046525
-0.060962
0.106478
0.049758
-0.028286
0.014736
0.101606
0.034150
0.102026
-0.049199
0.093842
-0.065368
0.094476
-0.068457
0.110969
-0.059314
-0.056744
-0.052084
0.028940
-0.020412
0.011276
0.107666
0.111811
-0.030959
0.076391
0.042835
0.048886
-0.062408
0.061019
0.002594
-0.000939
-0.071170
-0.073244
0.055821
0.122028
0.123199
0.007831
0.015902
0.114101
-0.007735
0.116912
0.121273
-0.079820
0.044561
0.037644
0.122935
0.046284
-0.078901
0.079217
-0.078148
0.105052
0.107934
-0.051714
0.007664
0.055074
0.044862
-0.038148
0.083561
0.028565
0.066115
-0.016235
0.022581
0.097881
-0.036015
0.081439
-0.026204
0.058221
0.071846
0.046733
-0.039595
0.015719
-0.058357
-0.029341
-0.050044
0.077508
0.105238
-0.064211
0.100847
0.064505
0.008701
0.038446
-0.068978
0.077247
-0.031825
0.043711
0.001722
0.109842
0.056711
0.112673
0.119607
0.105030
-0.055107
-0.069496
0.120564
0.051487
0.047169
-0.075556
0.051994
-0.014052
0.080901
-0.035495
0.062439
0.019122
0.064011
-0.020472
-0.053554
-0.041270
0.090092
0.099125
-0.041904
0.003793
0.039904
-0.043199
0.009576
0.069422
0.086921
0.020054
0.025630
0.023509
0.094684
-0.032232
-0.059594
-0.042337
0.091895
-0.008543
-0.010562
0.103461
0.012148
-0.045003
-0.023852
-0.056735
-0.026479
0.097365
-0.045700
0.056096
0.099956
0.073084
-0.027619
0.090860
-0.027104
0.031356
0.027448
-0.061184
0.041632
0.006125
-0.065784
-0.021319
0.106759
-0.050597
0.074037
0.115691
0.095877
0.068802
-0.066927
0.118930
-0.018758
0.120344
0.061912
0.039368
-0.070601
-0.013679
-0.003548
-0.074636
0.005270
0.115235
0.035002
0.000845
0.072262
0.014052
-0.061850
-0.006126
-0.008654
-0.077226
-0.076510
0.107578
0.081761
0.024364
0.086867
0.075724
-0.030300
0.005201
0.033757
-0.034575
0.066284
-0.006061
-0.001500
0.082020
-0.036611
0.061534
0.018695
0.026859
-0.017283
0.032985
-0.020193
0.025001
-0.042208
-0.029790
-0.020497
0.075210
-0.012037
0.004062
0.055780
-0.038230
0.034002
-0.027389
0.102548
-0.061596
0.062791
-0.017132
0.025374
-0.066360
-0.062688
-0.067827
0.087676
-0.006596
0.111006
0.010049
-0.037547
0.080209
-0.034802
0.095330
0.014380
0.100873
0.068826
0.072310
-0.009553
0.041953
0.067086
0.006440
0.113042
0.049769
-0.004404
-0.073891
-0.072974
0.018199
0.103741
-0.018052
0.022981
-0.040898
0.030677
0.096495
0.078466
-0.033074
-0.040506
0.084546
0.086555
0.029192
0.037069
0.066284
-0.030478
-0.023248
0.089717
0.017474
-0.055634
-0.053347
-0.051022
-0.024782
0.090849
0.099322
-0.040914
0.013956
0.070239
0.036681
0.098299
0.044071
0.003531
0.074393
-0.028928
-0.010219
0.093179
-0.059766
-0.046851
0.092013
0.040205
-0.052547
-0.001477
0.010446
0.082957
0.074911
0.111431
-0.049599
0.117960
-0.000017
-0.023884
0.110118
-0.062696
-0.014607
0.054090
-0.072237
0.045429
0.108280
-0.001791
0.006983
0.118703
-0.067357
0.035819
0.082631
0.080049
0.059308
0.039325
0.114675
-0.057632
0.117783
0.103358
0.053834
-0.056948
0.035152
-0.037080
-0.047541
0.064762
0.061775
0.026283
0.049346
0.021168
-0.015454
0.059515
0.021043
0.031670
0.063397
-0.055125
0.016727
-0.039231
0.093703
-0.038664
0.080865
-0.024182
-0.009923
0.064270
0.069806
0.041565
-0.036879
0.015064
-0.053227
0.088495
0.078334
0.036503
0.099150
-0.050926
0.107205
0.007884
-0.015521
0.040983
0.002685
-0.035486
-0.048514
-0.028310
0.034748
0.049395
0.029724
0.096986
0.101065
-0.035752
-0.055752
0.028824
0.031529
0.065370
0.062030
0.044524
0.057603
0.110426
0.073163
0.108447
-0.064742
0.052366
0.116143
0.057353
0.021190
0.075858
-0.030455
-0.007678
0.088197
0.012282
0.032030
0.019549
0.071155
0.073762
-0.025699
-0.028327
-0.021504
0.005690
-0.054461
-0.022644
-0.033084
0.011388
0.066996
0.078236
-0.032833
-0.043372
-0.058608
0.000906
-0.002652
0.037026
0.001555
0.095680
-0.060071
0.053881
-0.003813
0.027195
0.105894
-0.063170
0.069666
-0.048189
-0.045877
-0.039157
0.116316
-0.071308
0.007603
-0.065239
-0.006985
0.113551
-0.019657
0.093327
-0.024781
0.115387
-0.070378
0.060197
-0.060154
0.104085
0.117041
0.048046
-0.012082
0.006172
0.037508
-0.067993
-0.053430
0.026738
0.016342
0.067439
0.085157
0.102303
-0.043394
0.047046
-0.013362
-0.016200
0.024111
0.060607
0.021147
0.023335
0.028279
-0.052745
-0.018843
-0.038945
0.085181
0.023082
-0.021175
0.006368
0.055379
0.046755
0.068180
0.034362
0.098410
-0.011334
-0.049257
-0.056034
-0.060580
0.005383
0.063669
0.012672
0.000073
0.106780
0.085869
-0.004432
-0.063548
-0.010452
-0.018542
-0.030483
0.008384
0.016983
0.060069
-0.063772
-0.018035
-0.005249
-0.068742
0.050641
0.113732
0.058497
0.099620
-0.041709
0.027295
0.016838
-0.034886
0.092732
0.083303
0.018642
0.090662
0.034683
0.065577
-0.050879
-0.022700
0.039294
-0.037106
-0.037425
0.095578
-0.040014
0.013294
0.052011
0.072491
-0.027036
0.039217
0.000806
-0.054427
0.062833
0.032971
0.058756
0.094043
0.053633
0.044037
0.068332
-0.044523
-0.008329
-0.048347
0.009655
0.042763
0.111918
0.108823
0.075746
-0.027827
-0.057150
-0.033825
0.079383
0.073255
0.070541
0.112066
0.054987
-0.022197
0.046293
-0.021290
-0.069647
-0.000869
0.089547
0.067925
0.004451
0.029616
-0.047154
-0.012989
0.112829
0.099888
0.098231
-0.058489
-0.055945
0.080910
0.038300
0.018961
0.020611
0.114483
0.105631
0.101662
-0.057498
0.096643
0.028492
-0.014461
-0.039292
0.085994
-0.025687
0.029498
-0.050236
-0.052017
0.023189
0.022037
0.026097
0.082813
-0.015985
0.076919
-0.031503
0.021623
-0.035327
0.078770
-0.008009
-0.019700
0.062354
0.053311
-0.035761
0.079209
0.095774
0.037105
0.089840
0.097455
-0.053536
0.104612
-0.016409
0.092451
-0.033415
-0.050681
-0.046046
0.043614
0.029165
0.049178
-0.011355
0.059926
0.040969
0.035998
0.001899
0.088666
-0.046767
0.053226
0.110290
0.107868
0.111191
0.074015
-0.003496
-0.067091
-0.054296
0.018924
0.012664
0.026400
0.075203
-0.029790
-0.006775
0.065222
0.066760
0.009698
-0.019956
0.084571
0.094189
0.096948
0.014574
0.051583
0.032154
0.056951
0.015183
0.086880
-0.036806
0.044229
0.010732
0.007128
0.003669
0.003392
0.087259
-0.053269
0.069436
0.071920
-0.026475
-0.054639
-0.023975
-0.030849
0.076280
-0.044182
-0.041144
-0.007872
-0.001175
0.055900
-0.066082
0.047141
-0.059019
-0.045831
-0.001664
-0.065396
0.048923
0.104201
0.071412
0.066229
0.008241
0.032577
-0.023108
-0.020534
-0.051763
0.109336
-0.048422
0.029044
0.061071
0.083430
-0.062153
0.039987
0.101434
0.038955
0.092420
-0.060999
0.090757
-0.036766
0.025654
-0.016886
-0.037720
-0.026870
-0.019739
-0.014384
-0.012654
0.024835
0.022184
0.019061
0.080865
0.074698
-0.029279
-0.032641
0.078772
-0.034387
-0.027868
0.006627
0.064111
0.042007
0.012478
-0.033758
0.039529
0.085547
0.072254
0.064527
-0.047650
0.004674
-0.018233
0.032270
-0.058026
0.029591
0.083623
0.087005
-0.003781
0.010840
0.054728
-0.034792
0.047402
0.066669
-0.012137
-0.000712
-0.004279
-0.059328
-0.061241
0.056773
0.049764
0.108650
0.102595
0.094334
0.090432
-0.064566
0.025178
0.081723
-0.009447
-0.016904
-0.025925
0.024415
0.071369
0.073276
0.012639
0.017071
-0.006393
0.063880
-0.018298
0.090397
0.038207
0.003358
-0.034583
0.035032
0.061011
-0.001277
0.030896
-0.008831
0.070743
-0.025276
0.010122
-0.021001
0.041712
-0.049671
-0.015358
0.085080
-0.050715
-0.042685
-0.040117
0.081207
0.008936
-0.042238
-0.044732
0.057935
-0.054953
0.045311
-0.051950
0.109538
0.051651
0.099984
0.103038
0.076599
-0.031963
0.095561
0.030796
-0.021416
-0.024064
0.077367
-0.050134
0.068819
-0.013876
-0.037928
0.061955
0.084257
0.054120
0.090049
-0.056808
0.097293
-0.018923
0.040754
-0.006085
0.002922
0.051500
0.107753
0.094943
0.016589
0.106221
-0.052115
0.010538
0.088234
0.019921
-0.028978
0.027461
-0.047257
0.020775
0.023192
-0.033871
0.022588
-0.007635
0.000256
0.051543
0.009951
-0.048257
0.084211
0.091736
-0.046024
0.095783
-0.022316
0.002244
-0.043611
-0.035261
0.062808
-0.014758
0.102018
0.019410
0.037269
0.081470
0.060521
0.055821
0.006816
0.016449
0.078930
-0.031430
0.077641
0.028814
0.044318
-0.046301
-0.055156
-0.038624
0.047956
0.106109
0.092971
-0.051008
0.067083
0.006462
0.062334
-0.015364
-0.013092
0.088781
0.058520
-0.016732
-0.031519
0.015119
0.013047
-0.003766
0.034628
0.039308
-0.032926
0.044593
0.065381
0.013899
0.030530
-0.018173
-0.048200
-0.022323
-0.024486
0.067820
0.069951
0.042439