# vtk DataFile Version 2.0
Test
ASCII
DATASET POLYDATA
POINTS 5510 float
0.000000 0.000000 0.000000
0.080000 0.000000 0.000000
0.080000 0.160000 0.000000
0.000000 0.160000 0.000000
0.035000 0.076250 0.000000
0.046500 0.083750 0.000000
0.002000 0.000000 0.000000
0.004000 0.000000 0.000000
0.006000 0.000000 0.000000
0.008000 0.000000 0.000000
0.010000 0.000000 0.000000
0.012000 0.000000 0.000000
0.014000 0.000000 0.000000
0.016000 0.000000 0.000000
0.018000 0.000000 0.000000
0.020000 0.000000 0.000000
0.022000 0.000000 0.000000
0.024000 0.000000 0.000000
0.026000 0.000000 0.000000
0.028000 0.000000 0.000000
0.030000 0.000000 0.000000
0.032000 0.000000 0.000000
0.034000 0.000000 0.000000
0.036000 0.000000 0.000000
0.038000 0.000000 0.000000
0.040000 0.000000 0.000000
0.042000 0.000000 0.000000
0.044000 0.000000 0.000000
0.046000 0.000000 0.000000
0.048000 0.000000 0.000000
0.050000 0.000000 0.000000
0.052000 0.000000 0.000000
0.054000 0.000000 0.000000
0.056000 0.000000 0.000000
0.058000 0.000000 0.000000
0.060000 0.000000 0.000000
0.062000 0.000000 0.000000
0.064000 0.000000 0.000000
0.066000 0.000000 0.000000
0.068000 0.000000 0.000000
0.070000 0.000000 0.000000
0.072000 0.000000 0.000000
0.074000 0.000000 0.000000
0.076000 0.000000 0.000000
0.078000 0.000000 0.000000
0.080000 0.002000 0.000000
0.080000 0.004000 0.000000
0.080000 0.006000 0.000000
0.080000 0.008000 0.000000
0.080000 0.010000 0.000000
0.080000 0.012000 0.000000
0.080000 0.014000 0.000000
0.080000 0.016000 0.000000
0.080000 0.018000 0.000000
0.080000 0.020000 0.000000
0.080000 0.022000 0.000000
0.080000 0.024000 0.000000
0.080000 0.026000 0.000000
0.080000 0.028000 0.000000
0.080000 0.030000 0.000000
0.080000 0.032000 0.000000
0.080000 0.034000 0.000000
0.080000 0.036000 0.000000
0.080000 0.038000 0.000000
0.080000 0.040000 0.000000
0.080000 0.042000 0.000000
0.080000 0.044000 0.000000
0.080000 0.046000 0.000000
0.080000 0.048000 0.000000
0.080000 0.050000 0.000000
0.080000 0.052000 0.000000
0.080000 0.054000 0.000000
0.080000 0.056000 0.000000
0.080000 0.058000 0.000000
0.080000 0.060000 0.000000
0.080000 0.062000 0.000000
0.080000 0.064000 0.000000
0.080000 0.066000 0.000000
0.080000 0.068000 0.000000
0.080000 0.070000 0.000000
0.080000 0.072000 0.000000
0.080000 0.074000 0.000000
0.080000 0.076000 0.000000
0.080000 0.078000 0.000000
0.080000 0.080000 0.000000
0.080000 0.082000 0.000000
0.080000 0.084000 0.000000
0.080000 0.086000 0.000000
0.080000 0.088000 0.000000
0.080000 0.090000 0.000000
0.080000 0.092000 0.000000
0.080000 0.094000 0.000000
0.080000 0.096000 0.000000
0.080000 0.098000 0.000000
0.080000 0.100000 0.000000
0.080000 0.102000 0.000000
0.080000 0.104000 0.000000
0.080000 0.106000 0.000000
0.080000 0.108000 0.000000
0.080000 0.110000 0.000000
0.080000 0.112000 0.000000
0.080000 0.114000 0.000000
0.080000 0.116000 0.000000
0.080000 0.118000 0.000000
0.080000 0.120000 0.000000
0.080000 0.122000 0.000000
0.080000 0.124000 0.000000
0.080000 0.126000 0.000000
0.080000 0.128000 0.000000
0.080000 0.130000 0.000000
0.080000 0.132000 0.000000
0.080000 0.134000 0.000000
0.080000 0.136000 0.000000
0.080000 0.138000 0.000000
0.080000 0.140000 0.000000
0.080000 0.142000 0.000000
0.080000 0.144000 0.000000
0.080000 0.146000 0.000000
0.080000 0.148000 0.000000
0.080000 0.150000 0.000000
0.080000 0.152000 0.000000
0.080000 0.154000 0.000000
0.080000 0.156000 0.000000
0.080000 0.158000 0.000000
0.078000 0.160000 0.000000
0.076000 0.160000 0.000000
0.074000 0.160000 0.000000
0.072000 0.160000 0.000000
0.070000 0.160000 0.000000
0.068000 0.160000 0.000000
0.066000 0.160000 0.000000
0.064000 0.160000 0.000000
0.062000 0.160000 0.000000
0.060000 0.160000 0.000000
0.058000 0.160000 0.000000
0.056000 0.160000 0.000000
0.054000 0.160000 0.000000
0.052000 0.160000 0.000000
0.050000 0.160000 0.000000
0.048000 0.160000 0.000000
0.046000 0.160000 0.000000
0.044000 0.160000 0.000000
0.042000 0.160000 0.000000
0.040000 0.160000 0.000000
0.038000 0.160000 0.000000
0.036000 0.160000 0.000000
0.034000 0.160000 0.000000
0.032000 0.160000 0.000000
0.030000 0.160000 0.000000
0.028000 0.160000 0.000000
0.026000 0.160000 0.000000
0.024000 0.160000 0.000000
0.022000 0.160000 0.000000
0.020000 0.160000 0.000000
0.018000 0.160000 0.000000
0.016000 0.160000 0.000000
0.014000 0.160000 0.000000
0.012000 0.160000 0.000000
0.010000 0.160000 0.000000
0.008000 0.160000 0.000000
0.006000 0.160000 0.000000
0.004000 0.160000 0.000000
0.002000 0.160000 0.000000
0.000000 0.158000 0.000000
0.000000 0.156000 0.000000
0.000000 0.154000 0.000000
0.000000 0.152000 0.000000
0.000000 0.150000 0.000000
0.000000 0.148000 0.000000
0.000000 0.146000 0.000000
0.000000 0.144000 0.000000
0.000000 0.142000 0.000000
0.000000 0.140000 0.000000
0.000000 0.138000 0.000000
0.000000 0.136000 0.000000
0.000000 0.134000 0.000000
0.000000 0.132000 0.000000
0.000000 0.130000 0.000000
0.000000 0.128000 0.000000
0.000000 0.126000 0.000000
0.000000 0.124000 0.000000
0.000000 0.122000 0.000000
0.000000 0.120000 0.000000
0.000000 0.118000 0.000000
0.000000 0.116000 0.000000
0.000000 0.114000 0.000000
0.000000 0.112000 0.000000
0.000000 0.110000 0.000000
0.000000 0.108000 0.000000
0.000000 0.106000 0.000000
0.000000 0.104000 0.000000
0.000000 0.102000 0.000000
0.000000 0.100000 0.000000
0.000000 0.098000 0.000000
0.000000 0.096000 0.000000
0.000000 0.094000 0.000000
0.000000 0.092000 0.000000
0.000000 0.090000 0.000000
0.000000 0.088000 0.000000
0.000000 0.086000 0.000000
0.000000 0.084000 0.000000
0.000000 0.082000 0.000000
0.000000 0.080000 0.000000
0.000000 0.078000 0.000000
0.000000 0.076000 0.000000
0.000000 0.074000 0.000000
0.000000 0.072000 0.000000
0.000000 0.070000 0.000000
0.000000 0.068000 0.000000
0.000000 0.066000 0.000000
0.000000 0.064000 0.000000
0.000000 0.062000 0.000000
0.000000 0.060000 0.000000
0.000000 0.058000 0.000000
0.000000 0.056000 0.000000
0.000000 0.054000 0.000000
0.000000 0.052000 0.000000
0.000000 0.050000 0.000000
0.000000 0.048000 0.000000
0.000000 0.046000 0.000000
0.000000 0.044000 0.000000
0.000000 0.042000 0.000000
0.000000 0.040000 0.000000
0.000000 0.038000 0.000000
0.000000 0.036000 0.000000
0.000000 0.034000 0.000000
0.000000 0.032000 0.000000
0.000000 0.030000 0.000000
0.000000 0.028000 0.000000
0.000000 0.026000 0.000000
0.000000 0.024000 0.000000
0.000000 0.022000 0.000000
0.000000 0.020000 0.000000
0.000000 0.018000 0.000000
0.000000 0.016000 0.000000
0.000000 0.014000 0.000000
0.000000 0.012000 0.000000
0.000000 0.010000 0.000000
0.000000 0.008000 0.000000
0.000000 0.006000 0.000000
0.000000 0.004000 0.000000
0.000000 0.002000 0.000000
0.035411 0.076518 0.000000
0.035821 0.076786 0.000000
0.036232 0.077054 0.000000
0.036643 0.077321 0.000000
0.037054 0.077589 0.000000
0.037464 0.077857 0.000000
0.037875 0.078125 0.000000
0.038286 0.078393 0.000000
0.038696 0.078661 0.000000
0.039107 0.078929 0.000000
0.039518 0.079196 0.000000
0.039929 0.079464 0.000000
0.040339 0.079732 0.000000
0.040750 0.080000 0.000000
0.041161 0.080268 0.000000
0.041571 0.080536 0.000000
0.041982 0.080804 0.000000
0.042393 0.081071 0.000000
0.042804 0.081339 0.000000
0.043214 0.081607 0.000000
0.043625 0.081875 0.000000
0.044036 0.082143 0.000000
0.044446 0.082411 0.000000
0.044857 0.082679 0.000000
0.045268 0.082946 0.000000
0.045679 0.083214 0.000000
0.046089 0.083482 0.000000
0.040000 0.002000 0.000000
0.040001 0.158005 0.000000
0.002000 0.116000 0.000000
0.078000 0.048000 0.000000
0.002000 0.106000 0.000000
0.078000 0.058000 0.000000
0.001986 0.042173 0.000000
0.078015 0.117826 0.000000
0.001985 0.094174 0.000000
0.001985 0.084174 0.000000
0.001914 0.056074 0.000000
0.002000 0.072000 0.000000
0.078015 0.065826 0.000000
0.078016 0.075826 0.000000
0.078000 0.088000 0.000000
0.078000 0.104000 0.000000
0.078003 0.029997 0.000000
0.001998 0.130002 0.000000
0.002000 0.032000 0.000000
0.078013 0.128003 0.000000
0.056000 0.158000 0.000000
0.026000 0.002000 0.000000
0.060000 0.002000 0.000000
0.020000 0.158000 0.000000
0.002000 0.020000 0.000000
0.078000 0.142000 0.000000
0.002000 0.146000 0.000000
0.078000 0.020000 0.000000
0.016000 0.002000 0.000000
0.068000 0.002000 0.000000
0.066000 0.158000 0.000000
0.002000 0.014000 0.000000
0.008000 0.158000 0.000000
0.010000 0.002000 0.000000
0.078000 0.148000 0.000000
0.078000 0.008000 0.000000
0.078005 0.037995 0.000000
0.051991 0.001990 0.000000
0.028000 0.158000 0.000000
0.002000 0.008000 0.000000
0.078000 0.094000 0.000000
0.078000 0.110000 0.000000
0.001983 0.066159 0.000000
0.002000 0.050000 0.000000
0.046000 0.158000 0.000000
0.078000 0.134000 0.000000
0.002000 0.140000 0.000000
0.006000 0.002000 0.000000
0.002000 0.154000 0.000000
0.074000 0.002000 0.000000
0.078000 0.152000 0.000000
0.074000 0.158000 0.000000
0.078000 0.080000 0.000000
0.078000 0.070000 0.000000
0.078000 0.122000 0.000000
0.002000 0.090000 0.000000
0.002000 0.080000 0.000000
0.002000 0.038000 0.000000
0.002000 0.102000 0.000000
0.002000 0.112000 0.000000
0.036000 0.002000 0.000000
0.078000 0.042000 0.000000
0.032000 0.002000 0.000000
0.047987 0.001989 0.000000
0.032008 0.158010 0.000000
0.002000 0.028000 0.000000
0.002000 0.126000 0.000000
0.060000 0.158000 0.000000
0.022000 0.002000 0.000000
0.002000 0.136000 0.000000
0.078000 0.024000 0.000000
0.012000 0.158000 0.000000
0.078000 0.158000 0.000000
0.001947 0.003947 0.000000
0.002000 0.158000 0.000000
0.078000 0.012000 0.000000
0.078000 0.096000 0.000000
0.078000 0.098000 0.000000
0.078000 0.082000 0.000000
0.078111 0.099889 0.000000
0.078035 0.083965 0.000000
0.078000 0.090000 0.000000
0.078000 0.106000 0.000000
0.078000 0.072000 0.000000
0.078000 0.112000 0.000000
0.078043 0.061976 0.000000
0.078000 0.114000 0.000000
0.002000 0.064000 0.000000
0.002000 0.062000 0.000000
0.002000 0.088000 0.000000
0.002000 0.078000 0.000000
0.002000 0.060000 0.000000
0.001966 0.076034 0.000000
0.002000 0.070000 0.000000
0.002000 0.054000 0.000000
0.001957 0.098024 0.000000
0.002000 0.048000 0.000000
0.002000 0.046000 0.000000
[...]
POINT_DATA 5510
SCALARS UX float 1
LOOKUP_TABLE default
-0.002222
0.000115
0.000000
-0.002288
-0.001295
-0.000842
-0.002163
-0.002105
-0.002046
-0.001987
-0.001928
-0.001870
-0.001811
-0.001752
-0.001694
-0.001636
-0.001577
-0.001519
-0.001461
-0.001402
-0.001344
-0.001286
-0.001228
-0.001170
-0.001112
-0.001054
-0.000996
-0.000937
-0.000879
-0.000821
-0.000763
-0.000705
-0.000646
-0.000588
-0.000530
-0.000471
-0.000413
-0.000354
-0.000296
-0.000237
-0.000179
-0.000120
-0.000061
-0.000002
0.000056
0.000115
0.000115
0.000115
0.000115
0.000115
0.000115
0.000115
0.000115
0.000115
0.000115
0.000115
0.000116
0.000116
0.000116
0.000116
0.000117
0.000117
0.000118
0.000119
0.000120
0.000122
0.000123
0.000125
0.000127
0.000129
0.000131
0.000134
0.000137
0.000139
0.000142
0.000145
0.000148
0.000150
0.000152
0.000154
0.000155
0.000154
0.000153
0.000151
0.000148
0.000144
0.000139
0.000132
0.000126
0.000119
0.000112
0.000104
0.000097
0.000091
0.000085
0.000079
0.000074
0.000069
0.000066
0.000062
0.000060
0.000057
0.000055
0.000053
0.000052
0.000051
0.000050
0.000050
0.000049
0.000049
0.000049
0.000049
0.000048
0.000048
0.000049
0.000049
0.000049
0.000049
0.000049
0.000050
0.000050
0.000051
0.000050
0.000041
-0.000000
-0.000062
-0.000123
-0.000183
-0.000242
-0.000301
-0.000360
-0.000419
-0.000477
-0.000536
-0.000594
-0.000653
-0.000711
-0.000770
-0.000828
-0.000886
-0.000944
-0.001002
-0.001060
-0.001119
-0.001177
-0.001235
-0.001293
-0.001351
-0.001410
-0.001468
-0.001526
-0.001584
-0.001643
-0.001701
-0.001760
-0.001818
-0.001877
-0.001936
-0.001994
-0.002053
-0.002112
-0.002171
-0.002229
-0.002288
-0.002288
-0.002288
-0.002288
-0.002288
-0.002288
-0.002288
-0.002288
-0.002289
-0.002289
-0.002289
-0.002289
-0.002289
-0.002290
-0.002290
-0.002291
-0.002292
-0.002292
-0.002293
-0.002294
-0.002296
-0.002297
-0.002299
-0.002301
-0.002303
-0.002305
-0.002308
-0.002310
-0.002313
-0.002315
-0.002318
-0.002320
-0.002322
-0.002324
-0.002325
-0.002326
-0.002325
-0.002324
-0.002322
-0.002318
-0.002315
-0.002310
-0.002304
-0.002298
-0.002291
-0.002285
-0.002278
-0.002272
-0.002265
-0.002259
-0.002254
-0.002249
-0.002245
-0.002241
-0.002238
-0.002234
-0.002232
-0.002230
-0.002228
-0.002227
-0.002226
-0.002225
-0.002224
-0.002223
-0.002223
-0.002223
-0.002222
-0.002222
-0.002222
-0.002222
-0.002222
-0.002222
-0.002222
-0.002222
-0.002222
-0.002222
-0.002222
-0.002222
-0.002222
-0.001276
-0.001259
-0.001235
-0.001211
-0.001192
-0.001179
-0.001164
-0.001147
-0.001136
-0.001120
-0.001106
-0.001095
-0.001081
-0.001066
-0.001048
-0.001030
-0.001014
-0.000996
-0.000981
-0.000971
-0.000958
-0.000947
-0.000932
-0.000919
-0.000903
-0.000884
-0.000866
-0.001054
-0.001119
-0.002238
0.000067
-0.002249
0.000081
-0.002169
-0.000006
-0.002264
-0.002267
-0.002192
-0.002239
0.000092
0.000096
0.000067
0.000014
0.000057
-0.002231
-0.002164
-0.000010
-0.000653
-0.001461
-0.000471
-0.001701
-0.002163
-0.000010
-0.002230
0.000056
-0.001752
-0.000237
-0.000360
-0.002163
-0.002053
-0.001928
-0.000010
0.000056
0.000060
-0.000705
-0.001468
-0.002163
0.000045
0.000002
-0.002220
-0.002178
-0.000944
-0.000011
-0.002230
-0.002046
-0.002229
-0.000061
-0.000009
-0.000124
0.000090
0.000096
-0.000008
-0.002267
-0.002261
-0.002166
-0.002254
-0.002242
-0.001170
0.000062
-0.001286
-0.000822
-0.001351
-0.002163
-0.002232
-0.000536
-0.001577
-0.002230
0.000056
-0.001936
-0.000012
-0.002165
-0.002229
0.000056
0.000038
0.000031
0.000086
0.000029
0.000082
0.000060
0.000010
0.000097
-0.000000
0.000088
-0.000003
-0.002212
-0.002206
-0.002268
-0.002257
-0.002200
-0.002253
-0.002233
-0.002185
-0.002261
-0.002175
-0.002172
0.000075
0.000064
0.000070
-0.002244
-0.002235
-0.000009
-0.002165
-0.000937
-0.001235
-0.001060
0.000059
-0.000886
-0.000828
-0.002233
-0.001344
-0.000588
-0.001584
-0.002163
-0.000010
-0.000011
-0.002163
-0.000011
-0.002230
-0.000770
0.000057
-0.002230
-0.000477
-0.001636
-0.000354
-0.001818
-0.000010
0.000056
-0.002229
-0.002163
-0.002163
-0.000301
-0.001811
-0.000242
-0.000009
-0.002171
-0.002110
-0.002176
0.000056
-0.000120
0.000056
-0.002185
0.000010
-0.002212
-0.002207
-0.002183
-0.002143
-0.002120
0.000037
0.000011
-0.000024
0.000041
-0.000057
-0.001118
-0.002175
-0.000069
-0.002109
-0.001286
-0.000770
-0.002104
-0.000069
-0.001577
-0.002171
-0.000002
-0.000536
-0.002104
-0.001752
-0.002171
-0.000302
-0.000043
0.000010
-0.002104
-0.000068
-0.000061
0.000028
-0.000027
-0.000012
-0.002199
-0.002148
-0.002162
-0.002116
0.000055
0.000077
0.000022
0.000096
0.000098
0.000008
0.000096
-0.000003
-0.002228
-0.002269
-0.002248
-0.002267
-0.002196
-0.002266
-0.002182
-0.002172
0.000091
-0.002263
0.000085
-0.002258
0.000079
-0.000006
-0.002252
-0.002169
0.000073
-0.002247
-0.002241
0.000066
-0.002237
0.000062
-0.002235
-0.000996
-0.001176
-0.001112
-0.001002
-0.000880
-0.001293
-0.000009
-0.002165
0.000059
-0.001228
-0.000763
-0.001409
-0.000886
-0.000647
-0.001526
-0.002232
-0.002164
-0.000010
0.000058
-0.002104
-0.001402
-0.000070
-0.000711
-0.000530
-0.001643
-0.002163
-0.000010
-0.002231
0.000057
-0.002230
-0.000594
-0.001519
-0.002230
0.000056
-0.000419
-0.001694
-0.001760
-0.000413
-0.001877
-0.000296
-0.000010
-0.002163
-0.001994
0.000056
-0.002230
-0.000010
0.000056
-0.002163
-0.001870
-0.002229
-0.000183
0.000056
-0.000009
-0.001987
-0.002163
-0.002112
-0.002105
-0.000179
-0.000066
-0.002171
-0.002229
0.000056
-0.000002
-0.000002
-0.002202
0.000028
-0.002090
-0.000880
-0.000085
-0.002046
-0.001410
-0.000646
-0.001643
-0.000413
-0.000003
-0.001877
-0.000069
0.000001
-0.001111
-0.001994
-0.002171
0.000002
-0.000060
-0.002175
0.000039
0.000041
-0.002212
-0.002214
0.000043
0.000041
-0.002214
-0.002212
0.000025
-0.002198
-0.000061
-0.002107
-0.001292
-0.002105
-0.000001
-0.000069
-0.002173
-0.001402
-0.001519
-0.001694
-0.000296
-0.002171
-0.002171
-0.001870
-0.002104
-0.002171
-0.000003
-0.000003
-0.000184
-0.000069
-0.000002
-0.000061
0.000005
0.000021
-0.002178
-0.000028
-0.002193
-0.000057
-0.002139
-0.002128
0.000014
0.000043
-0.002214
-0.002117
-0.002111
-0.002185
-0.002180
-0.000050
-0.000046
0.000016
0.000014
-0.002190
-0.002188
-0.001178
-0.000017
0.000032
-0.002177
-0.002156
-0.002202
-0.000053
0.000003
0.000005
-0.002119
-0.002108
-0.000068
-0.000764
-0.001227
-0.000943
-0.000995
-0.001003
-0.000069
-0.002174
-0.001526
-0.000712
-0.001345
-0.000002
-0.000002
-0.002172
-0.002171
-0.000069
-0.000530
-0.002104
-0.002104
-0.000828
-0.000069
-0.001635
-0.001061
-0.000595
-0.001760
-0.000419
-0.000478
-0.000360
-0.002171
-0.001811
-0.000179
-0.002104
-0.002104
-0.001987
-0.000120
-0.000243
-0.002046
-0.000002
-0.000069
-0.000069
-0.002171
-0.002105
-0.002112
-0.002055
-0.000051
-0.002139
-0.000113
-0.002159
-0.002162
-0.002124
-0.001056
-0.000009
-0.000009
-0.000054
-0.002119
-0.000125
-0.000770
-0.001229
-0.000060
-0.000128
-0.002113
-0.001519
-0.000478
-0.002045
-0.001694
-0.002112
-0.002046
-0.002074
-0.002084
-0.000103
-0.000244
-0.000030
-0.002143
-0.002060
-0.000040
-0.000071
-0.002104
-0.002047
-0.002050
-0.002116
-0.001345
-0.001811
-0.000069
-0.002112
-0.000127
-0.000088
-0.000053
-0.000106
-0.002121
0.000042
0.000040
-0.002212
-0.002212
0.000032
-0.002205
-0.002181
-0.000021
-0.000083
-0.002096
0.000025
-0.002199
-0.002118
-0.002149
-0.000062
-0.002178
-0.002133
-0.002122
-0.001000
-0.001174
-0.001350
-0.000009
-0.002162
0.000002
-0.002193
-0.002064
0.000019
-0.000706
-0.001170
-0.001054
-0.000823
-0.000065
-0.000066
0.000000
-0.002106
-0.000042
-0.000653
-0.000001
-0.001468
-0.002172
-0.000128
-0.000127
-0.000885
-0.001461
-0.002104
-0.002132
-0.002133
-0.000588
-0.001585
-0.000061
-0.000061
-0.002046
-0.002113
-0.002112
-0.000595
-0.000419
-0.000128
-0.000471
-0.001701
-0.002171
-0.001635
-0.001235
-0.000003
-0.002045
-0.000069
-0.001818
-0.000355
-0.000361
-0.000237
-0.000003
-0.000120
-0.001928
-0.000069
-0.002171
-0.000003
-0.002046
-0.001936
-0.000061
-0.000002
-0.002104
-0.000127
-0.000126
-0.002112
-0.002053
-0.000937
-0.000102
-0.002085
-0.002067
-0.002039
-0.000105
-0.001004
-0.002055
-0.000185
-0.000880
-0.000118
-0.001989
-0.001410
-0.000646
-0.000355
-0.000478
-0.001643
-0.001636
-0.000061
-0.000027
-0.001818
-0.000120
-0.001936
-0.000131
-0.002147
-0.000057
-0.000187
-0.002082
-0.000010
-0.002167
-0.002152
-0.002160
-0.000021
-0.000012
-0.001111
-0.002114
-0.000653
-0.002046
-0.001461
-0.000061
-0.000128
-0.002046
-0.002053
-0.002075
-0.000006
-0.002164
-0.002057
-0.000152
-0.002136
-0.000042
-0.000111
-0.002143
-0.000032
-0.000036
-0.002047
-0.000047
-0.002140
-0.002127
-0.002130
-0.002121
-0.000016
-0.002152
-0.000034
-0.000124
-0.000117
-0.002140
-0.001172
-0.001292
-0.001231
-0.000067
-0.002107
-0.000011
-0.002160
-0.000096
-0.002052
-0.000059
-0.000053
-0.002067
-0.000764
-0.000114
-0.002115
-0.002117
-0.000996
-0.000712
-0.002129
-0.002046
-0.001403
-0.000127
-0.001287
-0.001469
-0.002048
-0.002049
-0.000045
-0.002062
-0.000061
-0.000588
-0.000828
-0.000058
-0.000943
-0.002112
-0.002112
-0.000128
-0.000128
-0.001988
-0.001701
-0.000471
-0.002045
-0.001577
-0.000237
-0.000536
-0.001752
-0.000420
-0.002045
-0.001526
-0.000128
-0.000128
-0.000179
-0.000061
-0.000061
-0.001928
-0.001870
-0.002046
-0.001987
-0.002112
-0.000302
-0.002112
-0.002112
-0.001117
-0.000185
-0.000127
-0.000108
-0.000081
-0.002113
-0.002104
-0.002011
-0.001995
-0.000057
-0.000064
-0.001115
-0.001411
-0.000646
-0.001643
-0.000713
-0.000478
-0.002053
-0.001987
-0.002070
-0.000186
-0.001999
-0.001345
-0.000090
-0.000055
-0.002116
-0.001987
-0.001752
-0.001870
-0.002053
-0.002053
-0.001174
-0.000116
-0.000135
-0.000082
-0.000100
-0.002091
-0.002069
-0.002057
-0.000094
-0.000152
-0.002025
-0.000117
-0.000186
-0.000059
-0.001461
-0.000119
-0.001578
-0.001987
-0.000186
-0.000244
-0.001061
-0.002063
-0.002059
-0.002056
-0.000118
-0.000136
-0.002074
-0.000164
-0.000171
-0.002052
-0.000015
-0.002158
-0.002088
-0.002092
-0.002149
-0.000024
-0.000035
-0.000117
-0.000121
-0.000062
-0.002108
-0.002033
-0.000948
-0.000885
-0.001996
-0.001235
-0.000184
-0.000181
-0.001992
-0.001351
-0.002078
-0.002006
-0.000055
-0.000705
-0.000653
-0.000822
-0.000185
-0.000939
-0.001988
-0.000097
-0.000119
-0.001230
-0.002075
-0.002054
-0.002055
-0.001990
-0.000061
-0.001584
-0.000530
-0.001988
-0.000187
-0.001694
-0.000120
-0.000595
-0.000536
-0.000828
-0.000059
-0.001469
-0.001760
-0.000296
-0.002053
-0.000413
-0.001987
-0.000128
-0.000179
-0.000120
-0.000061
-0.000361
-0.001877
-0.000186
-0.000120
-0.001928
-0.001987
-0.001994
-0.002112
-0.001054
-0.002109
-0.002077
-0.000011
-0.002159
-0.001944
-0.002034
-0.000145
-0.002024
-0.002068
-0.000156
-0.000105
-0.001004
-0.000240
-0.001931
-0.001999
-0.001411
-0.000175
-0.000244
-0.001578
-0.000471
-0.001995
-0.001179
-0.001930
-0.001818
-0.000164
-0.000163
-0.002103
-0.002096
-0.000069
-0.000078
-0.000089
-0.000885
-0.000710
-0.000176
-0.000997
-0.000112
-0.000880
-0.001997
-0.000177
-0.001585
-0.001694
-0.000186
-0.000355
-0.000237
-0.002053
-0.001999
-0.002110
-0.000062
-0.000168
-0.000097
-0.000078
-0.002075
-0.002009
-0.002091
-0.002103
-0.000069
-0.000164
-0.000103
-0.000089
-0.000146
-0.002031
-0.000202
-0.002013
-0.001986
-0.002017
-0.001994
-0.000061
-0.000182
-0.002110
-0.002030
-0.002086
-0.001058
-0.000115
-0.002057
-0.000116
-0.000704
-0.000185
-0.002009
-0.000243
-0.000110
-0.000065
-0.000821
-0.001935
-0.002075
-0.002060
-0.001526
-0.001403
-0.000186
-0.000120
-0.000120
-0.000594
-0.001520
-0.001930
-0.002054
-0.001353
-0.001293
-0.001173
-0.001987
-0.000100
-0.000536
-0.000187
-0.000120
-0.000770
-0.002053
-0.000420
-0.001987
-0.001811
-0.001877
-0.001994
-0.001870
-0.000588
-0.002053
-0.001701
-0.000179
-0.000179
-0.001987
-0.000245
-0.000186
-0.001928
-0.000303
-0.001287
-0.001118
-0.002064
-0.002104
-0.002123
-0.002026
-0.002002
-0.000060
-0.000117
-0.002098
-0.000075
-0.000141
-0.000070
-0.000165
-0.001988
-0.000129
-0.001965
-0.001977
-0.001938
-0.001002
-0.001874
-0.001288
-0.000703
-0.002015
-0.000594
-0.000178
-0.001643
-0.001928
-0.002044
-0.002068
-0.000103
-0.000245
-0.000179
-0.001819
-0.001995
-0.002061
-0.000103
-0.000220
-0.000149
-0.000111
-0.000129
-0.000132
-0.000134
-0.000142
-0.001939
-0.001123
-0.002059
-0.002007
-0.000768
-0.001995
-0.001404
-0.001520
-0.000478
-0.001811
-0.000303
-0.001116
-0.002066
-0.000104
-0.002040
-0.001952
-0.000167
-0.000191
-0.000206
-0.001957
-0.001961
-0.002041
-0.000221
-0.002038
-0.001977
-0.001986
-0.000174
-0.001939
-0.002008
-0.002029
-0.000110
-0.000940
-0.000237
-0.002061
-0.000221
-0.001061
-0.000230
-0.001296
-0.001236
-0.002002
-0.000173
-0.000179
-0.000828
-0.000242
-0.000763
-0.001930
-0.000167
-0.002025
-0.000939
-0.001997
-0.000152
-0.001996
-0.000176
-0.001527
-0.001469
-0.002022
-0.001936
-0.000652
-0.000243
-0.000114
-0.000530
-0.002062
-0.000108
-0.001928
-0.001870
-0.002000
-0.001636
-0.000245
-0.000245
-0.001760
-0.001995
-0.001752
-0.000296
-0.000120
-0.000244
-0.001952
-0.000177
-0.000362
-0.000413
-0.000237
-0.001994
-0.001928
-0.001929
-0.000237
-0.001928
-0.001936
-0.001230
-0.001994
-0.000646
-0.000174
-0.001354
-0.001978
-0.000166
-0.000184
-0.002050
-0.000123
-0.000171
-0.000107
-0.002029
-0.001894
-0.000222
-0.001995
-0.000177
-0.002019
-0.000190
-0.000146
-0.000228
-0.001117
-0.000293
-0.001946
-0.000887
-0.001354
-0.001230
-0.000231
-0.001939
-0.000703
-0.001520
-0.000300
-0.001872
-0.001937
-0.000155
-0.002016
-0.001870
-0.000303
-0.000235
-0.001694
-0.000471
-0.000237
-0.000171
-0.001470
-0.001760
-0.000179
-0.001811
-0.001870
-0.001936
-0.000213
-0.001985
-0.000113
-0.002059
-0.000143
-0.001912
-0.000155
-0.002035
-0.002021
-0.001989
-0.000139
-0.000159
-0.002044
-0.001938
-0.000197
-0.001988
-0.001977
-0.000112
-0.000131
-0.000235
-0.000215
-0.000227
-0.000882
-0.000950
-0.002004
-0.001179
-0.000946
-0.001964
-0.001967
-0.000169
-0.000298
-0.001239
-0.002057
-0.002009
-0.000825
-0.000821
-0.001980
-0.000203
-0.000762
-0.000150
-0.002019
-0.000197
-0.002068
-0.001880
-0.001888
-0.001941
-0.000231
-0.000244
-0.001938
-0.000709
-0.000232
-0.002022
-0.001345
-0.000178
-0.000155
-0.001462
-0.001701
-0.000178
-0.000652
-0.000296
-0.001578
-0.001929
-0.001936
-0.000536
-0.000303
-0.001877
-0.000302
-0.000413
-0.001873
-0.000245
-0.000107
-0.001959
-0.001585
-0.000362
-0.000420
-0.001936
-0.001994
-0.000588
-0.001173
-0.001889
-0.001059
-0.000156
-0.002014
-0.001986
-0.000245
-0.001004
-0.000122
-0.001950
-0.001945
-0.000118
-0.002054
-0.000141
-0.001949
-0.000221
-0.002033
-0.000206
-0.002049
-0.001839
-0.001937
-0.001970
-0.002012
-0.000201
-0.001940
-0.001892
-0.000239
-0.001123
-0.001822
-0.000882
-0.000289
-0.001882
-0.001521
-0.000651
-0.000278
-0.001879
-0.001643
-0.001760
-0.001003
-0.001922
-0.000471
-0.001931
-0.001993
-0.000169
-0.002004
-0.000201
-0.001915
-0.000226
-0.000153
-0.001346
-0.000478
-0.001871
-0.001463
-0.001930
-0.000236
-0.001811
-0.000361
-0.001936
-0.001877
-0.001900
-0.000230
-0.002000
-0.000269
-0.002004
-0.000259
-0.000214
-0.000162
-0.002010
-0.001938
-0.000170
-0.000186
-0.001883
-0.000245
-0.000156
-0.000948
-0.002015
-0.000191
-0.000289
-0.001951
-0.001962
-0.001968
-0.002018
-0.000931
-0.000224
-0.001184
-0.000296
-0.000152
-0.001873
-0.000761
-0.000233
-0.000302
-0.000154
-0.002016
-0.001929
-0.000878
-0.001944
-0.001973
-0.000205
-0.001872
-0.001412
-0.001907
-0.000299
-0.000178
-0.001288
-0.000235
-0.001969
-0.000237
-0.000303
-0.000767
-0.000530
-0.001940
-0.000594
-0.001753
-0.001936
-0.001870
-0.000234
-0.000303
-0.000301
-0.000296
-0.001937
-0.001818
-0.001116
-0.001173
-0.001636
-0.000236
-0.000236
-0.001528
-0.000355
-0.000646
-0.000211
-0.001948
-0.000250
-0.001061
-0.001297
-0.000165
-0.000179
-0.001881
-0.000219
-0.000281
-0.001993
-0.000187
-0.001894
-0.000265
-0.000095
-0.002027
-0.002004
-0.001994
-0.000277
-0.001889
-0.000224
-0.001975
-0.001896
-0.000200
-0.000190
-0.000278
-0.001130
-0.000344
-0.001899
-0.000947
-0.001174
-0.001766
-0.000703
-0.001413
-0.000292
-0.000356
-0.000651
-0.001815
-0.000359
-0.001948
-0.001916
-0.000934
-0.000292
-0.000261
-0.001839
-0.000277
-0.000287
-0.001068
-0.001890
-0.000268
-0.000297
-0.001463
-0.000200
-0.001813
-0.001636
-0.000294
-0.001289
-0.000530
-0.001879
-0.001753
-0.000354
-0.000231
-0.001863
-0.000212
-0.001959
-0.001914
-0.000192
-0.001923
-0.001827
-0.000283
-0.000195
-0.000201
-0.001974
-0.001969
-0.002007
-0.001896
-0.001957
-0.001974
-0.001008
-0.000351
-0.000196
-0.000216
-0.001957
-0.001928
-0.001885
-0.000360
-0.000361
-0.000282
-0.001898
-0.000821
-0.001883
-0.000248
-0.001907
-0.000271
-0.000588
-0.001881
-0.001405
-0.001970
-0.001298
-0.001940
-0.000236
-0.001878
-0.001942
-0.001701
-0.000420
-0.000413
-0.000708
-0.000209
-0.000824
-0.000295
-0.001818
-0.001578
-0.001585
-0.000290
-0.000295
-0.001812
-0.000536
-0.000357
-0.001817
-0.001878
-0.001470
-0.001835
-0.001908
-0.000156
-0.001059
-0.000228
-0.001241
-0.000261
-0.001944
-0.001985
-0.000275
-0.000184
-0.000314
-0.001842
-0.000304
-0.001976
-0.001996
-0.001960
-0.000181
-0.001817
-0.001935
-0.001850
-0.000274
-0.000304
-0.000233
-0.000330
-0.000344
-0.001902
-0.001413
-0.001829
-0.001823
-0.000411
-0.001463
-0.001880
-0.000416
-0.000529
-0.000241
-0.001876
-0.001701
-0.000536
-0.001969
-0.000986
-0.001886
-0.000333
-0.000220
-0.001821
-0.000708
-0.000419
-0.001819
-0.001754
-0.000295
-0.001579
-0.000285
-0.001241
-0.001787
-0.001864
-0.001085
-0.000255
-0.000230
-0.000335
-0.000898
-0.001771
-0.000198
-0.001909
-0.001935
-0.000281
-0.001949
-0.001894
-0.000277
-0.001885
-0.000348
-0.000255
-0.000198
-0.001971
-0.001816
-0.001863
-0.001894
-0.000207
-0.000297
-0.000223
-0.000821
-0.000283
-0.000275
-0.000195
-0.001922
-0.001888
-0.001354
-0.000353
-0.001814
-0.000412
-0.000293
-0.001232
-0.001925
-0.001888
-0.001945
-0.000224
-0.000245
-0.001348
-0.000294
-0.001695
-0.000766
-0.001812
-0.001972
-0.001878
-0.000360
-0.000258
-0.001406
-0.000358
-0.000221
-0.001917
-0.000593
-0.000353
-0.000346
-0.000282
-0.001586
-0.001527
-0.001116
-0.001762
-0.001852
-0.001848
-0.000353
-0.000291
-0.000646
-0.001827
-0.000761
-0.001831
-0.001943
-0.001185
-0.001003
-0.000880
-0.000307
-0.001923
-0.001905
-0.000328
-0.000325
-0.000322
-0.000209
-0.001961
-0.000212
-0.001960
-0.000373
-0.001843
-0.000269
-0.001854
-0.001896
-0.000241
-0.000316
-0.001138
-0.001117
-0.000400
-0.001716
-0.000877
-0.000703
-0.001774
-0.000350
-0.000707
-0.000329
-0.001905
-0.001844
-0.001865
-0.001757
-0.000347
-0.000298
-0.000593
-0.000245
-0.000318
-0.000327
-0.000414
-0.000247
-0.001356
-0.001696
-0.000411
-0.000351
-0.000352
-0.001233
-0.000418
-0.001820
-0.001528
-0.000365
-0.000398
-0.000348
-0.000256
-0.001916
-0.001881
-0.000237
-0.000234
-0.001896
-0.001969
-0.000238
-0.000332
-0.000341
-0.001873
-0.000291
-0.001783
-0.000268
-0.000381
-0.000947
-0.001842
-0.000307
-0.000401
-0.000409
-0.000413
-0.001856
-0.000242
-0.001836
-0.000237
-0.000244
-0.001926
-0.001832
-0.001932
-0.001910
-0.000263
-0.001297
-0.001878
-0.000477
-0.001860
-0.001636
-0.001759
-0.001755
-0.001825
-0.001919
-0.000416
-0.001820
-0.001754
-0.000588
-0.001291
-0.001406
-0.001851
-0.000337
-0.000823
-0.000765
-0.001470
-0.000471
-0.001857
-0.001782
-0.001521
-0.001059
-0.001822
-0.001761
-0.000347
-0.001710
-0.000818
-0.001643
-0.000263
-0.001910
-0.001790
-0.001959
-0.001186
-0.000936
-0.001930
-0.001921
-0.001910
-0.000320
-0.001802
-0.001814
-0.000254
-0.000243
-0.001928
-0.001035
-0.000301
-0.001798
-0.001872
-0.001812
-0.000275
-0.000350
-0.000435
-0.001126
-0.001661
-0.000937
-0.001234
-0.001407
-0.001414
-0.000464
-0.001891
-0.000375
-0.001766
-0.001734
-0.000290
-0.000311
-0.001833
-0.001837
-0.000309
-0.001864
-0.000339
-0.000273
-0.001877
-0.000470
-0.000473
-0.001643
-0.001764
-0.001579
-0.001698
-0.000410
-0.000586
-0.000398
-0.000382
-0.001762
-0.001767
-0.001060
-0.001862
-0.001925
-0.001886
-0.000369
-0.000285
-0.000300
-0.001844
-0.001823
-0.001846
-0.000240
-0.001927
-0.000338
-0.000323
-0.001820
-0.001898
-0.001731
-0.000248
-0.001828
-0.000342
-0.000537
-0.000240
-0.001929
-0.000448
-0.001895
-0.001760
-0.001853
-0.001919
-0.000293