# vtk DataFile Version 2.0
Test
ASCII
DATASET POLYDATA
POINTS 5510 float
0.000000 0.000000 0.000000
0.080000 0.000000 0.000000
0.080000 0.160000 0.000000
0.000000 0.160000 0.000000
0.035000 0.076250 0.000000
0.046500 0.083750 0.000000
0.002000 0.000000 0.000000
0.004000 0.000000 0.000000
0.006000 0.000000 0.000000
0.008000 0.000000 0.000000
0.010000 0.000000 0.000000
0.012000 0.000000 0.000000
0.014000 0.000000 0.000000
0.016000 0.000000 0.000000
0.018000 0.000000 0.000000
0.020000 0.000000 0.000000
0.022000 0.000000 0.000000
0.024000 0.000000 0.000000
0.026000 0.000000 0.000000
0.028000 0.000000 0.000000
0.030000 0.000000 0.000000
0.032000 0.000000 0.000000
0.034000 0.000000 0.000000
0.036000 0.000000 0.000000
0.038000 0.000000 0.000000
0.040000 0.000000 0.000000
0.042000 0.000000 0.000000
0.044000 0.000000 0.000000
0.046000 0.000000 0.000000
0.048000 0.000000 0.000000
0.050000 0.000000 0.000000
0.052000 0.000000 0.000000
0.054000 0.000000 0.000000
0.056000 0.000000 0.000000
0.058000 0.000000 0.000000
0.060000 0.000000 0.000000
0.062000 0.000000 0.000000
0.064000 0.000000 0.000000
0.066000 0.000000 0.000000
0.068000 0.000000 0.000000
0.070000 0.000000 0.000000
0.072000 0.000000 0.000000
0.074000 0.000000 0.000000
0.076000 0.000000 0.000000
0.078000 0.000000 0.000000
0.080000 0.002000 0.000000
0.080000 0.004000 0.000000
0.080000 0.006000 0.000000
0.080000 0.008000 0.000000
0.080000 0.010000 0.000000
0.080000 0.012000 0.000000
0.080000 0.014000 0.000000
0.080000 0.016000 0.000000
0.080000 0.018000 0.000000
0.080000 0.020000 0.000000
0.080000 0.022000 0.000000
0.080000 0.024000 0.000000
0.080000 0.026000 0.000000
0.080000 0.028000 0.000000
0.080000 0.030000 0.000000
0.080000 0.032000 0.000000
0.080000 0.034000 0.000000
0.080000 0.036000 0.000000
0.080000 0.038000 0.000000
0.080000 0.040000 0.000000
0.080000 0.042000 0.000000
0.080000 0.044000 0.000000
0.080000 0.046000 0.000000
0.080000 0.048000 0.000000
0.080000 0.050000 0.000000
0.080000 0.052000 0.000000
0.080000 0.054000 0.000000
0.080000 0.056000 0.000000
0.080000 0.058000 0.000000
0.080000 0.060000 0.000000
0.080000 0.062000 0.000000
0.080000 0.064000 0.000000
0.080000 0.066000 0.000000
0.080000 0.068000 0.000000
0.080000 0.070000 0.000000
0.080000 0.072000 0.000000
0.080000 0.074000 0.000000
0.080000 0.076000 0.000000
0.080000 0.078000 0.000000
0.080000 0.080000 0.000000
0.080000 0.082000 0.000000
0.080000 0.084000 0.000000
0.080000 0.086000 0.000000
0.080000 0.088000 0.000000
0.080000 0.090000 0.000000
0.080000 0.092000 0.000000
0.080000 0.094000 0.000000
0.080000 0.096000 0.000000
0.080000 0.098000 0.000000
0.080000 0.100000 0.000000
0.080000 0.102000 0.000000
0.080000 0.104000 0.000000
0.080000 0.106000 0.000000
0.080000 0.108000 0.000000
0.080000 0.110000 0.000000
0.080000 0.112000 0.000000
0.080000 0.114000 0.000000
0.080000 0.116000 0.000000
0.080000 0.118000 0.000000
0.080000 0.120000 0.000000
0.080000 0.122000 0.000000
0.080000 0.124000 0.000000
0.080000 0.126000 0.000000
0.080000 0.128000 0.000000
0.080000 0.130000 0.000000
0.080000 0.132000 0.000000
0.080000 0.134000 0.000000
0.080000 0.136000 0.000000
0.080000 0.138000 0.000000
0.080000 0.140000 0.000000
0.080000 0.142000 0.000000
0.080000 0.144000 0.000000
0.080000 0.146000 0.000000
0.080000 0.148000 0.000000
0.080000 0.150000 0.000000
0.080000 0.152000 0.000000
0.080000 0.154000 0.000000
0.080000 0.156000 0.000000
0.080000 0.158000 0.000000
0.078000 0.160000 0.000000
0.076000 0.160000 0.000000
0.074000 0.160000 0.000000
0.072000 0.160000 0.000000
0.070000 0.160000 0.000000
0.068000 0.160000 0.000000
0.066000 0.160000 0.000000
0.064000 0.160000 0.000000
0.062000 0.160000 0.000000
0.060000 0.160000 0.000000
0.058000 0.160000 0.000000
0.056000 0.160000 0.000000
0.054000 0.160000 0.000000
0.052000 0.160000 0.000000
0.050000 0.160000 0.000000
0.048000 0.160000 0.000000
0.046000 0.160000 0.000000
0.044000 0.160000 0.000000
0.042000 0.160000 0.000000
0.040000 0.160000 0.000000
0.038000 0.160000 0.000000
0.036000 0.160000 0.000000
0.034000 0.160000 0.000000
0.032000 0.160000 0.000000
0.030000 0.160000 0.000000
0.028000 0.160000 0.000000
0.026000 0.160000 0.000000
0.024000 0.160000 0.000000
0.022000 0.160000 0.000000
0.020000 0.160000 0.000000
0.018000 0.160000 0.000000
0.016000 0.160000 0.000000
0.014000 0.160000 0.000000
0.012000 0.160000 0.000000
0.010000 0.160000 0.000000
0.008000 0.160000 0.000000
0.006000 0.160000 0.000000
0.004000 0.160000 0.000000
0.002000 0.160000 0.000000
0.000000 0.158000 0.000000
0.000000 0.156000 0.000000
0.000000 0.154000 0.000000
0.000000 0.152000 0.000000
0.000000 0.150000 0.000000
0.000000 0.148000 0.000000
0.000000 0.146000 0.000000
0.000000 0.144000 0.000000
0.000000 0.142000 0.000000
0.000000 0.140000 0.000000
0.000000 0.138000 0.000000
0.000000 0.136000 0.000000
0.000000 0.134000 0.000000
0.000000 0.132000 0.000000
0.000000 0.130000 0.000000
0.000000 0.128000 0.000000
0.000000 0.126000 0.000000
0.000000 0.124000 0.000000
0.000000 0.122000 0.000000
0.000000 0.120000 0.000000
0.000000 0.118000 0.000000
0.000000 0.116000 0.000000
0.000000 0.114000 0.000000
0.000000 0.112000 0.000000
0.000000 0.110000 0.000000
0.000000 0.108000 0.000000
0.000000 0.106000 0.000000
0.000000 0.104000 0.000000
0.000000 0.102000 0.000000
0.000000 0.100000 0.000000
0.000000 0.098000 0.000000
0.000000 0.096000 0.000000
0.000000 0.094000 0.000000
0.000000 0.092000 0.000000
0.000000 0.090000 0.000000
0.000000 0.088000 0.000000
0.000000 0.086000 0.000000
0.000000 0.084000 0.000000
0.000000 0.082000 0.000000
0.000000 0.080000 0.000000
0.000000 0.078000 0.000000
0.000000 0.076000 0.000000
0.000000 0.074000 0.000000
0.000000 0.072000 0.000000
0.000000 0.070000 0.000000
0.000000 0.068000 0.000000
0.000000 0.066000 0.000000
0.000000 0.064000 0.000000
0.000000 0.062000 0.000000
0.000000 0.060000 0.000000
0.000000 0.058000 0.000000
0.000000 0.056000 0.000000
0.000000 0.054000 0.000000
0.000000 0.052000 0.000000
0.000000 0.050000 0.000000
0.000000 0.048000 0.000000
0.000000 0.046000 0.000000
0.000000 0.044000 0.000000
0.000000 0.042000 0.000000
0.000000 0.040000 0.000000
0.000000 0.038000 0.000000
0.000000 0.036000 0.000000
0.000000 0.034000 0.000000
0.000000 0.032000 0.000000
0.000000 0.030000 0.000000
0.000000 0.028000 0.000000
0.000000 0.026000 0.000000
0.000000 0.024000 0.000000
0.000000 0.022000 0.000000
0.000000 0.020000 0.000000
0.000000 0.018000 0.000000
0.000000 0.016000 0.000000
0.000000 0.014000 0.000000
0.000000 0.012000 0.000000
0.000000 0.010000 0.000000
0.000000 0.008000 0.000000
0.000000 0.006000 0.000000
0.000000 0.004000 0.000000
0.000000 0.002000 0.000000
0.035411 0.076518 0.000000
0.035821 0.076786 0.000000
0.036232 0.077054 0.000000
0.036643 0.077321 0.000000
0.037054 0.077589 0.000000
0.037464 0.077857 0.000000
0.037875 0.078125 0.000000
0.038286 0.078393 0.000000
0.038696 0.078661 0.000000
0.039107 0.078929 0.000000
0.039518 0.079196 0.000000
0.039929 0.079464 0.000000
0.040339 0.079732 0.000000
0.040750 0.080000 0.000000
0.041161 0.080268 0.000000
0.041571 0.080536 0.000000
0.041982 0.080804 0.000000
0.042393 0.081071 0.000000
0.042804 0.081339 0.000000
0.043214 0.081607 0.000000
0.043625 0.081875 0.000000
0.044036 0.082143 0.000000
0.044446 0.082411 0.000000
0.044857 0.082679 0.000000
0.045268 0.082946 0.000000
0.045679 0.083214 0.000000
0.046089 0.083482 0.000000
0.040000 0.002000 0.000000
0.040001 0.158005 0.000000
0.002000 0.116000 0.000000
0.078000 0.048000 0.000000
0.002000 0.106000 0.000000
0.078000 0.058000 0.000000
0.001986 0.042173 0.000000
0.078015 0.117826 0.000000
0.001985 0.094174 0.000000
0.001985 0.084174 0.000000
0.001914 0.056074 0.000000
0.002000 0.072000 0.000000
0.078015 0.065826 0.000000
0.078016 0.075826 0.000000
0.078000 0.088000 0.000000
0.078000 0.104000 0.000000
0.078003 0.029997 0.000000
0.001998 0.130002 0.000000
0.002000 0.032000 0.000000
0.078013 0.128003 0.000000
0.056000 0.158000 0.000000
0.026000 0.002000 0.000000
0.060000 0.002000 0.000000
0.020000 0.158000 0.000000
0.002000 0.020000 0.000000
0.078000 0.142000 0.000000
0.002000 0.146000 0.000000
0.078000 0.020000 0.000000
0.016000 0.002000 0.000000
0.068000 0.002000 0.000000
0.066000 0.158000 0.000000
0.002000 0.014000 0.000000
0.008000 0.158000 0.000000
0.010000 0.002000 0.000000
0.078000 0.148000 0.000000
0.078000 0.008000 0.000000
0.078005 0.037995 0.000000
0.051991 0.001990 0.000000
0.028000 0.158000 0.000000
0.002000 0.008000 0.000000
0.078000 0.094000 0.000000
0.078000 0.110000 0.000000
0.001983 0.066159 0.000000
0.002000 0.050000 0.000000
0.046000 0.158000 0.000000
0.078000 0.134000 0.000000
0.002000 0.140000 0.000000
0.006000 0.002000 0.000000
0.002000 0.154000 0.000000
0.074000 0.002000 0.000000
0.078000 0.152000 0.000000
0.074000 0.158000 0.000000
0.078000 0.080000 0.000000
0.078000 0.070000 0.000000
0.078000 0.122000 0.000000
0.002000 0.090000 0.000000
0.002000 0.080000 0.000000
0.002000 0.038000 0.000000
0.002000 0.102000 0.000000
0.002000 0.112000 0.000000
0.036000 0.002000 0.000000
0.078000 0.042000 0.000000
0.032000 0.002000 0.000000
0.047987 0.001989 0.000000
0.032008 0.158010 0.000000
0.002000 0.028000 0.000000
0.002000 0.126000 0.000000
0.060000 0.158000 0.000000
0.022000 0.002000 0.000000
0.002000 0.136000 0.000000
0.078000 0.024000 0.000000
0.012000 0.158000 0.000000
0.078000 0.158000 0.000000
0.001947 0.003947 0.000000
0.002000 0.158000 0.000000
0.078000 0.012000 0.000000
0.078000 0.096000 0.000000
0.078000 0.098000 0.000000
0.078000 0.082000 0.000000
0.078111 0.099889 0.000000
0.078035 0.083965 0.000000
0.078000 0.090000 0.000000
0.078000 0.106000 0.000000
0.078000 0.072000 0.000000
0.078000 0.112000 0.000000
0.078043 0.061976 0.000000
0.078000 0.114000 0.000000
0.002000 0.064000 0.000000
0.002000 0.062000 0.000000
0.002000 0.088000 0.000000
0.002000 0.078000 0.000000
0.002000 0.060000 0.000000
0.001966 0.076034 0.000000
0.002000 0.070000 0.000000
0.002000 0.054000 0.000000
0.001957 0.098024 0.000000
0.002000 0.048000 0.000000
0.002000 0.046000 0.000000
[...]
POINT_DATA 5510
SCALARS UX float 1
LOOKUP_TABLE default
0.206372
0.292293
0.000007
-0.087407
0.095687
0.104416
0.208723
0.211053
0.213371
0.215644
0.217890
0.220119
0.222330
0.224528
0.226707
0.228866
0.231005
0.233111
0.235187
0.237233
0.239253
0.241252
0.243241
0.245226
0.247211
0.249197
0.251193
0.253201
0.255230
0.257277
0.259346
0.261437
0.263548
0.265679
0.267831
0.270005
0.272204
0.274414
0.276636
0.278864
0.281096
0.283333
0.285571
0.287811
0.290051
0.291003
0.289715
0.288434
0.287157
0.285890
0.284631
0.283393
0.282160
0.280930
0.279705
0.278481
0.277257
0.276032
0.274797
0.273550
0.272293
0.271021
0.269733
0.268433
0.267124
0.265814
0.264503
0.263204
0.261925
0.260637
0.259413
0.258227
0.257091
0.255994
0.254940
0.253925
0.252932
0.251948
0.250970
0.249966
0.248974
0.247862
0.246683
0.245404
0.243932
0.242405
0.240620
0.238524
0.236094
0.233377
0.229197
0.223622
0.217125
0.206313
0.187892
0.170529
0.152468
0.131902
0.106237
0.081248
0.061001
0.042541
0.035184
0.029675
0.026703
0.025169
0.023615
0.022527
0.021409
0.020262
0.019084
0.017891
0.016671
0.015434
0.014194
0.012948
0.011687
0.010450
0.009215
0.007979
0.006753
0.005493
0.004113
0.002388
-0.000060
-0.002269
-0.004526
-0.006759
-0.008959
-0.011144
-0.013305
-0.015468
-0.017635
-0.019819
-0.022019
-0.024229
-0.026451
-0.028686
-0.030919
-0.033166
-0.035410
-0.037651
-0.039888
-0.042118
-0.044343
-0.046563
-0.048779
-0.050993
-0.053209
-0.055427
-0.057651
-0.059882
-0.062124
-0.064377
-0.066646
-0.068929
-0.071224
-0.073527
-0.075833
-0.078144
-0.080458
-0.082774
-0.085090
-0.086058
-0.084713
-0.083370
-0.082040
-0.080716
-0.079395
-0.078080
-0.076772
-0.075466
-0.074163
-0.072864
-0.071570
-0.070277
-0.068990
-0.067704
-0.066413
-0.065111
-0.063815
-0.062506
-0.061194
-0.059875
-0.058554
-0.057230
-0.055914
-0.054591
-0.053305
-0.052050
-0.050843
-0.049677
-0.048564
-0.047508
-0.046481
-0.045477
-0.044507
-0.043555
-0.042602
-0.041649
-0.040687
-0.039708
-0.038692
-0.037636
-0.036548
-0.035381
-0.034088
-0.033057
-0.030908
-0.027741
-0.021110
-0.011305
0.007497
0.026340
0.046467
0.068107
0.088634
0.108783
0.129427
0.145110
0.157087
0.166852
0.174702
0.179368
0.183305
0.184883
0.186267
0.187523
0.188714
0.189944
0.191143
0.192357
0.193604
0.194847
0.196093
0.197347
0.198609
0.199876
0.201146
0.202430
0.203728
0.205036
0.096020
0.096429
0.097124
0.097730
0.098089
0.098249
0.098432
0.098748
0.098904
0.099341
0.099753
0.100117
0.100670
0.101235
0.101852
0.102360
0.102815
0.103082
0.103266
0.103409
0.103482
0.103465
0.103506
0.103511
0.103645
0.103918
0.104026
0.247979
-0.040768
-0.056361
0.259709
-0.049797
0.253631
0.172370
0.026769
-0.043119
-0.038273
0.056421
-0.031622
0.249663
0.244585
0.233716
0.139334
0.271354
-0.065422
0.188695
0.019359
-0.022902
0.233877
0.268758
-0.063063
0.195961
0.010753
-0.075790
0.277505
0.223205
0.277588
-0.012056
0.199701
-0.076802
0.216577
0.006970
0.284932
0.266269
0.260215
-0.054112
0.203496
0.219233
0.066360
-0.024892
0.120207
-0.034045
0.015765
-0.071874
0.212032
-0.081065
0.284283
0.004442
-0.003412
0.241867
0.247648
0.022893
-0.041061
-0.036138
0.183606
-0.047339
-0.053722
0.243989
0.263640
0.239993
0.256060
-0.049667
0.191112
-0.062856
-0.018521
0.229677
-0.069276
0.275056
-0.072190
0.000393
0.206049
-0.083741
0.282426
0.210362
0.195469
0.240278
0.179910
0.238439
0.229949
0.113618
0.246641
0.048634
0.251588
0.036794
-0.017772
-0.002199
-0.040103
-0.035048
0.015924
-0.033980
-0.030109
0.078411
-0.045144
0.138860
0.152956
0.255930
0.262361
0.258429
-0.052404
-0.058976
0.021680
0.185820
0.251993
-0.045224
-0.038528
0.268846
-0.031801
-0.029561
-0.061565
0.237978
0.264450
-0.058571
0.192311
0.018209
0.014527
0.193492
0.013276
-0.067986
-0.027328
0.273826
-0.074483
-0.016361
0.227531
0.273149
-0.067603
0.009491
0.279959
-0.078419
0.197202
0.200953
-0.009898
0.221009
-0.007747
0.003171
-0.081426
0.209630
0.207165
0.287477
0.282048
0.288761
-0.051571
0.257556
-0.038653
-0.033714
-0.028746
0.024127
0.131365
0.239737
0.230750
0.167460
0.245355
0.039465
-0.039398
-0.059351
0.017376
0.186214
0.238681
-0.026022
0.193377
0.011146
0.228338
-0.066989
0.272851
-0.017240
0.199505
0.221884
-0.073504
-0.008702
0.122918
0.260289
0.202015
0.002169
0.283007
0.236383
0.185134
0.213091
-0.031520
0.005844
-0.019976
0.159440
0.225748
0.236500
0.162280
0.243466
0.245670
0.090056
0.248796
0.030833
-0.028448
-0.039217
-0.032921
-0.042224
0.035576
-0.037371
0.098236
0.163558
0.250603
-0.044108
0.252620
-0.046250
0.254824
0.024784
-0.048613
0.178268
0.257227
-0.051154
-0.055207
0.261061
-0.057712
0.264979
-0.060298
0.249973
-0.042988
0.245977
-0.036283
0.254012
-0.047440
0.020541
0.187372
0.267567
0.241988
0.258125
-0.051884
-0.030450
0.262324
-0.056335
-0.064139
0.189900
0.016996
0.270104
0.194585
0.235938
0.013672
-0.025109
0.266592
-0.060810
0.194708
0.012023
-0.066701
0.272593
-0.070573
-0.020702
0.231789
-0.073178
0.276280
-0.014208
0.225377
-0.065324
0.270939
-0.069891
0.275361
0.008226
0.198441
-0.074495
0.278730
-0.077102
0.005719
0.281190
0.202225
0.218803
-0.079739
-0.005581
0.283669
0.001822
0.214325
0.204778
-0.079113
0.208414
0.279815
-0.001361
-0.080088
-0.082399
0.286199
0.285241
0.286521
-0.044266
0.250601
0.033234
0.252791
0.156584
0.195561
-0.050600
0.261117
-0.059505
0.269713
0.278989
-0.068575
0.006040
0.265447
0.244781
-0.073166
-0.077438
0.220385
0.026945
-0.024531
0.248544
0.246402
-0.042014
-0.039746
0.243400
0.241150
-0.036776
-0.034823
0.252843
-0.046669
0.022583
0.189567
-0.046106
0.192140
0.267899
0.014941
-0.061880
0.234610
0.230448
0.224054
0.274114
-0.070893
-0.068286
0.217501
0.204550
-0.074812
0.276536
0.274080
-0.004491
0.000832
0.281459
0.281741
0.226265
0.233601
-0.027056
0.145826
-0.030103
0.032481
0.045921
0.111830
0.258930
0.244404
-0.037726
0.170388
0.183186
-0.052943
-0.055511
0.069649
0.094926
0.255031
0.256263
-0.048976
-0.050242
-0.041726
0.200487
0.238198
-0.058069
-0.008386
-0.032665
0.054132
0.262855
0.261571
0.146122
0.188068
0.018602
0.256908
0.240754
-0.032663
0.248800
-0.035003
0.016172
-0.060631
-0.055034
-0.023821
0.236651
0.270380
0.271620
-0.064412
-0.065699
0.009865
0.265379
0.195777
0.198282
-0.028235
0.012430
0.226210
-0.037205
-0.019401
-0.064021
-0.012948
-0.015092
-0.010818
-0.072197
0.219707
0.278550
0.200770
0.203285
0.213002
0.280777
-0.006593
0.210724
0.283968
0.003470
-0.000487
-0.078759
0.207117
-0.077779
0.185755
0.259550
-0.047363
0.026880
-0.032479
-0.037542
-0.024009
-0.035697
0.244262
0.239051
0.223132
-0.055966
0.016712
-0.024717
0.239365
0.268193
0.010339
-0.062147
0.229098
-0.013833
0.200539
0.222741
-0.068613
0.205579
0.122804
0.051481
0.061188
-0.005462
0.232187
-0.028181
0.174264
0.257034
0.190883
0.000928
0.194253
0.190001
-0.058391
0.235302
0.218393
0.007308
-0.071220
0.001254
0.131872
0.215918
0.042670
-0.020388
0.242363
0.247411
-0.035839
-0.040814
0.249529
-0.043099
-0.054249
0.236014
0.171936
0.017709
0.251727
-0.045481
0.177635
-0.030276
0.024118
-0.056704
0.070625
0.095448
-0.033560
-0.040276
-0.048288
0.242401
-0.035625
0.264166
-0.047733
0.153298
0.253838
0.258962
0.242724
0.246740
0.254799
0.021098
0.019846
0.266690
0.190876
0.254355
-0.021582
0.269153
-0.052814
-0.063142
0.009031
0.014182
-0.029132
0.232534
0.197026
-0.048346
-0.050884
0.263240
-0.057265
0.269433
0.271884
0.196756
-0.063434
-0.066009
-0.018120
-0.011706
0.012896
0.267540
-0.061759
-0.069589
0.224893
-0.043904
0.275308
0.203042
0.008592
-0.066292
0.271902
-0.009610
0.276327
0.277760
0.279519
0.215260
0.004752
-0.076122
0.280221
0.209427
-0.070864
0.280488
0.282706
0.205826
-0.001382
-0.002471
-0.076455
-0.075471
0.250779
0.082824
-0.045312
-0.016086
0.044456
0.212510
-0.032442
-0.059914
0.012170
0.251553
0.266023
0.196251
-0.049280
0.259913
0.270683
-0.012588
-0.058197
0.223553
0.275568
0.249311
-0.064992
0.278276
-0.069561
0.160741
-0.043067
0.263298
0.008254
0.071674
0.239857
-0.033547
-0.040637
-0.038221
0.247077
0.244886
0.243491
-0.060899
-0.020310
0.199271
0.231176
0.273116
0.006459
0.206853
-0.074152
0.106980
0.241616
-0.034886
0.182435
0.053204
-0.026926
0.228865
0.031683
-0.044613
0.250728
0.253393
0.025134
0.258264
-0.046265
-0.053453
-0.052032
-0.054757
0.237496
-0.031325
0.233884
0.017942
0.020794
-0.028889
0.241351
-0.044780
-0.042439
0.204124
-0.010689
0.243236
-0.036482
0.107011
0.188213
0.266950
0.260819
0.139556
0.255678
0.024284
-0.059634
-0.057167
0.247478
-0.022532
-0.049553
0.198007
0.233253
0.015456
0.237316
-0.051510
0.192951
0.191513
0.255545
0.164755
0.270659
0.262039
-0.026916
0.264517
-0.031337
-0.064717
-0.067309
0.011636
0.007753
0.198881
-0.060453
0.266334
0.201791
0.226999
0.275085
-0.015970
0.220575
-0.010493
0.204299
-0.053726
0.005161
0.002557
0.277301
0.278020
0.279250
0.213967
0.216187
0.208139
0.211709
-0.069918
-0.007531
-0.072525
-0.075140
-0.038077
-0.003436
-0.000071
0.257517
0.247652
-0.032712
-0.028525
0.159423
0.040356
0.239530
0.234586
0.242028
-0.047996
0.258723
-0.056905
-0.021261
-0.011365
-0.065052
0.204017
-0.051592
0.004352
0.187739
0.233934
0.251354
0.242416
-0.035674
0.206571
0.219268
0.214889
-0.068940
-0.072844
-0.038952
0.199383
0.112225
0.229381
0.217758
-0.025818
-0.020362
-0.006788
0.255103
0.068735
0.133707
0.264834
0.009575
0.237032
0.229817
0.268480
0.225658
0.209126
0.000397
-0.004316
-0.034597
-0.053825
-0.056211
-0.058674
0.176062
0.144560
-0.050275
0.038282
0.024019
0.009618
0.245806
-0.039230
-0.043887
-0.041496
-0.041751
0.248096
0.252396
0.022471
0.019349
0.240306
-0.033466
0.064621
-0.030272
-0.027817
0.189925
-0.041302
0.013435
0.016080
0.193397
-0.047045
-0.046402
0.177215
0.262076
0.257795
-0.019014
0.253609
0.010886
0.249464
0.200176
0.252389
0.267261
0.237979
-0.048809
-0.062468
-0.061193
0.194837
0.274345
-0.055951
0.264177
0.197578
0.006964
0.221421
0.270935
-0.016851
-0.014704
-0.025628
0.265718
-0.050200
-0.062717
0.272878
-0.066348
0.268503
0.201481
0.003862
0.276069
0.275825
0.276794
-0.008421
-0.067274
-0.002241
0.277047
0.212665
0.210415
-0.071852
-0.073830
0.245468
-0.030350
0.089872
0.240509
-0.033803
0.189405
-0.042326
0.249442
-0.016288
-0.030969
0.203565
0.237657
-0.031156
0.011463
0.198159
-0.056481
-0.046691
0.262651
0.006199
0.224312
0.265134
-0.062802
-0.037849
0.202275
-0.063695
0.168116
0.020180
-0.037641
-0.040200
0.244156
0.246426
0.248534
-0.026538
-0.019927
0.017430
0.246186
0.259943
0.250297
-0.058965
0.265096
-0.054677
0.220102
0.001715
0.269478
0.273865
-0.071542
0.026419
-0.031746
0.238442
0.022292
0.225656
0.232762
-0.023365
0.185232
-0.027143
-0.036236
0.242875
0.029077
0.256246
0.249824
0.090285
0.081132
0.043328
0.147341
0.056198
-0.009619
0.191684
0.241249
0.014830
-0.034472
-0.043453
-0.042530
0.244026
0.262391
-0.057450
0.263600
0.256608
0.132798
0.170174
0.008831
0.258731
0.235811
0.252404
0.195221
-0.047568
-0.054970
-0.052416
0.231867
0.005665
0.272166
0.274610
-0.015595
0.227736
0.199583
-0.063760
-0.045780
-0.043512
0.239979
0.205283
0.253549
-0.013466
0.003034
0.269707
-0.023437
-0.067643
-0.009286
0.202737
0.217087
-0.065977
-0.070552
0.213590
0.260840
-0.070240
-0.059155
0.273636
0.274850
0.207842
-0.003071
-0.000936
0.211371
-0.006359
0.235954
-0.036783
-0.052649
-0.029335
-0.031662
0.120018
0.015235
0.237867
0.187578
-0.038914
0.245302
0.125828
0.231613
0.255430
-0.040928
0.243583
0.156398
-0.011063
0.073049
0.244698
0.200000
0.234574
0.255411
-0.049684
-0.014360
0.268788
-0.055604
0.206211
-0.037265
-0.033816
0.240528
0.002254
0.272429
-0.062412
-0.065376
-0.028310
0.235187
0.024015
0.253093
0.232483
0.226464
0.214600
0.245829
0.248304
0.193634
-0.035689
-0.026583
-0.051719
-0.022084
-0.061516
0.230487
0.226377
-0.010146
0.215784
-0.005153
0.240656
-0.030084
0.236920
-0.023228
0.040687
0.191097
0.098805
0.055722
0.186864
0.179687
-0.039942
0.031367
-0.041112
0.094998
0.071963
0.018772
0.191443
0.002287
0.099514
0.239112
-0.028717
0.012806
-0.032401
0.020210
-0.033313
0.015545
-0.042301
-0.040009
-0.054052
0.260254
0.149909
-0.024367
0.010168
0.254478
0.200904
0.256611
-0.044501
0.248192
-0.057703
0.250443
-0.060236
0.263867
-0.051144
-0.048893
-0.046794
0.196621
-0.017738
0.007533
0.261145
0.262978
-0.031522
0.238364
0.207503
0.212291
-0.055252
0.222215
0.000909
-0.001753
-0.061411
-0.064090
0.217960
0.271662
0.273389
0.004902
0.175368
0.266327
-0.007221
0.267303
0.271463
-0.069257
0.208794
0.203605
0.272660
0.210081
-0.068261
0.236607
-0.067958
0.257513
0.261435
-0.044507
0.126432
0.181485
0.117090
-0.036079
0.242516
0.020661
0.229889
-0.019591
0.188756
0.253308
-0.034305
0.240667
-0.028104
0.207838
0.235117
0.138122
-0.034190
0.010801
-0.051954
-0.025423
-0.043214
0.235212
0.259291
-0.056763
0.254186
0.225003
0.005457
0.204301
-0.060565
0.238208
-0.031512
0.208377
0.000118
0.262944
0.218777
0.263939
0.270258
0.259073
-0.047633
-0.060133
0.271221
0.214475
0.210996
-0.065691
0.168298
-0.016024
0.240963
-0.034343
0.222581
0.183251
0.227393
-0.024845
-0.047975
-0.038279
0.247037
0.254214
-0.038835
0.091576
0.075381
-0.039772
0.140892
0.233838
0.244750
0.014186
0.018315
0.016753
0.248954
-0.027880
-0.052917
-0.036548
0.246697
0.013658
-0.000554
0.257789
0.008089
-0.038847
-0.027360
-0.050562
-0.023002
0.251139
-0.041718
0.194963
0.253273
0.235788
-0.028916
0.247620
-0.029409
0.198287
0.194469
-0.054292
0.099865
0.003595
-0.058030
-0.018645
0.260511
-0.045611
0.232537
0.267557
0.251573
0.228421
-0.057860
0.270007
-0.016492
0.270456
0.222952
0.204902
-0.061838
-0.012239
-0.003873
-0.064686
0.002830
0.266113
0.201452
-0.000413
0.235939
0.167544
-0.053373
-0.005980
-0.008064
-0.066975
-0.066665
0.259632
0.238614
0.190902
0.242666
0.237260
-0.030488
0.108744
0.035937
-0.029891
0.230533
0.028483
0.055813
0.241589
-0.035037
0.219073
0.184343
0.019144
-0.021376
0.028403
-0.024730
0.190532
-0.038972
-0.029755
-0.024626
0.236392
-0.012578
0.087164
0.199071
-0.033178
0.200103
-0.023939
0.257139
-0.054603
0.223610
-0.015261
0.017810
-0.058333
-0.054313
-0.058864
0.243341
0.020936
0.262761
0.138438
-0.035459
0.239922
-0.033461
0.251200
0.164968
0.255746
0.233065
0.231123
-0.008906
0.207030
0.227031
0.110375
0.265407
0.213165
-0.004668
-0.064402
-0.063417
0.179653
0.258081
-0.022586
0.016185
-0.038009
0.024035
0.252169
0.238874
-0.032290
-0.037664
0.242883
0.244305
0.196208
0.060262
0.230751
-0.026551
-0.026332
0.246719
0.012126
-0.049694
-0.047808
-0.045924
-0.027259
0.245916
0.254482
-0.035481
0.009466
0.234031
0.202887
0.252058
0.119581
0.001500
0.236502
-0.029672
-0.004022
0.247823
-0.053123
-0.042618
0.248550
0.205680
-0.045394
0.052158
0.006791
0.241727
0.233165
0.264176
-0.044785
0.269061
-0.001204
-0.020809
0.261774
-0.055531
-0.013134
0.216633
-0.063115
0.209680
0.261718
-0.002547
0.004142
0.269289
-0.059284
0.201774
0.239283
0.237226
0.220874
0.078407
0.266637
-0.049850
0.268280
0.256295
0.179787
-0.050784
0.046401
-0.032036
-0.041042
0.229004
0.223134
0.192980
0.152671
0.014852
-0.019025
0.214701
0.186386
0.027418
0.222187
-0.049249
0.182913
-0.036725
0.249987
-0.036214
0.240042
-0.026232
-0.006961
0.228648
0.233207
0.108089
-0.032176
0.010146
-0.047758
0.244060
0.235824
0.201823
0.252949
-0.044154
0.260812
0.004696
-0.014037
0.206266
0.000724
-0.033848
-0.043894
-0.024863
0.049986
0.158830
0.195948
0.252633
0.255946
-0.031059
-0.049858
0.021325
0.029057
0.225623
0.224666
0.209107
0.219523
0.263264
0.231719
0.260590
-0.057076
0.215303
0.267119
0.208409
0.185596
0.236691
-0.030160
0.011903
0.245537
0.153758
0.198197
0.013675
0.233951
0.235475
-0.027148
-0.028761
-0.025193
0.099741
-0.048722
-0.025316
-0.028781
0.007367
0.231256
0.238238
-0.031865
-0.039864
-0.052201
-0.000634
-0.003341
0.067046
0.070505
0.249888
-0.053384
0.186360
0.037519
0.019414
0.258432
-0.055846
0.229052
-0.043671
-0.039761
-0.036632
0.267855
-0.062142
0.121035
-0.056568
-0.006782
0.264919
-0.017394
0.249610
-0.021730
0.266911
-0.061123
0.221575
-0.052071
0.258366
0.268101
0.211845
-0.011015
0.003390
0.203288
-0.059596
-0.046347
0.192506
0.173330
0.231905
0.241309
0.256913
-0.037616
0.144430
-0.016084
-0.020382
0.016933
0.219076
0.014666
0.188412
0.020905
-0.047317
-0.023263
-0.036478
0.243302
0.187422
-0.023845
0.097700
0.202564
0.148172
0.231539
0.053847
0.253817
-0.012784
-0.042879
-0.050097
-0.053658
0.002623
0.224206
0.150658
-0.001421
0.259407
0.243761
0.029521
-0.055284
-0.009771
-0.022778
-0.026726
0.118596
0.011605
0.220269
-0.056104
-0.016167
-0.005462
-0.059882
0.213960
0.265709
0.220187
0.254775
-0.036325
0.192243
0.172272
-0.030474
0.249188
0.241809
0.012798
0.245844
0.200052
0.230062
-0.045812
-0.024789
0.089206
-0.035072
-0.035283
0.251494
-0.037233
0.008813
0.174233
0.234724
-0.027950
0.204790
0.061615
-0.048758
0.226627
0.038308
0.215410
0.248655
0.190495
0.126393
0.232188
-0.040750
0.002653
-0.041905
0.006049
0.207708
0.263768
0.262054
0.233762
-0.028118
-0.051010
-0.032591
0.238988
0.234672
0.229659
0.264486
0.217429
-0.019542
0.210491
-0.024482
-0.060869
-0.001987
0.246662
0.227615
0.002073
0.021848
-0.042811
-0.011900
0.264761
0.255001
0.253647
-0.050805
-0.048559
0.237892
0.203518
0.179246
0.183532
0.265941
0.259586
0.255071
-0.051257
0.250839
0.194424
-0.018243
-0.034245
0.242013
-0.022657
0.022706
-0.045284
-0.046750
0.016012
0.015222
0.018407
0.241495
-0.020308
0.237386
-0.030906
0.014661
-0.033642
0.238392
-0.000698
-0.022402
0.226489
0.193820
-0.031358
0.236505
0.251694
0.201748
0.245277
0.251710
-0.048031
0.258697
-0.014935
0.249001
-0.032263
-0.045716
-0.041902
0.208268
0.023690
0.162582
-0.010664
0.221349
0.110623
0.067595
-0.000030
0.245951
-0.040704
0.216035
0.262615
0.261149
0.263583
0.232324
-0.004134
-0.058629
-0.047311
0.012837
0.008152
0.018730
0.235906
-0.029531
0.013131
0.229456
0.230588
0.130409
-0.023641
0.242760
0.250401
0.252636
0.162121
0.176991
0.197560
0.211468
0.010084
0.242794
-0.034737
0.132626
0.006697
0.003954
0.001319
0.077566
0.244834
-0.047858
0.232298
0.233814
-0.027183
-0.048975
-0.025562
-0.030323
0.236626
-0.038460
-0.038083
-0.007623
0.048936
0.218153
-0.057528
0.211181
-0.052448
-0.041770
-0.002742
-0.057342
0.212606
0.257220
0.230256
0.226195
0.112096
0.041251
-0.020471
-0.018287
-0.045079
0.261577
-0.043834
0.194139
0.222190
0.239925
-0.054866
0.205083
0.256228
0.203548
0.247448
-0.053030
0.247629
-0.034794
0.190385
-0.021353
-0.033050
-0.023787
-0.022906
-0.018485
-0.015713
0.017303
0.185354
0.177709
0.239961
0.235650
-0.029186
-0.028564
0.238354
-0.032841
-0.028060
0.093867
0.228190
0.123490
0.007852
-0.029782
0.203514
0.241786
0.230850
0.224750
-0.041666
0.001897
-0.021406
0.045027
-0.051474
0.194024
0.242059
0.244706
0.027464
0.130222
0.203588
-0.033276
0.156699
0.230023
-0.015402
-0.002196
-0.004899
-0.051767
-0.053899
0.218757
0.213231
0.261443
0.256079
0.250537
0.247388
-0.056402
0.189425
0.238554
-0.008530
-0.021014
-0.026608
0.016803
0.233074
0.234324
0.145143
0.170377
0.009893
0.228290
-0.021965
0.247363
0.088396
0.072726
-0.033139
0.199815
0.224096
0.044184
0.030880
-0.008550
0.233091
-0.026385
0.006050
-0.023227
0.206634
-0.044870
-0.019659
0.243190
-0.045790
-0.037333
-0.035113
0.240193
0.005334
-0.038911
-0.040855
0.215810
-0.049128
0.209690
-0.046770
0.262380
0.182418
0.253859
0.257483
0.234396
-0.031167
0.251512
0.196000
-0.019189
-0.021435
0.237377
-0.043852
0.228217
-0.012790
-0.035563
0.222757
0.240633
0.216700
0.247093
-0.049532
0.252904
-0.017070
0.205262
-0.006268
0.000563
0.214650
0.260465
0.249579
0.011074
0.259918
-0.046912
0.123381
0.244058
0.013459
-0.025620
0.020067
-0.042875
0.182282
0.015821
-0.029747
0.015163
-0.002988
0.049321
0.186681
0.005769
-0.043784
0.240772
0.248445
-0.040446
0.250488
-0.020101
-0.000150
-0.039934
-0.033457
0.223274
-0.013688
0.256562
0.176711
0.201407
0.240438
0.223928
0.210254
0.089761
0.010779
0.238484
-0.030757
0.235222
0.025383
0.208569
-0.042141
-0.048294
-0.033990
0.211725
0.259293
0.249435
-0.045915
0.226748
0.003262
0.226595
-0.019367
-0.016950
0.246067
0.219166
-0.020376
-0.027867
0.160857
0.140494
0.022111
0.064369
0.104318
-0.031873
0.139854
0.229132
0.008881
0.033903
-0.020954
-0.043731
-0.024079
-0.025550
0.230753
0.232077
0.206852
-0.009320
-0.007067
-0.000744
-0.031837