# vtk DataFile Version 2.0
Test
ASCII
DATASET POLYDATA
POINTS 5510 float
0.000000 0.000000 0.000000
0.080000 0.000000 0.000000
0.080000 0.160000 0.000000
0.000000 0.160000 0.000000
0.035000 0.076250 0.000000
0.046500 0.083750 0.000000
0.002000 0.000000 0.000000
0.004000 0.000000 0.000000
0.006000 0.000000 0.000000
0.008000 0.000000 0.000000
0.010000 0.000000 0.000000
0.012000 0.000000 0.000000
0.014000 0.000000 0.000000
0.016000 0.000000 0.000000
0.018000 0.000000 0.000000
0.020000 0.000000 0.000000
0.022000 0.000000 0.000000
0.024000 0.000000 0.000000
0.026000 0.000000 0.000000
0.028000 0.000000 0.000000
0.030000 0.000000 0.000000
0.032000 0.000000 0.000000
0.034000 0.000000 0.000000
0.036000 0.000000 0.000000
0.038000 0.000000 0.000000
0.040000 0.000000 0.000000
0.042000 0.000000 0.000000
0.044000 0.000000 0.000000
0.046000 0.000000 0.000000
0.048000 0.000000 0.000000
0.050000 0.000000 0.000000
0.052000 0.000000 0.000000
0.054000 0.000000 0.000000
0.056000 0.000000 0.000000
0.058000 0.000000 0.000000
0.060000 0.000000 0.000000
0.062000 0.000000 0.000000
0.064000 0.000000 0.000000
0.066000 0.000000 0.000000
0.068000 0.000000 0.000000
0.070000 0.000000 0.000000
0.072000 0.000000 0.000000
0.074000 0.000000 0.000000
0.076000 0.000000 0.000000
0.078000 0.000000 0.000000
0.080000 0.002000 0.000000
0.080000 0.004000 0.000000
0.080000 0.006000 0.000000
0.080000 0.008000 0.000000
0.080000 0.010000 0.000000
0.080000 0.012000 0.000000
0.080000 0.014000 0.000000
0.080000 0.016000 0.000000
0.080000 0.018000 0.000000
0.080000 0.020000 0.000000
0.080000 0.022000 0.000000
0.080000 0.024000 0.000000
0.080000 0.026000 0.000000
0.080000 0.028000 0.000000
0.080000 0.030000 0.000000
0.080000 0.032000 0.000000
0.080000 0.034000 0.000000
0.080000 0.036000 0.000000
0.080000 0.038000 0.000000
0.080000 0.040000 0.000000
0.080000 0.042000 0.000000
0.080000 0.044000 0.000000
0.080000 0.046000 0.000000
0.080000 0.048000 0.000000
0.080000 0.050000 0.000000
0.080000 0.052000 0.000000
0.080000 0.054000 0.000000
0.080000 0.056000 0.000000
0.080000 0.058000 0.000000
0.080000 0.060000 0.000000
0.080000 0.062000 0.000000
0.080000 0.064000 0.000000
0.080000 0.066000 0.000000
0.080000 0.068000 0.000000
0.080000 0.070000 0.000000
0.080000 0.072000 0.000000
0.080000 0.074000 0.000000
0.080000 0.076000 0.000000
0.080000 0.078000 0.000000
0.080000 0.080000 0.000000
0.080000 0.082000 0.000000
0.080000 0.084000 0.000000
0.080000 0.086000 0.000000
0.080000 0.088000 0.000000
0.080000 0.090000 0.000000
0.080000 0.092000 0.000000
0.080000 0.094000 0.000000
0.080000 0.096000 0.000000
0.080000 0.098000 0.000000
0.080000 0.100000 0.000000
0.080000 0.102000 0.000000
0.080000 0.104000 0.000000
0.080000 0.106000 0.000000
0.080000 0.108000 0.000000
0.080000 0.110000 0.000000
0.080000 0.112000 0.000000
0.080000 0.114000 0.000000
0.080000 0.116000 0.000000
0.080000 0.118000 0.000000
0.080000 0.120000 0.000000
0.080000 0.122000 0.000000
0.080000 0.124000 0.000000
0.080000 0.126000 0.000000
0.080000 0.128000 0.000000
0.080000 0.130000 0.000000
0.080000 0.132000 0.000000
0.080000 0.134000 0.000000
0.080000 0.136000 0.000000
0.080000 0.138000 0.000000
0.080000 0.140000 0.000000
0.080000 0.142000 0.000000
0.080000 0.144000 0.000000
0.080000 0.146000 0.000000
0.080000 0.148000 0.000000
0.080000 0.150000 0.000000
0.080000 0.152000 0.000000
0.080000 0.154000 0.000000
0.080000 0.156000 0.000000
0.080000 0.158000 0.000000
0.078000 0.160000 0.000000
0.076000 0.160000 0.000000
0.074000 0.160000 0.000000
0.072000 0.160000 0.000000
0.070000 0.160000 0.000000
0.068000 0.160000 0.000000
0.066000 0.160000 0.000000
0.064000 0.160000 0.000000
0.062000 0.160000 0.000000
0.060000 0.160000 0.000000
0.058000 0.160000 0.000000
0.056000 0.160000 0.000000
0.054000 0.160000 0.000000
0.052000 0.160000 0.000000
0.050000 0.160000 0.000000
0.048000 0.160000 0.000000
0.046000 0.160000 0.000000
0.044000 0.160000 0.000000
0.042000 0.160000 0.000000
0.040000 0.160000 0.000000
0.038000 0.160000 0.000000
0.036000 0.160000 0.000000
0.034000 0.160000 0.000000
0.032000 0.160000 0.000000
0.030000 0.160000 0.000000
0.028000 0.160000 0.000000
0.026000 0.160000 0.000000
0.024000 0.160000 0.000000
0.022000 0.160000 0.000000
0.020000 0.160000 0.000000
0.018000 0.160000 0.000000
0.016000 0.160000 0.000000
0.014000 0.160000 0.000000
0.012000 0.160000 0.000000
0.010000 0.160000 0.000000
0.008000 0.160000 0.000000
0.006000 0.160000 0.000000
0.004000 0.160000 0.000000
0.002000 0.160000 0.000000
0.000000 0.158000 0.000000
0.000000 0.156000 0.000000
0.000000 0.154000 0.000000
0.000000 0.152000 0.000000
0.000000 0.150000 0.000000
0.000000 0.148000 0.000000
0.000000 0.146000 0.000000
0.000000 0.144000 0.000000
0.000000 0.142000 0.000000
0.000000 0.140000 0.000000
0.000000 0.138000 0.000000
0.000000 0.136000 0.000000
0.000000 0.134000 0.000000
0.000000 0.132000 0.000000
0.000000 0.130000 0.000000
0.000000 0.128000 0.000000
0.000000 0.126000 0.000000
0.000000 0.124000 0.000000
0.000000 0.122000 0.000000
0.000000 0.120000 0.000000
0.000000 0.118000 0.000000
0.000000 0.116000 0.000000
0.000000 0.114000 0.000000
0.000000 0.112000 0.000000
0.000000 0.110000 0.000000
0.000000 0.108000 0.000000
0.000000 0.106000 0.000000
0.000000 0.104000 0.000000
0.000000 0.102000 0.000000
0.000000 0.100000 0.000000
0.000000 0.098000 0.000000
0.000000 0.096000 0.000000
0.000000 0.094000 0.000000
0.000000 0.092000 0.000000
0.000000 0.090000 0.000000
0.000000 0.088000 0.000000
0.000000 0.086000 0.000000
0.000000 0.084000 0.000000
0.000000 0.082000 0.000000
0.000000 0.080000 0.000000
0.000000 0.078000 0.000000
0.000000 0.076000 0.000000
0.000000 0.074000 0.000000
0.000000 0.072000 0.000000
0.000000 0.070000 0.000000
0.000000 0.068000 0.000000
0.000000 0.066000 0.000000
0.000000 0.064000 0.000000
0.000000 0.062000 0.000000
0.000000 0.060000 0.000000
0.000000 0.058000 0.000000
0.000000 0.056000 0.000000
0.000000 0.054000 0.000000
0.000000 0.052000 0.000000
0.000000 0.050000 0.000000
0.000000 0.048000 0.000000
0.000000 0.046000 0.000000
0.000000 0.044000 0.000000
0.000000 0.042000 0.000000
0.000000 0.040000 0.000000
0.000000 0.038000 0.000000
0.000000 0.036000 0.000000
0.000000 0.034000 0.000000
0.000000 0.032000 0.000000
0.000000 0.030000 0.000000
0.000000 0.028000 0.000000
0.000000 0.026000 0.000000
0.000000 0.024000 0.000000
0.000000 0.022000 0.000000
0.000000 0.020000 0.000000
0.000000 0.018000 0.000000
0.000000 0.016000 0.000000
0.000000 0.014000 0.000000
0.000000 0.012000 0.000000
0.000000 0.010000 0.000000
0.000000 0.008000 0.000000
0.000000 0.006000 0.000000
0.000000 0.004000 0.000000
0.000000 0.002000 0.000000
0.035411 0.076518 0.000000
0.035821 0.076786 0.000000
0.036232 0.077054 0.000000
0.036643 0.077321 0.000000
0.037054 0.077589 0.000000
0.037464 0.077857 0.000000
0.037875 0.078125 0.000000
0.038286 0.078393 0.000000
0.038696 0.078661 0.000000
0.039107 0.078929 0.000000
0.039518 0.079196 0.000000
0.039929 0.079464 0.000000
0.040339 0.079732 0.000000
0.040750 0.080000 0.000000
0.041161 0.080268 0.000000
0.041571 0.080536 0.000000
0.041982 0.080804 0.000000
0.042393 0.081071 0.000000
0.042804 0.081339 0.000000
0.043214 0.081607 0.000000
0.043625 0.081875 0.000000
0.044036 0.082143 0.000000
0.044446 0.082411 0.000000
0.044857 0.082679 0.000000
0.045268 0.082946 0.000000
0.045679 0.083214 0.000000
0.046089 0.083482 0.000000
0.040000 0.002000 0.000000
0.040001 0.158005 0.000000
0.002000 0.116000 0.000000
0.078000 0.048000 0.000000
0.002000 0.106000 0.000000
0.078000 0.058000 0.000000
0.001986 0.042173 0.000000
0.078015 0.117826 0.000000
0.001985 0.094174 0.000000
0.001985 0.084174 0.000000
0.001914 0.056074 0.000000
0.002000 0.072000 0.000000
0.078015 0.065826 0.000000
0.078016 0.075826 0.000000
0.078000 0.088000 0.000000
0.078000 0.104000 0.000000
0.078003 0.029997 0.000000
0.001998 0.130002 0.000000
0.002000 0.032000 0.000000
0.078013 0.128003 0.000000
0.056000 0.158000 0.000000
0.026000 0.002000 0.000000
0.060000 0.002000 0.000000
0.020000 0.158000 0.000000
0.002000 0.020000 0.000000
0.078000 0.142000 0.000000
0.002000 0.146000 0.000000
0.078000 0.020000 0.000000
0.016000 0.002000 0.000000
0.068000 0.002000 0.000000
0.066000 0.158000 0.000000
0.002000 0.014000 0.000000
0.008000 0.158000 0.000000
0.010000 0.002000 0.000000
0.078000 0.148000 0.000000
0.078000 0.008000 0.000000
0.078005 0.037995 0.000000
0.051991 0.001990 0.000000
0.028000 0.158000 0.000000
0.002000 0.008000 0.000000
0.078000 0.094000 0.000000
0.078000 0.110000 0.000000
0.001983 0.066159 0.000000
0.002000 0.050000 0.000000
0.046000 0.158000 0.000000
0.078000 0.134000 0.000000
0.002000 0.140000 0.000000
0.006000 0.002000 0.000000
0.002000 0.154000 0.000000
0.074000 0.002000 0.000000
0.078000 0.152000 0.000000
0.074000 0.158000 0.000000
0.078000 0.080000 0.000000
0.078000 0.070000 0.000000
0.078000 0.122000 0.000000
0.002000 0.090000 0.000000
0.002000 0.080000 0.000000
0.002000 0.038000 0.000000
0.002000 0.102000 0.000000
0.002000 0.112000 0.000000
0.036000 0.002000 0.000000
0.078000 0.042000 0.000000
0.032000 0.002000 0.000000
0.047987 0.001989 0.000000
0.032008 0.158010 0.000000
0.002000 0.028000 0.000000
0.002000 0.126000 0.000000
0.060000 0.158000 0.000000
0.022000 0.002000 0.000000
0.002000 0.136000 0.000000
0.078000 0.024000 0.000000
0.012000 0.158000 0.000000
0.078000 0.158000 0.000000
0.001947 0.003947 0.000000
0.002000 0.158000 0.000000
0.078000 0.012000 0.000000
0.078000 0.096000 0.000000
0.078000 0.098000 0.000000
0.078000 0.082000 0.000000
0.078111 0.099889 0.000000
0.078035 0.083965 0.000000
0.078000 0.090000 0.000000
0.078000 0.106000 0.000000
0.078000 0.072000 0.000000
0.078000 0.112000 0.000000
0.078043 0.061976 0.000000
0.078000 0.114000 0.000000
0.002000 0.064000 0.000000
0.002000 0.062000 0.000000
0.002000 0.088000 0.000000
0.002000 0.078000 0.000000
0.002000 0.060000 0.000000
0.001966 0.076034 0.000000
0.002000 0.070000 0.000000
0.002000 0.054000 0.000000
0.001957 0.098024 0.000000
0.002000 0.048000 0.000000
0.002000 0.046000 0.000000
[...]
POINT_DATA 5510
SCALARS UX float 1
LOOKUP_TABLE default
-0.009657
0.009154
0.000000
-0.018430
-0.006010
-0.002966
-0.009185
-0.008712
-0.008240
-0.007767
-0.007295
-0.006823
-0.006351
-0.005879
-0.005408
-0.004937
-0.004467
-0.003997
-0.003528
-0.003059
-0.002590
-0.002122
-0.001654
-0.001186
-0.000719
-0.000251
0.000216
0.000683
0.001151
0.001618
0.002086
0.002554
0.003022
0.003491
0.003960
0.004430
0.004900
0.005371
0.005842
0.006314
0.006786
0.007259
0.007732
0.008206
0.008679
0.009049
0.008946
0.008842
0.008739
0.008636
0.008534
0.008432
0.008330
0.008229
0.008128
0.008028
0.007928
0.007829
0.007731
0.007634
0.007538
0.007443
0.007349
0.007256
0.007165
0.007074
0.006985
0.006897
0.006809
0.006723
0.006637
0.006551
0.006465
0.006378
0.006290
0.006201
0.006110
0.006017
0.005921
0.005822
0.005721
0.005614
0.005504
0.005389
0.005268
0.005145
0.005014
0.004877
0.004734
0.004587
0.004434
0.004277
0.004118
0.003958
0.003799
0.003643
0.003492
0.003342
0.003201
0.003066
0.002936
0.002808
0.002688
0.002570
0.002456
0.002345
0.002235
0.002128
0.002022
0.001918
0.001814
0.001711
0.001609
0.001507
0.001406
0.001304
0.001203
0.001103
0.001003
0.000904
0.000805
0.000708
0.000597
0.000414
-0.000003
-0.000499
-0.000988
-0.001472
-0.001951
-0.002427
-0.002902
-0.003377
-0.003850
-0.004322
-0.004794
-0.005264
-0.005735
-0.006205
-0.006674
-0.007143
-0.007612
-0.008080
-0.008548
-0.009016
-0.009484
-0.009951
-0.010419
-0.010887
-0.011355
-0.011824
-0.012293
-0.012762
-0.013231
-0.013701
-0.014172
-0.014643
-0.015114
-0.015587
-0.016059
-0.016532
-0.017006
-0.017481
-0.017955
-0.018325
-0.018221
-0.018118
-0.018015
-0.017913
-0.017811
-0.017709
-0.017608
-0.017507
-0.017407
-0.017307
-0.017209
-0.017110
-0.017013
-0.016917
-0.016821
-0.016727
-0.016633
-0.016541
-0.016450
-0.016359
-0.016270
-0.016182
-0.016094
-0.016006
-0.015919
-0.015832
-0.015744
-0.015656
-0.015566
-0.015475
-0.015382
-0.015287
-0.015189
-0.015088
-0.014986
-0.014878
-0.014767
-0.014652
-0.014532
-0.014409
-0.014280
-0.014144
-0.014004
-0.013861
-0.013711
-0.013559
-0.013404
-0.013248
-0.013092
-0.012939
-0.012789
-0.012641
-0.012500
-0.012364
-0.012229
-0.012104
-0.011982
-0.011863
-0.011746
-0.011634
-0.011522
-0.011414
-0.011307
-0.011201
-0.011097
-0.010993
-0.010890
-0.010787
-0.010685
-0.010582
-0.010480
-0.010378
-0.010276
-0.010173
-0.010070
-0.009968
-0.009864
-0.009761
-0.005889
-0.005770
-0.005607
-0.005447
-0.005320
-0.005229
-0.005129
-0.005019
-0.004946
-0.004839
-0.004747
-0.004673
-0.004573
-0.004473
-0.004352
-0.004237
-0.004125
-0.004009
-0.003905
-0.003831
-0.003749
-0.003670
-0.003575
-0.003484
-0.003373
-0.003248
-0.003126
-0.000354
-0.008913
-0.015792
0.006331
-0.015358
0.005906
-0.011392
0.002100
-0.014833
-0.014319
-0.012326
-0.013536
0.005563
0.005057
0.004266
0.003001
0.007156
-0.016439
-0.010829
0.001546
-0.005161
-0.003631
0.004327
-0.013598
-0.010210
0.000829
-0.017233
0.007652
-0.005983
0.006210
-0.002800
-0.009904
-0.016428
-0.007399
0.000527
0.008265
0.006778
0.002450
-0.011721
-0.009598
0.003798
0.002577
-0.013098
-0.011874
-0.007509
0.001235
-0.016930
-0.008343
-0.017643
0.007627
0.000326
-0.000901
0.004808
0.005360
0.001863
-0.014626
-0.014071
-0.011151
-0.015184
-0.015616
-0.001289
0.006594
-0.002225
0.001513
-0.010783
-0.010620
-0.016248
-0.004219
-0.004571
-0.016731
0.007451
-0.015483
-0.000017
-0.009402
-0.017850
0.008059
0.003636
0.003474
0.004682
0.003348
0.004559
0.004114
0.002854
0.005258
0.002446
0.005743
0.002322
-0.012924
-0.012765
-0.014522
-0.013946
-0.012607
-0.013824
-0.013389
-0.012153
-0.015017
-0.011743
-0.011618
0.006076
0.006511
0.006245
-0.015530
-0.015971
0.001755
-0.011042
0.000581
-0.009849
-0.008445
0.006966
-0.007040
-0.006571
-0.016154
-0.002694
0.003388
-0.012659
-0.010517
0.001443
0.001133
-0.010414
0.001032
-0.016632
-0.006102
0.007352
-0.017132
-0.003746
-0.005041
0.005267
-0.014539
0.000728
0.007855
-0.017437
-0.010108
-0.009802
-0.002325
-0.006455
-0.001851
0.000226
-0.017376
-0.008849
-0.009366
0.008471
0.007154
0.008575
-0.015153
0.005866
-0.014177
-0.013633
-0.013080
-0.012151
-0.011404
0.004373
0.003810
0.002899
0.004913
0.001990
-0.008803
-0.015683
0.001069
-0.010683
-0.002331
-0.006003
-0.010145
0.000558
-0.004674
-0.016254
0.006974
-0.004116
-0.009635
-0.006086
-0.016758
-0.002228
0.002528
0.006064
-0.009431
-0.000151
0.007524
0.004127
0.003010
0.003334
-0.013390
-0.012302
-0.012617
-0.011161
0.003986
0.004437
0.003185
0.004957
0.005166
0.002738
0.005482
0.002216
-0.013264
-0.014428
-0.013704
-0.014750
-0.012466
-0.014218
-0.012025
-0.011510
0.005654
-0.014926
0.005830
-0.015107
0.006001
0.002004
-0.015281
-0.011295
0.006170
-0.015453
-0.015720
0.006425
-0.015887
0.006690
-0.016066
0.000110
-0.009377
-0.000824
-0.007975
0.001045
-0.010313
0.001655
-0.010941
0.006872
-0.001759
0.001981
-0.011250
-0.006934
0.002918
-0.012188
-0.016343
-0.010726
0.001339
0.007060
-0.010042
-0.003162
0.000760
-0.005632
0.003856
-0.013127
-0.010313
0.000931
-0.016535
0.007253
-0.016830
-0.004690
-0.004101
-0.017031
0.007551
-0.003273
-0.005512
-0.014068
0.004796
-0.015010
0.005738
0.000628
-0.010006
-0.015955
0.007753
-0.017335
0.000427
0.007957
-0.009700
-0.006926
-0.017540
-0.001375
0.008161
0.000116
-0.007871
-0.009495
-0.016902
-0.008919
0.006682
-0.000436
-0.017272
-0.017746
0.008368
0.007997
0.008101
-0.014675
0.005398
-0.011726
0.000940
0.002434
-0.009673
-0.011155
0.002819
-0.013025
0.004693
0.007482
-0.014907
0.000153
0.006404
-0.000913
-0.015851
-0.017065
0.003536
0.001758
-0.012813
0.005247
0.005027
-0.014519
-0.014296
0.004719
0.004503
-0.013980
-0.013764
0.005574
-0.014855
0.001536
-0.010467
-0.010209
-0.010251
0.006582
0.000865
-0.015869
-0.003266
-0.004204
-0.005615
0.005634
-0.016555
-0.016354
-0.007030
-0.009227
-0.016860
0.007278
0.007075
-0.001285
-0.000258
0.007687
0.007420
0.003660
0.003969
-0.012933
0.002742
-0.013233
0.001897
-0.011991
-0.011564
0.005985
0.004821
-0.014083
-0.011056
-0.010807
-0.015254
-0.015420
0.002244
0.002391
0.005707
0.005787
-0.014990
-0.015072
-0.009289
0.003189
0.004251
-0.015595
-0.012470
-0.013512
0.002121
0.006219
0.006135
-0.011292
-0.010576
0.001180
0.001877
-0.001852
-0.007397
0.000021
-0.007884
0.000968
-0.015778
-0.012088
-0.005535
-0.002799
0.006776
0.006875
-0.016058
-0.016156
0.000456
0.003754
-0.009942
-0.009736
-0.006468
0.000660
-0.005144
-0.008345
-0.004587
-0.013965
-0.003173
-0.003645
-0.002700
-0.016656
-0.006558
0.006578
-0.009533
-0.009329
-0.007974
0.007050
-0.001756
-0.008447
0.007894
-0.000049
-0.000366
-0.017168
-0.009022
-0.016798
-0.010345
0.005679
-0.014597
0.001416
-0.013333
-0.013877
-0.012518
-0.008204
0.004614
0.004091
0.003203
-0.015137
0.000713
-0.005900
-0.001970
0.006304
0.000188
-0.015584
-0.004308
-0.003545
-0.009262
-0.005718
-0.016080
-0.008856
-0.011121
-0.011574
0.001825
-0.001661
0.003584
-0.012867
-0.010609
0.005554
0.002751
-0.012049
-0.009780
-0.010112
-0.015308
-0.002903
-0.006661
0.000254
-0.016283
-0.000524
0.002267
0.003089
0.001689
-0.012378
0.004613
0.005129
-0.013873
-0.014399
0.005314
-0.014588
-0.015332
0.003820
0.002549
-0.011875
0.005485
-0.014764
-0.010962
-0.013079
0.001619
-0.015498
-0.011822
-0.011605
-0.007756
-0.009160
-0.010669
0.004416
-0.013678
0.006311
-0.014908
-0.010851
0.005625
0.002339
-0.001391
-0.000454
0.001400
0.001406
0.001294
0.006495
-0.010359
0.005346
-0.005058
0.006681
-0.011621
-0.015963
0.000084
0.000498
-0.006831
-0.003736
-0.009840
-0.014633
-0.014824
0.003287
-0.012556
0.006403
0.006600
-0.009573
-0.015683
-0.015879
-0.004485
-0.003073
0.000392
0.004224
-0.013495
-0.016454
-0.005246
-0.009747
0.007176
-0.009059
0.000355
-0.014435
0.005163
-0.002602
0.006106
0.007379
0.006947
-0.007502
0.000052
-0.016962
0.007584
-0.008550
-0.015378
0.007316
0.007790
-0.009125
-0.000729
-0.000821
-0.016694
-0.016324
0.000480
0.001951
-0.014153
-0.011962
-0.011310
0.002700
-0.007691
-0.015116
0.000032
0.000839
0.005836
-0.009312
-0.011053
0.002717
0.005059
-0.003444
-0.012923
-0.005351
0.006905
0.005028
-0.014332
0.006843
-0.015275
0.002156
-0.014306
0.005937
-0.000284
-0.011448
0.004156
-0.013475
-0.014129
-0.013937
0.004853
0.004670
-0.001016
-0.015492
-0.004959
-0.009368
-0.003841
0.006702
-0.000117
-0.008754
-0.016220
-0.011212
0.004344
-0.013606
-0.010458
0.001444
-0.012737
0.003401
0.001544
-0.014411
0.005121
0.005308
-0.011502
0.005607
-0.014519
-0.014987
-0.014896
-0.015053
0.003940
-0.013192
0.003632
0.000819
0.001082
-0.012913
-0.001509
-0.010106
-0.009615
0.002883
-0.012165
0.004497
-0.013760
0.002095
-0.010226
0.006209
0.005764
-0.010972
0.001773
0.001312
-0.015399
-0.015218
-0.000095
-0.005435
-0.014707
-0.009472
-0.003370
0.000604
-0.002440
-0.011523
-0.009887
-0.010001
0.005418
-0.010733
0.006500
0.003185
-0.006365
0.006026
-0.007293
-0.015780
-0.015979
0.000291
-0.000016
-0.009104
-0.013392
0.004121
-0.009162
-0.004777
0.006002
-0.004015
-0.006189
-0.002974
-0.008959
-0.011987
-0.000220
-0.000422
0.006474
0.007110
0.007213
-0.007604
-0.007132
-0.008652
-0.008077
-0.016181
-0.002131
-0.016386
-0.016591
-0.008701
-0.001194
-0.000626
0.005225
0.004619
-0.013195
-0.012733
-0.010431
-0.011042
0.003936
0.003494
-0.001149
-0.010959
0.002619
-0.012822
-0.005335
-0.003343
-0.015507
-0.008690
-0.014549
-0.000588
-0.009890
-0.003006
0.004863
0.004250
-0.013511
-0.008486
-0.006292
-0.007235
-0.015809
-0.016117
-0.009057
0.002513
0.001859
0.003160
0.002809
-0.012449
-0.012081
-0.011794
0.005122
0.001537
-0.010716
0.005747
-0.000177
0.003690
-0.003944
0.006029
-0.004882
-0.008282
-0.000894
-0.001565
-0.008145
-0.014681
-0.014848
-0.015026
0.002339
0.002021
-0.014470
0.001253
0.000980
-0.011635
0.004755
-0.014026
-0.014060
-0.013902
-0.014211
0.004933
0.005233
0.001195
0.000951
0.004000
-0.013256
-0.011158
-0.007238
-0.006726
-0.009767
-0.009550
0.000137
0.000365
-0.009533
-0.010583
-0.014197
-0.010190
0.005851
0.002247
-0.004853
0.001306
-0.000072
0.000363
-0.009004
0.004903
0.005933
-0.002079
-0.014363
-0.015309
-0.015213
-0.009424
0.006803
-0.012453
0.003652
-0.009207
-0.000385
-0.005821
0.006230
-0.004383
-0.003913
-0.006263
0.006114
-0.011422
-0.013861
0.005530
-0.015607
0.004589
-0.008895
-0.000320
0.006371
0.006637
0.007008
-0.002504
-0.014803
-0.001097
0.006740
-0.007707
-0.008180
-0.015747
-0.016488
-0.000556
-0.012931
-0.011315
0.004214
-0.013474
-0.009440
-0.013658
0.004422
-0.011699
-0.012846
0.002276
0.003562
-0.007591
-0.000319
-0.008848
-0.014563
-0.010860
0.005280
-0.000748
-0.004985
0.004018
-0.015036
-0.008997
-0.008536
-0.014229
0.001978
0.000785
-0.013639
-0.013820
0.004366
0.004534
0.004649
-0.006623
-0.005217
0.000499
-0.000197
0.005389
0.000737
-0.014745
0.005465
-0.012358
-0.005924
-0.000792
0.004956
0.005898
-0.016015
-0.011169
-0.013079
0.003808
0.000901
0.002963
0.003313
-0.012223
-0.010048
-0.012554
-0.013510
0.004242
0.001149
0.005156
0.004754
0.001689
-0.011047
0.001037
-0.010542
-0.010886
-0.011556
-0.009656
0.004102
0.000258
-0.013364
-0.013719
-0.013947
-0.000691
0.005564
-0.014937
0.005654
0.002151
0.001615
-0.010303
-0.000536
0.005306
0.003566
0.001212
-0.009069
-0.014269
-0.014757
-0.011885
-0.003478
-0.000485
0.006331
0.006535
-0.004280
-0.004415
-0.008741
-0.015408
-0.010492
-0.010015
-0.001618
-0.008588
0.004971
-0.003811
-0.000691
0.006128
-0.005799
-0.015707
-0.002875
-0.008792
-0.006764
-0.014700
-0.015644
-0.007338
0.003083
-0.015912
-0.013289
0.006165
0.006268
-0.008384
-0.001466
-0.000996
-0.007810
-0.002034
-0.002542
-0.008603
-0.014600
-0.012810
-0.013118
-0.010807
-0.011268
0.003762
0.002420
-0.013726
0.004450
0.001883
0.003315
0.004768
-0.013305
0.004043
-0.010143
-0.011307
-0.010473
-0.000341
-0.008389
-0.002645
0.002055
-0.014118
-0.004178
0.005761
-0.012720
-0.008219
-0.013319
-0.013132
0.003867
-0.001056
0.006063
-0.014127
-0.015236
-0.012542
0.003333
0.000674
0.004676
0.003107
0.002777
0.002550
0.004202
0.004354
-0.009190
-0.008544
-0.012367
-0.014233
-0.005679
-0.014936
-0.003581
-0.004518
-0.003243
-0.006866
-0.001935
-0.001258
-0.012745
0.003492
-0.012028
-0.010763
0.002111
0.001422
0.001100
-0.009639
-0.009839
-0.013509
0.000803
-0.013582
-0.010621
-0.010795
0.000613
-0.009313
-0.011400
-0.010934
0.003694
-0.007075
-0.000197
-0.012967
0.000489
-0.008046
0.000059
-0.009935
-0.009453
-0.014390
0.005103
0.001759
-0.006164
-0.000427
0.001677
-0.008641
0.004847
-0.013770
0.000261
-0.014650
0.004462
-0.014841
0.005369
-0.011791
-0.011321
-0.013929
-0.008984
-0.004746
-0.000640
0.005472
0.003549
-0.012881
0.003624
-0.008117
-0.007441
-0.014475
-0.005455
-0.001161
-0.001366
-0.013756
-0.015135
-0.006394
0.005426
0.006432
-0.000849
-0.009851
0.005562
-0.002406
0.004487
0.005695
-0.015542
-0.008014
-0.008429
0.005797
-0.007912
-0.015172
-0.002181
-0.015439
0.002517
0.005189
-0.010400
-0.010444
0.002048
0.001550
-0.013250
0.003977
0.000782
0.003019
-0.011818
-0.009137
0.004310
-0.012828
0.003555
-0.012367
0.002082
0.003149
0.001356
-0.008398
-0.000647
-0.013943
-0.006547
-0.010302
-0.002283
0.004728
-0.014280
0.001953
-0.004622
-0.001102
-0.008073
-0.014567
0.003427
-0.012689
-0.007750
-0.001528
0.005000
-0.006026
0.003915
0.005593
0.005018
-0.011229
-0.013656
0.005962
-0.006970
-0.007543
-0.014968
0.001644
-0.011449
0.003871
-0.013140
0.002599
-0.009441
0.002632
-0.012109
-0.014017
-0.013104
0.004273
0.004706
-0.013442
-0.010377
0.001272
-0.013212
-0.010342
0.003190
0.004128
-0.000076
0.000366
0.000173
0.000620
-0.007058
-0.014313
-0.008897
0.000112
-0.011022
-0.011144
0.004928
-0.000885
-0.009381
-0.012430
-0.014155
-0.006039
0.001110
-0.013318
0.001889
0.001583
0.003201
-0.012450
0.004005
-0.012681
-0.008533
-0.008812
-0.014101
0.001147
-0.000951
-0.014375
-0.005107
0.004818
-0.013840
-0.003112
0.005661
0.004527
-0.004053
-0.013186
0.005861
-0.004642
0.005322
-0.005090
-0.008325
-0.014666
-0.003710
-0.001835
-0.014597
-0.001312
0.004385
-0.008283
-0.001262
0.003382
-0.009997
-0.012255
-0.002307
-0.002776
-0.015070
-0.015337
0.002979
-0.001721
-0.009001
-0.000799
0.003327
-0.012586
-0.010597
0.000688
-0.007492
0.002945
-0.010828
-0.010616
0.003912
-0.013183
0.002550
-0.009666
0.000407
-0.011905
0.000862
-0.012170
-0.008695
-0.012880
-0.012320
-0.011990
0.003058
-0.011086
-0.010098
0.001677
-0.008352
-0.008063
-0.006400
0.004266
-0.013822
-0.004728
-0.004539
0.000012
-0.014101
-0.012617
-0.013557
-0.000449
-0.010687
0.003816
-0.010062
-0.012905
0.003529
-0.012801
0.004256
-0.009737
0.004479
0.002930
-0.003218
-0.003143
-0.007858
-0.004158
-0.010222
0.005193
-0.007073
-0.002201
-0.014866
-0.014498
-0.009432
0.004641
-0.011777
-0.000085
-0.013165
0.000436
0.004260
0.003461
-0.012732
-0.012785
0.003775
0.003808
-0.008679
0.000864
0.002765
-0.006943
-0.012166
0.003969
-0.000519
-0.013794
-0.013700
-0.013585
-0.012273
0.000125
0.004390
-0.008841
-0.000768
0.003020
-0.008182
0.001488
0.001230
-0.001417
0.003261
-0.012511
-0.010919
0.000552
-0.014022
-0.013351
0.004031
-0.007965
-0.010760
-0.010390
-0.000992
0.003638
-0.002750
0.005096
-0.013500
0.005493
-0.001629
-0.005571
0.003445
-0.014191
-0.004075
-0.006500
-0.014765
-0.007647
0.004905
-0.001732
-0.001208
0.005225
-0.014468
-0.007935
-0.001361
-0.001824
-0.005558
0.001022
0.005293
-0.011690
0.004852
0.002414
0.001735
-0.013864
0.000734
-0.007946
-0.009844
0.002627
0.002368
-0.008842
0.001507
-0.000258
-0.011581
0.002179
-0.009225
0.000465
0.002908
-0.014144
-0.010085
-0.013013
0.003766
-0.012412
0.003267
-0.012007
-0.010723
0.002410
0.002790
0.000866
-0.008307
-0.000959
-0.013378
-0.000101
-0.001929
-0.007612
0.001851
-0.010672
0.004536
-0.001449
-0.004436
-0.007614
-0.001774
-0.012539
-0.013161
-0.006737
0.000483
0.001259
-0.008409
0.003973
0.004182
-0.007905
-0.013495
0.000273
0.000281
-0.004264
0.002274
-0.007394
-0.005661
0.004728
-0.002860
0.003345
-0.014004
-0.006604
0.004757
0.001815
-0.009051
0.003035
-0.012302
-0.010700
0.003871
-0.009900
-0.008209
-0.000365
0.002845
0.002969
-0.012095
-0.012226
-0.012024
-0.010057
-0.013747
-0.011910
-0.007424
-0.001218
0.002590
0.003155
-0.012430
-0.012904
-0.013652
-0.001882
-0.002098
0.000655
-0.010226
0.001010
-0.013734
0.001528
-0.010479
0.000160
0.002877
-0.013914
-0.003694
-0.013418
-0.009747
-0.012716
0.005393
-0.014397
-0.010244
-0.013082
-0.002670
0.004281
-0.005000
0.004089
-0.005931
0.005026
-0.014024
-0.005194
-0.012151
0.004355
0.005125
-0.007177
-0.003609
-0.001557
-0.007829
-0.014199
-0.011129
-0.008566
-0.009583
0.002831
-0.000902
0.004559
-0.009293
0.001170
-0.011193
-0.011583
-0.000048
0.002268
-0.000438
-0.008809
0.000046
-0.013732
-0.011805
-0.012811
0.003754
-0.008687
-0.011611
-0.009757
0.001467
0.000903
0.002459
0.000253
0.003725
-0.010846
-0.010573
-0.013203
-0.013454
-0.001898
-0.004366
-0.009640
-0.002235
0.003246
0.003472
-0.010326
-0.012979
-0.003507
-0.011643
-0.007150
-0.009883
-0.000785
0.002046
-0.013637
-0.004896
-0.002563
-0.013930
-0.006710
0.004926
-0.005297
0.004103
-0.009192
-0.008271
-0.009312
-0.007945
0.003817
0.003381
-0.000701
0.000297
-0.007747
0.002497
-0.013276
-0.011704
0.000761
-0.012643
-0.012367
0.003886
-0.012474
-0.001085
0.001401
0.002908
-0.012160
-0.007725
-0.010046
-0.013428
0.002284
0.000357
0.001944
0.000911
0.001321
0.000978
0.002677
-0.012940
-0.010588
-0.010199
-0.001331
-0.007503
0.004188
0.004633
-0.002396
-0.011962
-0.013572
-0.012427
0.003178
0.002702
-0.003333
0.004827
-0.006132
-0.005462
-0.007284
-0.011816
-0.014298
-0.001991
0.003605
-0.003804
-0.001665
0.000576
-0.013080
-0.003971
0.004560
0.003805
0.004030
-0.012054
-0.011588
-0.001466
-0.007485
-0.009122
-0.009005
0.004658
0.004444
0.002310
-0.013281
0.001392
-0.008439
-0.011254
-0.008749
-0.000548
-0.006288
0.000102
-0.013308
-0.013328
-0.000391
-0.000442
-0.000183
0.003466
-0.011443
0.003097
-0.012367
-0.000729
-0.011963
0.002898
-0.010389
-0.011312
0.002072
0.001124
-0.008283
-0.001568
0.003267
-0.007305
0.000358
0.001749
-0.012759
0.004075
-0.004792
0.003422
-0.012184
-0.012939
-0.012744
-0.007145
-0.000134
0.001025
-0.003870
0.001904
0.000608
0.000350
-0.002118
0.003608
-0.010116
-0.006244
0.004095
0.004266
0.004464
-0.002504
-0.002457
-0.013832
-0.011493
-0.000846
-0.001393
-0.000306
0.002760
-0.012031
-0.010469
0.002263
0.002371
-0.009882
-0.011722
0.003412
0.003518
0.003645
-0.009496
0.001172
-0.007963
0.001600
-0.001154
-0.000195
-0.012049
0.000791
-0.001525
-0.001780
-0.002006
-0.009907
0.003549
-0.013061
0.002518
0.002628
-0.011883
-0.013131
-0.011766
-0.012058
0.002787
-0.009644
-0.012508
-0.003036
-0.010100
-0.005764
-0.013443
-0.006925
-0.013364
-0.013006
-0.002341
-0.013732
-0.006815
0.002774
-0.002973
-0.003906
-0.009687
0.000115
-0.005822
-0.005353
-0.011031
0.003715
-0.012857
-0.008143
-0.004834
-0.001008
-0.013542
-0.007381
0.003894
-0.007168
0.000830
-0.012515
0.003653
-0.012410
-0.008389
-0.011490
-0.008661
-0.006660
-0.011502
-0.011133
-0.010969
-0.000250
-0.008657
-0.008913
0.003103
0.002797
-0.012064
-0.007543
0.002725
-0.011674
-0.011680
-0.009523
0.001993
0.000453
-0.001607
-0.008098
-0.006867
-0.000221
-0.002618
-0.004010
-0.010483
-0.002222
-0.011198
-0.000107
-0.012996
-0.007852
0.003074
0.003174
-0.010045
-0.009493
0.001243
-0.012046
0.000717
0.002157
-0.010762
-0.002577
-0.002802
-0.012415
-0.013177
-0.005404
-0.006459
0.004000
0.002687
0.003193
0.003029
-0.013370
-0.008291
-0.001112
-0.010516
-0.011303
-0.011635
-0.000539
0.002376
0.002408
-0.009442
-0.009076
-0.010253
0.002169
-0.011399
0.003247
0.000470
-0.009696
-0.012217
-0.007512
0.001957
-0.009914
-0.000003
-0.003414
0.002578
-0.011827
-0.001816
-0.011385
-0.007272
-0.012916
-0.011180
0.003150
-0.012614
-0.009574
-0.009103
0.002978
-0.001652
-0.012538
-0.012667
0.001663
-0.012827
-0.007043
-0.012997
0.004366
0.000995
0.002210
0.003984
-0.002038
-0.012086
0.003575
-0.008012
-0.005708
-0.006188
0.002809
-0.010938
-0.003440
-0.004330
-0.012089
-0.004473
-0.000666
-0.005881
0.003345
-0.011952
0.003349
-0.005252
-0.007040
-0.002920
-0.002341
-0.006351
0.003632
0.001289
-0.001099
0.004170
-0.012689
-0.009347
0.000271
-0.000850
-0.007097
-0.000276
-0.012812
-0.008763
-0.000616
-0.007941
-0.000875
-0.010199
-0.009635
0.000815
-0.002013
-0.012181