# vtk DataFile Version 2.0
Test
ASCII
DATASET POLYDATA
POINTS 5510 float
0.000000 0.000000 0.000000
0.080000 0.000000 0.000000
0.080000 0.160000 0.000000
0.000000 0.160000 0.000000
0.035000 0.076250 0.000000
0.046500 0.083750 0.000000
0.002000 0.000000 0.000000
0.004000 0.000000 0.000000
0.006000 0.000000 0.000000
0.008000 0.000000 0.000000
0.010000 0.000000 0.000000
0.012000 0.000000 0.000000
0.014000 0.000000 0.000000
0.016000 0.000000 0.000000
0.018000 0.000000 0.000000
0.020000 0.000000 0.000000
0.022000 0.000000 0.000000
0.024000 0.000000 0.000000
0.026000 0.000000 0.000000
0.028000 0.000000 0.000000
0.030000 0.000000 0.000000
0.032000 0.000000 0.000000
0.034000 0.000000 0.000000
0.036000 0.000000 0.000000
0.038000 0.000000 0.000000
0.040000 0.000000 0.000000
0.042000 0.000000 0.000000
0.044000 0.000000 0.000000
0.046000 0.000000 0.000000
0.048000 0.000000 0.000000
0.050000 0.000000 0.000000
0.052000 0.000000 0.000000
0.054000 0.000000 0.000000
0.056000 0.000000 0.000000
0.058000 0.000000 0.000000
0.060000 0.000000 0.000000
0.062000 0.000000 0.000000
0.064000 0.000000 0.000000
0.066000 0.000000 0.000000
0.068000 0.000000 0.000000
0.070000 0.000000 0.000000
0.072000 0.000000 0.000000
0.074000 0.000000 0.000000
0.076000 0.000000 0.000000
0.078000 0.000000 0.000000
0.080000 0.002000 0.000000
0.080000 0.004000 0.000000
0.080000 0.006000 0.000000
0.080000 0.008000 0.000000
0.080000 0.010000 0.000000
0.080000 0.012000 0.000000
0.080000 0.014000 0.000000
0.080000 0.016000 0.000000
0.080000 0.018000 0.000000
0.080000 0.020000 0.000000
0.080000 0.022000 0.000000
0.080000 0.024000 0.000000
0.080000 0.026000 0.000000
0.080000 0.028000 0.000000
0.080000 0.030000 0.000000
0.080000 0.032000 0.000000
0.080000 0.034000 0.000000
0.080000 0.036000 0.000000
0.080000 0.038000 0.000000
0.080000 0.040000 0.000000
0.080000 0.042000 0.000000
0.080000 0.044000 0.000000
0.080000 0.046000 0.000000
0.080000 0.048000 0.000000
0.080000 0.050000 0.000000
0.080000 0.052000 0.000000
0.080000 0.054000 0.000000
0.080000 0.056000 0.000000
0.080000 0.058000 0.000000
0.080000 0.060000 0.000000
0.080000 0.062000 0.000000
0.080000 0.064000 0.000000
0.080000 0.066000 0.000000
0.080000 0.068000 0.000000
0.080000 0.070000 0.000000
0.080000 0.072000 0.000000
0.080000 0.074000 0.000000
0.080000 0.076000 0.000000
0.080000 0.078000 0.000000
0.080000 0.080000 0.000000
0.080000 0.082000 0.000000
0.080000 0.084000 0.000000
0.080000 0.086000 0.000000
0.080000 0.088000 0.000000
0.080000 0.090000 0.000000
0.080000 0.092000 0.000000
0.080000 0.094000 0.000000
0.080000 0.096000 0.000000
0.080000 0.098000 0.000000
0.080000 0.100000 0.000000
0.080000 0.102000 0.000000
0.080000 0.104000 0.000000
0.080000 0.106000 0.000000
0.080000 0.108000 0.000000
0.080000 0.110000 0.000000
0.080000 0.112000 0.000000
0.080000 0.114000 0.000000
0.080000 0.116000 0.000000
0.080000 0.118000 0.000000
0.080000 0.120000 0.000000
0.080000 0.122000 0.000000
0.080000 0.124000 0.000000
0.080000 0.126000 0.000000
0.080000 0.128000 0.000000
0.080000 0.130000 0.000000
0.080000 0.132000 0.000000
0.080000 0.134000 0.000000
0.080000 0.136000 0.000000
0.080000 0.138000 0.000000
0.080000 0.140000 0.000000
0.080000 0.142000 0.000000
0.080000 0.144000 0.000000
0.080000 0.146000 0.000000
0.080000 0.148000 0.000000
0.080000 0.150000 0.000000
0.080000 0.152000 0.000000
0.080000 0.154000 0.000000
0.080000 0.156000 0.000000
0.080000 0.158000 0.000000
0.078000 0.160000 0.000000
0.076000 0.160000 0.000000
0.074000 0.160000 0.000000
0.072000 0.160000 0.000000
0.070000 0.160000 0.000000
0.068000 0.160000 0.000000
0.066000 0.160000 0.000000
0.064000 0.160000 0.000000
0.062000 0.160000 0.000000
0.060000 0.160000 0.000000
0.058000 0.160000 0.000000
0.056000 0.160000 0.000000
0.054000 0.160000 0.000000
0.052000 0.160000 0.000000
0.050000 0.160000 0.000000
0.048000 0.160000 0.000000
0.046000 0.160000 0.000000
0.044000 0.160000 0.000000
0.042000 0.160000 0.000000
0.040000 0.160000 0.000000
0.038000 0.160000 0.000000
0.036000 0.160000 0.000000
0.034000 0.160000 0.000000
0.032000 0.160000 0.000000
0.030000 0.160000 0.000000
0.028000 0.160000 0.000000
0.026000 0.160000 0.000000
0.024000 0.160000 0.000000
0.022000 0.160000 0.000000
0.020000 0.160000 0.000000
0.018000 0.160000 0.000000
0.016000 0.160000 0.000000
0.014000 0.160000 0.000000
0.012000 0.160000 0.000000
0.010000 0.160000 0.000000
0.008000 0.160000 0.000000
0.006000 0.160000 0.000000
0.004000 0.160000 0.000000
0.002000 0.160000 0.000000
0.000000 0.158000 0.000000
0.000000 0.156000 0.000000
0.000000 0.154000 0.000000
0.000000 0.152000 0.000000
0.000000 0.150000 0.000000
0.000000 0.148000 0.000000
0.000000 0.146000 0.000000
0.000000 0.144000 0.000000
0.000000 0.142000 0.000000
0.000000 0.140000 0.000000
0.000000 0.138000 0.000000
0.000000 0.136000 0.000000
0.000000 0.134000 0.000000
0.000000 0.132000 0.000000
0.000000 0.130000 0.000000
0.000000 0.128000 0.000000
0.000000 0.126000 0.000000
0.000000 0.124000 0.000000
0.000000 0.122000 0.000000
0.000000 0.120000 0.000000
0.000000 0.118000 0.000000
0.000000 0.116000 0.000000
0.000000 0.114000 0.000000
0.000000 0.112000 0.000000
0.000000 0.110000 0.000000
0.000000 0.108000 0.000000
0.000000 0.106000 0.000000
0.000000 0.104000 0.000000
0.000000 0.102000 0.000000
0.000000 0.100000 0.000000
0.000000 0.098000 0.000000
0.000000 0.096000 0.000000
0.000000 0.094000 0.000000
0.000000 0.092000 0.000000
0.000000 0.090000 0.000000
0.000000 0.088000 0.000000
0.000000 0.086000 0.000000
0.000000 0.084000 0.000000
0.000000 0.082000 0.000000
0.000000 0.080000 0.000000
0.000000 0.078000 0.000000
0.000000 0.076000 0.000000
0.000000 0.074000 0.000000
0.000000 0.072000 0.000000
0.000000 0.070000 0.000000
0.000000 0.068000 0.000000
0.000000 0.066000 0.000000
0.000000 0.064000 0.000000
0.000000 0.062000 0.000000
0.000000 0.060000 0.000000
0.000000 0.058000 0.000000
0.000000 0.056000 0.000000
0.000000 0.054000 0.000000
0.000000 0.052000 0.000000
0.000000 0.050000 0.000000
0.000000 0.048000 0.000000
0.000000 0.046000 0.000000
0.000000 0.044000 0.000000
0.000000 0.042000 0.000000
0.000000 0.040000 0.000000
0.000000 0.038000 0.000000
0.000000 0.036000 0.000000
0.000000 0.034000 0.000000
0.000000 0.032000 0.000000
0.000000 0.030000 0.000000
0.000000 0.028000 0.000000
0.000000 0.026000 0.000000
0.000000 0.024000 0.000000
0.000000 0.022000 0.000000
0.000000 0.020000 0.000000
0.000000 0.018000 0.000000
0.000000 0.016000 0.000000
0.000000 0.014000 0.000000
0.000000 0.012000 0.000000
0.000000 0.010000 0.000000
0.000000 0.008000 0.000000
0.000000 0.006000 0.000000
0.000000 0.004000 0.000000
0.000000 0.002000 0.000000
0.035411 0.076518 0.000000
0.035821 0.076786 0.000000
0.036232 0.077054 0.000000
0.036643 0.077321 0.000000
0.037054 0.077589 0.000000
0.037464 0.077857 0.000000
0.037875 0.078125 0.000000
0.038286 0.078393 0.000000
0.038696 0.078661 0.000000
0.039107 0.078929 0.000000
0.039518 0.079196 0.000000
0.039929 0.079464 0.000000
0.040339 0.079732 0.000000
0.040750 0.080000 0.000000
0.041161 0.080268 0.000000
0.041571 0.080536 0.000000
0.041982 0.080804 0.000000
0.042393 0.081071 0.000000
0.042804 0.081339 0.000000
0.043214 0.081607 0.000000
0.043625 0.081875 0.000000
0.044036 0.082143 0.000000
0.044446 0.082411 0.000000
0.044857 0.082679 0.000000
0.045268 0.082946 0.000000
0.045679 0.083214 0.000000
0.046089 0.083482 0.000000
0.040000 0.002000 0.000000
0.040001 0.158005 0.000000
0.002000 0.116000 0.000000
0.078000 0.048000 0.000000
0.002000 0.106000 0.000000
0.078000 0.058000 0.000000
0.001986 0.042173 0.000000
0.078015 0.117826 0.000000
0.001985 0.094174 0.000000
0.001985 0.084174 0.000000
0.001914 0.056074 0.000000
0.002000 0.072000 0.000000
0.078015 0.065826 0.000000
0.078016 0.075826 0.000000
0.078000 0.088000 0.000000
0.078000 0.104000 0.000000
0.078003 0.029997 0.000000
0.001998 0.130002 0.000000
0.002000 0.032000 0.000000
0.078013 0.128003 0.000000
0.056000 0.158000 0.000000
0.026000 0.002000 0.000000
0.060000 0.002000 0.000000
0.020000 0.158000 0.000000
0.002000 0.020000 0.000000
0.078000 0.142000 0.000000
0.002000 0.146000 0.000000
0.078000 0.020000 0.000000
0.016000 0.002000 0.000000
0.068000 0.002000 0.000000
0.066000 0.158000 0.000000
0.002000 0.014000 0.000000
0.008000 0.158000 0.000000
0.010000 0.002000 0.000000
0.078000 0.148000 0.000000
0.078000 0.008000 0.000000
0.078005 0.037995 0.000000
0.051991 0.001990 0.000000
0.028000 0.158000 0.000000
0.002000 0.008000 0.000000
0.078000 0.094000 0.000000
0.078000 0.110000 0.000000
0.001983 0.066159 0.000000
0.002000 0.050000 0.000000
0.046000 0.158000 0.000000
0.078000 0.134000 0.000000
0.002000 0.140000 0.000000
0.006000 0.002000 0.000000
0.002000 0.154000 0.000000
0.074000 0.002000 0.000000
0.078000 0.152000 0.000000
0.074000 0.158000 0.000000
0.078000 0.080000 0.000000
0.078000 0.070000 0.000000
0.078000 0.122000 0.000000
0.002000 0.090000 0.000000
0.002000 0.080000 0.000000
0.002000 0.038000 0.000000
0.002000 0.102000 0.000000
0.002000 0.112000 0.000000
0.036000 0.002000 0.000000
0.078000 0.042000 0.000000
0.032000 0.002000 0.000000
0.047987 0.001989 0.000000
0.032008 0.158010 0.000000
0.002000 0.028000 0.000000
0.002000 0.126000 0.000000
0.060000 0.158000 0.000000
0.022000 0.002000 0.000000
0.002000 0.136000 0.000000
0.078000 0.024000 0.000000
0.012000 0.158000 0.000000
0.078000 0.158000 0.000000
0.001947 0.003947 0.000000
0.002000 0.158000 0.000000
0.078000 0.012000 0.000000
0.078000 0.096000 0.000000
0.078000 0.098000 0.000000
0.078000 0.082000 0.000000
0.078111 0.099889 0.000000
0.078035 0.083965 0.000000
0.078000 0.090000 0.000000
0.078000 0.106000 0.000000
0.078000 0.072000 0.000000
0.078000 0.112000 0.000000
0.078043 0.061976 0.000000
0.078000 0.114000 0.000000
0.002000 0.064000 0.000000
0.002000 0.062000 0.000000
0.002000 0.088000 0.000000
0.002000 0.078000 0.000000
0.002000 0.060000 0.000000
0.001966 0.076034 0.000000
0.002000 0.070000 0.000000
0.002000 0.054000 0.000000
0.001957 0.098024 0.000000
0.002000 0.048000 0.000000
0.002000 0.046000 0.000000
[...]
POINT_DATA 5510
SCALARS UX float 1
LOOKUP_TABLE default
0.015933
0.087121
0.000002
-0.069849
0.005136
0.013280
0.017715
0.019498
0.021280
0.023065
0.024851
0.026637
0.028425
0.030214
0.032004
0.033794
0.035584
0.037373
0.039161
0.040946
0.042730
0.044510
0.046288
0.048064
0.049837
0.051607
0.053375
0.055140
0.056904
0.058666
0.060428
0.062190
0.063952
0.065714
0.067478
0.069243
0.071011
0.072782
0.074557
0.076335
0.078117
0.079905
0.081700
0.083504
0.085309
0.086077
0.085045
0.084027
0.083009
0.082010
0.081011
0.080028
0.079046
0.078068
0.077094
0.076122
0.075161
0.074200
0.073243
0.072288
0.071331
0.070374
0.069412
0.068445
0.067469
0.066483
0.065499
0.064503
0.063499
0.062497
0.061474
0.060445
0.059408
0.058369
0.057325
0.056278
0.055230
0.054181
0.053130
0.052077
0.051023
0.049967
0.048911
0.047854
0.046796
0.045738
0.044678
0.043614
0.042544
0.041473
0.040363
0.039217
0.038043
0.036766
0.035305
0.033824
0.032290
0.030745
0.029285
0.027912
0.026633
0.025375
0.024249
0.023139
0.022060
0.021006
0.019955
0.018918
0.017882
0.016847
0.015815
0.014782
0.013750
0.012719
0.011689
0.010660
0.009631
0.008609
0.007589
0.006569
0.005555
0.004511
0.003375
0.001951
-0.000021
-0.001818
-0.003672
-0.005521
-0.007340
-0.009155
-0.010972
-0.012782
-0.014587
-0.016390
-0.018189
-0.019985
-0.021778
-0.023569
-0.025358
-0.027142
-0.028922
-0.030700
-0.032475
-0.034247
-0.036016
-0.037784
-0.039549
-0.041313
-0.043076
-0.044840
-0.046603
-0.048367
-0.050132
-0.051899
-0.053669
-0.055443
-0.057223
-0.059006
-0.060795
-0.062589
-0.064393
-0.066208
-0.068024
-0.068799
-0.067765
-0.066731
-0.065727
-0.064726
-0.063731
-0.062747
-0.061770
-0.060795
-0.059824
-0.058858
-0.057898
-0.056936
-0.055980
-0.055023
-0.054063
-0.053097
-0.052133
-0.051160
-0.050185
-0.049204
-0.048217
-0.047223
-0.046218
-0.045216
-0.044195
-0.043169
-0.042137
-0.041102
-0.040063
-0.039021
-0.037976
-0.036931
-0.035882
-0.034831
-0.033780
-0.032725
-0.031670
-0.030613
-0.029554
-0.028496
-0.027434
-0.026368
-0.025296
-0.024225
-0.023120
-0.021989
-0.020812
-0.019594
-0.018193
-0.016743
-0.015273
-0.013773
-0.012297
-0.010881
-0.009494
-0.008291
-0.007127
-0.005983
-0.004874
-0.003796
-0.002728
-0.001686
-0.000646
0.000391
0.001429
0.002464
0.003500
0.004535
0.005570
0.006606
0.007641
0.008677
0.009713
0.010749
0.011785
0.012821
0.013858
0.014895
0.005440
0.005756
0.006193
0.006615
0.006953
0.007199
0.007463
0.007756
0.007951
0.008239
0.008487
0.008691
0.008961
0.009231
0.009546
0.009846
0.010158
0.010462
0.010744
0.010978
0.011213
0.011430
0.011688
0.011934
0.012234
0.012569
0.012880
0.050573
-0.033214
-0.046398
0.061695
-0.041400
0.056602
-0.004220
0.021389
-0.035278
-0.030018
-0.013374
-0.023543
0.052527
0.047260
0.040794
0.030204
0.070407
-0.053148
0.001158
0.016088
-0.018937
0.038117
0.068216
-0.050871
0.007358
0.008864
-0.060894
0.075236
0.029171
0.075301
-0.009927
0.010461
-0.061544
0.023811
0.005777
0.081188
0.066587
0.061161
-0.043812
0.013567
0.037426
0.025920
-0.020298
-0.008837
-0.027882
0.012986
-0.057959
0.020242
-0.064902
0.080654
0.003706
-0.002728
0.045041
0.050320
0.019179
-0.033074
-0.027799
-0.001957
-0.039341
-0.044428
0.047026
0.064647
0.043470
0.057633
-0.040282
0.003225
-0.051234
-0.015339
0.034539
-0.056021
0.073284
-0.057968
0.000357
0.015620
-0.066962
0.079181
0.036191
0.034801
0.043983
0.033498
0.042972
0.039701
0.028692
0.049265
0.024656
0.054569
0.023483
-0.018992
-0.017654
-0.032021
-0.026740
-0.016221
-0.025724
-0.022452
-0.011722
-0.037314
-0.007559
-0.006372
0.058666
0.063691
0.060691
-0.043423
-0.048344
0.018142
-0.000913
0.054110
-0.036752
-0.031438
0.068504
-0.026099
-0.024313
-0.050273
0.041689
0.064688
-0.047340
0.004258
0.015057
0.011955
0.005291
0.010924
-0.055060
-0.022524
0.072324
-0.059915
-0.013537
0.032750
0.071752
-0.054411
0.007835
0.077200
-0.062888
0.008392
0.011496
-0.008115
0.027384
-0.006315
0.002656
-0.065144
0.018392
0.016520
0.083222
0.078864
0.084255
-0.042648
0.059905
-0.031348
-0.026112
-0.021806
-0.014390
-0.006905
0.043360
0.039060
0.031517
0.048594
0.022887
-0.032160
-0.048442
0.014279
-0.000165
0.042425
-0.021498
0.005020
0.009136
0.033499
-0.054153
0.071422
-0.014298
0.010178
0.028133
-0.059058
-0.007125
0.028163
0.061946
0.012246
0.001866
0.079617
0.041332
0.032991
0.035625
-0.024080
-0.015860
-0.018407
-0.004615
0.038739
0.042013
0.031989
0.046286
0.048274
0.027445
0.051558
0.022437
-0.021498
-0.031029
-0.024762
-0.034309
-0.014812
-0.029042
-0.010328
-0.005297
0.053529
-0.036277
0.055615
-0.038357
0.057688
0.020460
-0.040421
-0.003261
0.059731
-0.042462
-0.045542
0.062720
-0.047406
0.065638
-0.049330
0.052335
-0.034975
0.048795
-0.029656
0.055867
-0.038512
0.017140
0.000094
0.067550
0.045246
0.059395
-0.042044
-0.025049
0.062923
-0.045573
-0.052192
0.002183
0.014025
0.069453
0.006051
0.039903
0.011192
-0.020731
0.066450
-0.049103
0.006321
0.009896
-0.054101
0.071361
-0.056988
-0.017139
0.036328
-0.058936
0.074256
-0.011733
0.030960
-0.052639
0.069982
-0.056187
0.073524
0.006805
0.009426
-0.059754
0.076214
-0.061888
0.004748
0.078187
0.012531
0.025597
-0.063889
-0.004517
0.080176
0.001545
0.022026
0.014603
-0.063340
0.017422
0.077080
-0.001050
-0.064103
-0.065922
0.082198
0.081413
0.082449
-0.036871
0.054126
-0.012720
0.054838
0.029773
0.006811
-0.041049
0.061915
-0.048080
0.068954
0.076356
-0.055155
0.005006
0.065730
0.047824
-0.058716
-0.062064
0.036894
0.020670
-0.019654
0.052020
0.049717
-0.034769
-0.032457
0.046527
0.044455
-0.029281
-0.027194
0.056134
-0.038874
0.018522
0.001898
-0.037482
0.003985
0.067572
0.012233
-0.050334
0.038864
0.035286
0.029921
0.072494
-0.057083
-0.055124
0.024558
0.014315
-0.060054
0.074373
0.072397
-0.003597
0.000777
0.078362
0.078587
0.037933
0.040093
-0.020679
0.029842
-0.022836
0.021922
-0.012790
-0.008275
0.060943
0.047562
-0.030314
-0.003470
-0.001257
-0.043676
-0.045582
0.025237
0.026699
0.057941
0.058906
-0.040682
-0.041645
-0.034007
0.034415
0.042364
-0.047487
-0.017209
-0.025113
0.024081
0.063812
0.062875
-0.005800
0.000856
0.015325
0.058368
0.044253
-0.026814
0.051365
-0.028675
0.013267
-0.049401
-0.044559
-0.019715
0.040643
0.069485
0.070449
-0.052227
-0.053189
0.008101
0.065429
0.007074
0.009146
-0.023275
0.010169
0.031713
-0.030421
-0.016095
-0.051611
-0.010701
-0.012503
-0.008904
-0.058064
0.026345
0.076046
0.011211
0.013280
0.020989
0.077828
-0.005356
0.019205
0.080386
0.002927
-0.000315
-0.063079
0.016385
-0.062299
0.000514
0.061128
-0.039319
0.019915
-0.025522
-0.030837
-0.019201
-0.029250
0.048099
0.042836
0.036305
-0.045742
0.013556
-0.020462
0.043165
0.067635
0.008386
-0.050371
0.034246
-0.011481
0.010936
0.028885
-0.055236
0.015064
-0.006479
-0.011264
0.023680
-0.004417
0.038836
-0.021638
-0.001851
0.059320
0.032693
-0.015538
0.005774
0.002623
-0.047559
0.039606
0.025309
0.006038
-0.057226
0.001110
0.027886
0.035226
0.022345
-0.018026
0.045528
0.050827
-0.028281
-0.033576
0.053072
-0.035819
-0.044641
0.040700
0.031041
-0.014082
0.055170
-0.037912
-0.002449
-0.023442
0.019412
-0.046469
-0.011050
-0.009131
-0.027550
-0.032884
-0.039214
0.046105
-0.028853
0.064779
-0.039718
-0.004089
0.056975
0.060107
0.046002
0.049557
0.056569
0.017437
0.016391
0.066660
0.002935
0.057291
-0.017892
0.068537
-0.042803
-0.051278
0.007341
0.011489
-0.024012
0.037071
0.008102
-0.040050
-0.041965
0.063672
-0.046319
0.068606
0.070551
0.007826
-0.051335
-0.053271
-0.015059
-0.009691
0.010437
0.067192
-0.049846
-0.056102
0.030679
-0.035734
0.073383
0.012999
0.007072
-0.053381
0.070721
-0.007921
0.074268
0.075359
0.076798
0.022773
0.003969
-0.061054
0.077356
0.018168
-0.056932
0.077566
0.079369
0.015350
-0.001027
-0.001930
-0.061270
-0.060504
0.053093
0.024993
-0.037597
-0.016583
-0.010985
0.033925
-0.026673
-0.048541
0.009702
0.053819
0.065810
0.007548
-0.040026
0.060891
0.069693
-0.010474
-0.047054
0.029637
0.073534
0.053209
-0.052353
0.075774
-0.055903
0.029370
-0.035958
0.063897
0.006589
-0.009835
0.043543
-0.026523
-0.033877
-0.031544
0.051124
0.048802
0.046796
-0.049437
-0.016869
0.009886
0.036027
0.071542
0.005284
0.016098
-0.059473
-0.007466
0.045256
-0.028014
-0.000496
0.022260
-0.020738
0.037660
0.021088
-0.037205
0.054433
0.056560
-0.012750
0.060199
-0.038480
-0.043875
-0.042818
-0.044837
0.041643
-0.024435
0.039493
0.014567
0.016839
-0.022268
0.044913
-0.036459
-0.034601
0.033855
-0.016629
0.047037
-0.029786
0.026364
0.001580
0.066671
0.062059
-0.005219
0.057338
0.018945
-0.048490
-0.046641
0.050288
-0.018688
-0.040952
0.008846
0.037823
0.012522
0.041368
-0.041790
0.004748
0.003660
0.058184
-0.003005
0.069575
0.062651
-0.022236
0.064814
-0.025777
-0.052298
-0.054252
0.009420
0.006316
0.009598
-0.048819
0.066166
0.011962
0.032462
0.073237
-0.013270
0.027095
-0.008708
0.014028
-0.043540
0.004243
0.002164
0.075016
0.075544
0.076553
0.021737
0.023524
0.017133
0.019952
-0.056231
-0.006165
-0.058233
-0.060250
-0.031140
-0.002723
0.000040
0.059375
0.051871
-0.026443
-0.022256
-0.002538
-0.010575
0.043699
0.039598
0.045647
-0.039031
0.059882
-0.046036
-0.017668
-0.009487
-0.052423
0.013744
-0.042308
0.003502
0.002265
0.038573
0.054834
0.046729
-0.029461
0.015815
0.026063
0.022488
-0.055412
-0.058449
-0.031858
0.032578
0.025983
0.037191
0.034715
-0.020054
-0.017583
-0.015370
0.057651
0.023279
-0.004818
0.064888
0.007634
0.041337
0.034994
0.067747
0.031422
0.017883
0.000361
-0.003484
-0.028392
-0.043975
-0.045765
-0.047612
0.030760
0.028048
-0.041325
0.020903
0.018461
-0.013976
0.049803
-0.032552
-0.036511
-0.034648
-0.034858
0.052105
0.055778
0.017927
0.015721
0.044585
-0.027321
-0.009507
-0.024941
-0.022974
0.003332
-0.033724
0.010712
0.012843
0.005475
-0.038255
-0.038402
-0.000370
0.062987
0.059123
-0.015823
0.055581
0.008676
0.052016
0.010612
0.055597
0.066782
0.042109
-0.040218
-0.050465
-0.049503
0.006504
0.072536
-0.045291
0.064407
0.008575
0.005567
0.027849
0.069715
-0.014034
-0.012248
-0.021209
0.065727
-0.040772
-0.050582
0.071461
-0.053414
0.067926
0.011682
0.003210
0.073991
0.073743
0.074537
-0.006954
-0.054127
-0.001749
0.074756
0.020702
0.018917
-0.057683
-0.059238
0.048532
-0.023990
-0.008533
0.044172
-0.026922
0.003995
-0.035146
0.053165
-0.016031
-0.025222
0.032198
0.042360
-0.025660
0.008982
0.009311
-0.045811
-0.038017
0.063060
0.004824
0.030389
0.065140
-0.050610
-0.030999
0.012394
-0.051325
0.029364
0.016143
-0.031409
-0.033610
0.048658
0.050808
0.052594
-0.021949
-0.016586
0.013945
0.049262
0.061171
0.052797
-0.047683
0.064968
-0.044292
0.026818
0.001413
0.068665
0.072211
-0.057432
-0.011800
-0.025452
0.042657
0.017546
0.036022
0.038496
-0.018659
0.001198
-0.021124
-0.030117
0.047369
0.019828
0.058454
0.053640
0.024626
-0.008273
0.020667
-0.003594
-0.009238
-0.014986
0.004347
0.045588
0.011837
-0.028328
-0.035998
-0.035446
0.047388
0.063017
-0.046695
0.063939
0.058125
0.026321
-0.001371
0.006899
0.060270
0.040365
0.054588
0.007287
-0.039276
-0.044832
-0.042517
0.036772
0.004544
0.070720
0.072735
-0.013019
0.033200
0.010347
-0.051442
-0.037277
-0.035479
0.043859
0.014775
0.056456
-0.011248
0.002456
0.068728
-0.019436
-0.054409
-0.007735
0.012713
0.024274
-0.053100
-0.056660
0.021454
0.061629
-0.056420
-0.047791
0.071952
0.072970
0.016848
-0.002482
-0.000696
0.019668
-0.005209
0.040339
-0.030131
-0.043090
-0.023019
-0.025175
-0.005741
-0.012759
0.042071
0.031637
-0.032535
0.049783
0.026670
0.038112
0.057588
-0.033918
0.048426
-0.001993
-0.014490
-0.007335
0.048083
0.011062
0.039311
0.057123
-0.040714
-0.012019
0.067926
-0.045009
0.015529
-0.031180
-0.028079
0.045334
0.001724
0.070941
-0.050305
-0.052604
-0.022506
0.039971
0.017859
0.055907
0.038098
0.035704
0.033713
0.050332
0.052301
0.006263
-0.029279
-0.020849
-0.042238
-0.018347
-0.049623
0.035741
0.032167
-0.008507
0.023240
-0.004238
0.044599
-0.024316
0.041597
-0.018428
-0.009941
0.031050
0.024275
0.021524
0.002699
0.000884
-0.033306
0.019222
-0.034214
-0.006547
-0.008146
0.015016
0.005055
-0.013830
-0.007027
0.043959
-0.023703
0.010059
-0.026759
0.016086
-0.027384
0.012274
-0.034540
-0.032719
-0.043988
0.061221
0.027701
-0.020197
0.007956
0.056341
0.011351
0.058469
-0.036782
0.050992
-0.046729
0.053898
-0.048647
0.064004
-0.041522
-0.039753
-0.038530
0.008206
-0.014789
0.005876
0.062073
0.063382
-0.025874
0.043145
0.016565
0.020420
-0.044888
0.028600
0.000665
-0.001437
-0.049550
-0.051604
0.025033
0.070433
0.071725
0.003805
0.000329
0.065945
-0.005988
0.066902
0.070178
-0.055639
0.017600
0.013448
0.071193
0.018635
-0.054875
0.041085
-0.054618
0.058859
0.062124
-0.036290
-0.004487
0.030333
0.025398
-0.030186
0.047435
0.016522
0.036999
-0.016920
0.004553
0.055789
-0.028703
0.045956
-0.022853
0.031951
0.040269
0.025939
-0.028098
0.008344
-0.042258
-0.021056
-0.035284
0.040057
0.060333
-0.045887
0.056102
0.031135
0.004110
0.014149
-0.048817
0.043502
-0.026239
0.017314
-0.000083
0.063172
0.025789
0.064114
0.069160
0.060324
-0.038768
-0.048534
0.069933
0.022205
0.019389
-0.052840
0.028506
-0.015451
0.045860
-0.028611
0.034654
0.002408
0.035555
-0.019484
-0.039431
-0.031854
0.051308
0.056701
-0.032438
-0.006132
0.022917
-0.033016
-0.003442
0.038947
0.049430
0.011166
0.014586
0.013266
0.051715
-0.023034
-0.043137
-0.029983
0.049795
-0.012220
-0.013342
0.059354
0.006185
-0.031816
-0.021587
-0.041366
-0.019096
0.053562
-0.034504
0.030680
0.055346
0.041000
-0.023704
0.051561
-0.023574
0.009874
0.007499
-0.044013
0.023559
0.002781
-0.046857
-0.015546
0.061272
-0.037624
0.037531
0.066929
0.054734
0.033940
-0.046764
0.068927
-0.013779
0.069405
0.029357
0.014483
-0.049811
-0.010257
-0.003221
-0.052074
0.002047
0.065881
0.012082
-0.000377
0.040661
-0.000792
-0.043268
-0.004998
-0.006756
-0.053857
-0.053610
0.060600
0.042832
0.005645
0.046338
0.042575
-0.025308
-0.005771
0.019322
-0.024651
0.037037
-0.010851
-0.008642
0.046521
-0.029271
0.034110
0.002007
0.015300
-0.017568
0.019041
-0.019375
0.006218
-0.032239
-0.024846
-0.019411
0.042110
-0.014084
-0.005687
0.030344
-0.027301
0.011683
-0.019857
0.058541
-0.044131
0.030103
-0.012779
0.014191
-0.047039
-0.043984
-0.047521
0.047038
-0.010947
0.063103
-0.002955
-0.029620
0.045245
-0.027999
0.054267
-0.000414
0.057635
0.038430
0.036490
-0.007513
0.016256
0.032906
-0.004805
0.065139
0.021173
-0.003960
-0.051823
-0.051064
0.001906
0.059408
-0.017904
0.012787
-0.031685
0.017457
0.054950
0.044215
-0.026975
-0.031213
0.047854
0.049004
0.008565
0.021159
0.036905
-0.021970
-0.021062
0.050891
0.009412
-0.040564
-0.039156
-0.037728
-0.021992
0.049218
0.056677
-0.029147
0.007276
0.039280
0.013089
0.054348
0.024678
0.001004
0.041779
-0.024483
-0.012981
0.050823
-0.043134
-0.035183
0.052234
0.015206
-0.037006
-0.008360
0.005161
0.046867
0.038275
0.064150
-0.036853
0.068153
-0.001120
-0.017313
0.062351
-0.044951
-0.011026
0.023991
-0.050812
0.018344
0.062209
-0.002174
0.003076
0.068408
-0.047823
0.012786
0.043573
0.041802
0.027571
0.022388
0.066142
-0.040505
0.067639
0.057832
0.029430
-0.041380
0.020074
-0.026372
-0.033561
0.035965
0.034126
0.006828
0.027219
0.011654
-0.016323
0.032735
0.003632
0.018025
0.035395
-0.040414
0.000609
-0.030643
0.053087
-0.029929
0.045438
-0.021472
-0.012674
0.035533
0.038881
0.023188
-0.026512
0.007755
-0.038962
0.047741
0.040769
0.013398
0.055076
-0.036035
0.061396
0.003407
-0.011785
0.015891
0.000278
-0.028213
-0.036049
-0.020607
0.019648
0.026928
0.009055
0.055121
0.057629
-0.025600
-0.040526
0.016305
0.017807
0.031872
0.034202
0.018021
0.026546
0.063363
0.037220
0.061338
-0.046053
0.022955
0.066643
0.031292
0.003839
0.042462
-0.025213
-0.011494
0.049969
-0.001668
0.010481
0.010676
0.039677
0.041233
-0.022385
-0.023956
-0.019992
-0.004942
-0.039841
-0.020543
-0.023767
0.005524
0.037170
0.043882
-0.026643
-0.032921
-0.042293
-0.000790
-0.002916
0.020946
-0.006895
0.052545
-0.043194
0.029261
-0.009462
0.015314
0.059579
-0.045094
0.034677
-0.035993
-0.032561
-0.030405
0.067147
-0.050051
-0.004307
-0.045738
-0.005735
0.064856
-0.014528
0.053023
-0.018064
0.066388
-0.049278
0.028324
-0.042239
0.059485
0.067396
0.020138
-0.009270
0.002376
0.013802
-0.048034
-0.037756
0.007278
0.000772
0.037590
0.045309
0.058519
-0.030853
0.025840
-0.014893
-0.016740
0.013443
0.033407
0.011514
0.005207
0.015841
-0.038813
-0.018362
-0.030347
0.048196
0.005153
-0.019513
-0.004304
0.029973
0.025388
0.037745
0.019246
0.055858
-0.013531
-0.035028
-0.040569
-0.043339
0.001692
0.030850
-0.001251
-0.001506
0.060328
0.048395
-0.009560
-0.044713
-0.008272
-0.018076
-0.022116
-0.003563
0.008948
0.032956
-0.045275
-0.013530
-0.004691
-0.048287
0.021917
0.065380
0.027303
0.056739
-0.029838
0.007798
0.001246
-0.025142
0.052538
0.046886
0.009932
0.049233
0.012289
0.036316
-0.037508
-0.020433
0.022100
-0.029197
-0.029197
0.054248
-0.030740
0.006680
0.028238
0.040474
-0.023182
0.014828
-0.006984
-0.039703
0.034650
0.018621
0.032156
0.051557
0.028951
0.024355
0.037977
-0.033606
-0.011729
-0.034260
0.004478
0.016961
0.063868
0.062386
0.038992
-0.023503
-0.041392
-0.027202
0.044544
0.040771
0.035421
0.064365
0.024752
-0.016283
0.019085
-0.019723
-0.049041
-0.001853
0.050579
0.033626
0.001339
0.016961
-0.035211
-0.010029
0.064630
0.056761
0.055884
-0.041234
-0.039485
0.042536
0.014489
0.002555
0.003552
0.065635
0.060433
0.056805
-0.041463
0.053351
0.008347
-0.015544
-0.028173
0.046027
-0.018819
0.016560
-0.037136
-0.038213
0.012689
0.012008
0.014461
0.046669
-0.016520
0.043102
-0.025849
0.011578
-0.027751
0.044009
-0.011403
-0.018480
0.034229
0.028625
-0.025867
0.041514
0.054091
0.013953
0.048816
0.054052
-0.038882
0.059640
-0.012529
0.052202
-0.026810
-0.037267
-0.034403
0.017691
0.016198
0.026554
-0.009033
0.032776
0.022626
0.020157
-0.000407
0.050072
-0.033316
0.023690
0.062883
0.061619
0.063637
0.037949
-0.003644
-0.047286
-0.038491
0.009987
0.006109
0.014543
0.041909
-0.024661
-0.010833
0.035953
0.036887
-0.002947
-0.018915
0.047621
0.053274
0.054962
-0.000127
0.027809
0.010727
0.030924
0.007683
0.046771
-0.028651
0.024201
0.004939
0.002749
0.000660
-0.005738
0.049232
-0.038868
0.038492
0.039968
-0.022685
-0.039712
-0.021193
-0.025278
0.042534
-0.031538
-0.031411
-0.006491
-0.007882
0.025522
-0.046456
0.019813
-0.042390
-0.034400
-0.002546
-0.046260
0.020884
0.058552
0.036162
0.032606
-0.003405
0.018212
-0.017042
-0.015262
-0.036751
0.062089
-0.035872
0.008865
0.029069
0.044268
-0.044293
0.015503
0.057706
0.015080
0.050590
-0.042961
0.051307
-0.028851
0.006799
-0.017050
-0.027229
-0.019740
-0.018635
-0.015413
-0.014345
0.013708
0.004675
0.002763
0.045326
0.041649
-0.024393
-0.023602
0.043896
-0.027047
-0.023347
-0.003916
0.035144
0.022864
0.005854
-0.024612
0.015616
0.046008
0.036885
0.031582
-0.034063
0.001065
-0.017581
0.017865
-0.041600
0.009375
0.046872
0.048883
-0.008964
-0.002009
0.029460
-0.027499
0.025427
0.036692
-0.013911
-0.002188
-0.004329
-0.041951
-0.043542
0.026266
0.021606
0.061890
0.057587
0.053215
0.050841
-0.045551
0.006601
0.043241
-0.012266
-0.016921
-0.022215
0.013271
0.039492
0.040588
-0.001088
0.001549
-0.010449
0.035140
-0.017761
0.050912
0.021292
-0.005491
-0.027491
0.012651
0.033408
-0.007706
0.017231
-0.007296
0.039269
-0.021969
0.004392
-0.019262
0.016541
-0.036648
-0.015981
0.047753
-0.037156
-0.030649
-0.028882
0.045437
0.003848
-0.032063
-0.033591
0.031510
-0.039739
0.018709
-0.038052
0.062633
0.027679
0.055791
0.058683
0.039723
-0.025927
0.054112
0.009934
-0.016000
-0.017829
0.043160
-0.035771
0.034383
-0.010775
-0.029321
0.029819
0.044973
0.024447
0.050747
-0.040217
0.055015
-0.014272
0.016174
-0.005414
0.000004
0.022651
0.061137
0.052325
0.008506
0.060618
-0.038017
-0.001996
0.047855
0.010541
-0.021230
0.015155
-0.035152
0.003819
0.012534
-0.024569
0.012015
-0.011058
-0.006719
0.027467
0.004158
-0.035500
0.045225
0.051471
-0.033085
0.053045
-0.016748
-0.000600
-0.032779
-0.027560
0.030548
-0.011518
0.057878
0.003136
0.014196
0.045420
0.032995
0.030110
-0.003553
0.008283
0.043905
-0.025442
0.040570
0.015818
0.018319
-0.034451
-0.039221
-0.027993
0.020514
0.060144
0.052385
-0.037166
0.033337
0.002155
0.034059
-0.015842
-0.014477
0.049813
0.031800
-0.016666
-0.023061
0.000370
-0.000591
-0.008772
0.019195
0.021570
-0.026328
0.024086
0.035915
0.006699