# vtk DataFile Version 2.0
Test
ASCII
DATASET POLYDATA
POINTS 5510 float
0.000000 0.000000 0.000000
0.080000 0.000000 0.000000
0.080000 0.160000 0.000000
0.000000 0.160000 0.000000
0.035000 0.076250 0.000000
0.046500 0.083750 0.000000
0.002000 0.000000 0.000000
0.004000 0.000000 0.000000
0.006000 0.000000 0.000000
0.008000 0.000000 0.000000
0.010000 0.000000 0.000000
0.012000 0.000000 0.000000
0.014000 0.000000 0.000000
0.016000 0.000000 0.000000
0.018000 0.000000 0.000000
0.020000 0.000000 0.000000
0.022000 0.000000 0.000000
0.024000 0.000000 0.000000
0.026000 0.000000 0.000000
0.028000 0.000000 0.000000
0.030000 0.000000 0.000000
0.032000 0.000000 0.000000
0.034000 0.000000 0.000000
0.036000 0.000000 0.000000
0.038000 0.000000 0.000000
0.040000 0.000000 0.000000
0.042000 0.000000 0.000000
0.044000 0.000000 0.000000
0.046000 0.000000 0.000000
0.048000 0.000000 0.000000
0.050000 0.000000 0.000000
0.052000 0.000000 0.000000
0.054000 0.000000 0.000000
0.056000 0.000000 0.000000
0.058000 0.000000 0.000000
0.060000 0.000000 0.000000
0.062000 0.000000 0.000000
0.064000 0.000000 0.000000
0.066000 0.000000 0.000000
0.068000 0.000000 0.000000
0.070000 0.000000 0.000000
0.072000 0.000000 0.000000
0.074000 0.000000 0.000000
0.076000 0.000000 0.000000
0.078000 0.000000 0.000000
0.080000 0.002000 0.000000
0.080000 0.004000 0.000000
0.080000 0.006000 0.000000
0.080000 0.008000 0.000000
0.080000 0.010000 0.000000
0.080000 0.012000 0.000000
0.080000 0.014000 0.000000
0.080000 0.016000 0.000000
0.080000 0.018000 0.000000
0.080000 0.020000 0.000000
0.080000 0.022000 0.000000
0.080000 0.024000 0.000000
0.080000 0.026000 0.000000
0.080000 0.028000 0.000000
0.080000 0.030000 0.000000
0.080000 0.032000 0.000000
0.080000 0.034000 0.000000
0.080000 0.036000 0.000000
0.080000 0.038000 0.000000
0.080000 0.040000 0.000000
0.080000 0.042000 0.000000
0.080000 0.044000 0.000000
0.080000 0.046000 0.000000
0.080000 0.048000 0.000000
0.080000 0.050000 0.000000
0.080000 0.052000 0.000000
0.080000 0.054000 0.000000
0.080000 0.056000 0.000000
0.080000 0.058000 0.000000
0.080000 0.060000 0.000000
0.080000 0.062000 0.000000
0.080000 0.064000 0.000000
0.080000 0.066000 0.000000
0.080000 0.068000 0.000000
0.080000 0.070000 0.000000
0.080000 0.072000 0.000000
0.080000 0.074000 0.000000
0.080000 0.076000 0.000000
0.080000 0.078000 0.000000
0.080000 0.080000 0.000000
0.080000 0.082000 0.000000
0.080000 0.084000 0.000000
0.080000 0.086000 0.000000
0.080000 0.088000 0.000000
0.080000 0.090000 0.000000
0.080000 0.092000 0.000000
0.080000 0.094000 0.000000
0.080000 0.096000 0.000000
0.080000 0.098000 0.000000
0.080000 0.100000 0.000000
0.080000 0.102000 0.000000
0.080000 0.104000 0.000000
0.080000 0.106000 0.000000
0.080000 0.108000 0.000000
0.080000 0.110000 0.000000
0.080000 0.112000 0.000000
0.080000 0.114000 0.000000
0.080000 0.116000 0.000000
0.080000 0.118000 0.000000
0.080000 0.120000 0.000000
0.080000 0.122000 0.000000
0.080000 0.124000 0.000000
0.080000 0.126000 0.000000
0.080000 0.128000 0.000000
0.080000 0.130000 0.000000
0.080000 0.132000 0.000000
0.080000 0.134000 0.000000
0.080000 0.136000 0.000000
0.080000 0.138000 0.000000
0.080000 0.140000 0.000000
0.080000 0.142000 0.000000
0.080000 0.144000 0.000000
0.080000 0.146000 0.000000
0.080000 0.148000 0.000000
0.080000 0.150000 0.000000
0.080000 0.152000 0.000000
0.080000 0.154000 0.000000
0.080000 0.156000 0.000000
0.080000 0.158000 0.000000
0.078000 0.160000 0.000000
0.076000 0.160000 0.000000
0.074000 0.160000 0.000000
0.072000 0.160000 0.000000
0.070000 0.160000 0.000000
0.068000 0.160000 0.000000
0.066000 0.160000 0.000000
0.064000 0.160000 0.000000
0.062000 0.160000 0.000000
0.060000 0.160000 0.000000
0.058000 0.160000 0.000000
0.056000 0.160000 0.000000
0.054000 0.160000 0.000000
0.052000 0.160000 0.000000
0.050000 0.160000 0.000000
0.048000 0.160000 0.000000
0.046000 0.160000 0.000000
0.044000 0.160000 0.000000
0.042000 0.160000 0.000000
0.040000 0.160000 0.000000
0.038000 0.160000 0.000000
0.036000 0.160000 0.000000
0.034000 0.160000 0.000000
0.032000 0.160000 0.000000
0.030000 0.160000 0.000000
0.028000 0.160000 0.000000
0.026000 0.160000 0.000000
0.024000 0.160000 0.000000
0.022000 0.160000 0.000000
0.020000 0.160000 0.000000
0.018000 0.160000 0.000000
0.016000 0.160000 0.000000
0.014000 0.160000 0.000000
0.012000 0.160000 0.000000
0.010000 0.160000 0.000000
0.008000 0.160000 0.000000
0.006000 0.160000 0.000000
0.004000 0.160000 0.000000
0.002000 0.160000 0.000000
0.000000 0.158000 0.000000
0.000000 0.156000 0.000000
0.000000 0.154000 0.000000
0.000000 0.152000 0.000000
0.000000 0.150000 0.000000
0.000000 0.148000 0.000000
0.000000 0.146000 0.000000
0.000000 0.144000 0.000000
0.000000 0.142000 0.000000
0.000000 0.140000 0.000000
0.000000 0.138000 0.000000
0.000000 0.136000 0.000000
0.000000 0.134000 0.000000
0.000000 0.132000 0.000000
0.000000 0.130000 0.000000
0.000000 0.128000 0.000000
0.000000 0.126000 0.000000
0.000000 0.124000 0.000000
0.000000 0.122000 0.000000
0.000000 0.120000 0.000000
0.000000 0.118000 0.000000
0.000000 0.116000 0.000000
0.000000 0.114000 0.000000
0.000000 0.112000 0.000000
0.000000 0.110000 0.000000
0.000000 0.108000 0.000000
0.000000 0.106000 0.000000
0.000000 0.104000 0.000000
0.000000 0.102000 0.000000
0.000000 0.100000 0.000000
0.000000 0.098000 0.000000
0.000000 0.096000 0.000000
0.000000 0.094000 0.000000
0.000000 0.092000 0.000000
0.000000 0.090000 0.000000
0.000000 0.088000 0.000000
0.000000 0.086000 0.000000
0.000000 0.084000 0.000000
0.000000 0.082000 0.000000
0.000000 0.080000 0.000000
0.000000 0.078000 0.000000
0.000000 0.076000 0.000000
0.000000 0.074000 0.000000
0.000000 0.072000 0.000000
0.000000 0.070000 0.000000
0.000000 0.068000 0.000000
0.000000 0.066000 0.000000
0.000000 0.064000 0.000000
0.000000 0.062000 0.000000
0.000000 0.060000 0.000000
0.000000 0.058000 0.000000
0.000000 0.056000 0.000000
0.000000 0.054000 0.000000
0.000000 0.052000 0.000000
0.000000 0.050000 0.000000
0.000000 0.048000 0.000000
0.000000 0.046000 0.000000
0.000000 0.044000 0.000000
0.000000 0.042000 0.000000
0.000000 0.040000 0.000000
0.000000 0.038000 0.000000
0.000000 0.036000 0.000000
0.000000 0.034000 0.000000
0.000000 0.032000 0.000000
0.000000 0.030000 0.000000
0.000000 0.028000 0.000000
0.000000 0.026000 0.000000
0.000000 0.024000 0.000000
0.000000 0.022000 0.000000
0.000000 0.020000 0.000000
0.000000 0.018000 0.000000
0.000000 0.016000 0.000000
0.000000 0.014000 0.000000
0.000000 0.012000 0.000000
0.000000 0.010000 0.000000
0.000000 0.008000 0.000000
0.000000 0.006000 0.000000
0.000000 0.004000 0.000000
0.000000 0.002000 0.000000
0.035411 0.076518 0.000000
0.035821 0.076786 0.000000
0.036232 0.077054 0.000000
0.036643 0.077321 0.000000
0.037054 0.077589 0.000000
0.037464 0.077857 0.000000
0.037875 0.078125 0.000000
0.038286 0.078393 0.000000
0.038696 0.078661 0.000000
0.039107 0.078929 0.000000
0.039518 0.079196 0.000000
0.039929 0.079464 0.000000
0.040339 0.079732 0.000000
0.040750 0.080000 0.000000
0.041161 0.080268 0.000000
0.041571 0.080536 0.000000
0.041982 0.080804 0.000000
0.042393 0.081071 0.000000
0.042804 0.081339 0.000000
0.043214 0.081607 0.000000
0.043625 0.081875 0.000000
0.044036 0.082143 0.000000
0.044446 0.082411 0.000000
0.044857 0.082679 0.000000
0.045268 0.082946 0.000000
0.045679 0.083214 0.000000
0.046089 0.083482 0.000000
0.040000 0.002000 0.000000
0.040001 0.158005 0.000000
0.002000 0.116000 0.000000
0.078000 0.048000 0.000000
0.002000 0.106000 0.000000
0.078000 0.058000 0.000000
0.001986 0.042173 0.000000
0.078015 0.117826 0.000000
0.001985 0.094174 0.000000
0.001985 0.084174 0.000000
0.001914 0.056074 0.000000
0.002000 0.072000 0.000000
0.078015 0.065826 0.000000
0.078016 0.075826 0.000000
0.078000 0.088000 0.000000
0.078000 0.104000 0.000000
0.078003 0.029997 0.000000
0.001998 0.130002 0.000000
0.002000 0.032000 0.000000
0.078013 0.128003 0.000000
0.056000 0.158000 0.000000
0.026000 0.002000 0.000000
0.060000 0.002000 0.000000
0.020000 0.158000 0.000000
0.002000 0.020000 0.000000
0.078000 0.142000 0.000000
0.002000 0.146000 0.000000
0.078000 0.020000 0.000000
0.016000 0.002000 0.000000
0.068000 0.002000 0.000000
0.066000 0.158000 0.000000
0.002000 0.014000 0.000000
0.008000 0.158000 0.000000
0.010000 0.002000 0.000000
0.078000 0.148000 0.000000
0.078000 0.008000 0.000000
0.078005 0.037995 0.000000
0.051991 0.001990 0.000000
0.028000 0.158000 0.000000
0.002000 0.008000 0.000000
0.078000 0.094000 0.000000
0.078000 0.110000 0.000000
0.001983 0.066159 0.000000
0.002000 0.050000 0.000000
0.046000 0.158000 0.000000
0.078000 0.134000 0.000000
0.002000 0.140000 0.000000
0.006000 0.002000 0.000000
0.002000 0.154000 0.000000
0.074000 0.002000 0.000000
0.078000 0.152000 0.000000
0.074000 0.158000 0.000000
0.078000 0.080000 0.000000
0.078000 0.070000 0.000000
0.078000 0.122000 0.000000
0.002000 0.090000 0.000000
0.002000 0.080000 0.000000
0.002000 0.038000 0.000000
0.002000 0.102000 0.000000
0.002000 0.112000 0.000000
0.036000 0.002000 0.000000
0.078000 0.042000 0.000000
0.032000 0.002000 0.000000
0.047987 0.001989 0.000000
0.032008 0.158010 0.000000
0.002000 0.028000 0.000000
0.002000 0.126000 0.000000
0.060000 0.158000 0.000000
0.022000 0.002000 0.000000
0.002000 0.136000 0.000000
0.078000 0.024000 0.000000
0.012000 0.158000 0.000000
0.078000 0.158000 0.000000
0.001947 0.003947 0.000000
0.002000 0.158000 0.000000
0.078000 0.012000 0.000000
0.078000 0.096000 0.000000
0.078000 0.098000 0.000000
0.078000 0.082000 0.000000
0.078111 0.099889 0.000000
0.078035 0.083965 0.000000
0.078000 0.090000 0.000000
0.078000 0.106000 0.000000
0.078000 0.072000 0.000000
0.078000 0.112000 0.000000
0.078043 0.061976 0.000000
0.078000 0.114000 0.000000
0.002000 0.064000 0.000000
0.002000 0.062000 0.000000
0.002000 0.088000 0.000000
0.002000 0.078000 0.000000
0.002000 0.060000 0.000000
0.001966 0.076034 0.000000
0.002000 0.070000 0.000000
0.002000 0.054000 0.000000
0.001957 0.098024 0.000000
0.002000 0.048000 0.000000
0.002000 0.046000 0.000000
[...]
POINT_DATA 5510
SCALARS UX float 1
LOOKUP_TABLE default
0.022575
0.102468
0.000003
-0.078401
0.008204
0.017141
0.024576
0.026577
0.028578
0.030581
0.032585
0.034591
0.036598
0.038606
0.040615
0.042625
0.044635
0.046645
0.048653
0.050658
0.052661
0.054660
0.056656
0.058649
0.060638
0.062624
0.064607
0.066587
0.068565
0.070541
0.072516
0.074491
0.076466
0.078441
0.080418
0.082397
0.084380
0.086365
0.088356
0.090351
0.092350
0.094357
0.096373
0.098401
0.100430
0.101244
0.100035
0.098845
0.097655
0.096490
0.095326
0.094184
0.093042
0.091906
0.090774
0.089646
0.088529
0.087413
0.086298
0.085184
0.084067
0.082946
0.081818
0.080681
0.079532
0.078368
0.077207
0.076032
0.074845
0.073662
0.072454
0.071238
0.070016
0.068791
0.067563
0.066332
0.065101
0.063869
0.062635
0.061399
0.060163
0.058924
0.057685
0.056445
0.055204
0.053964
0.052722
0.051479
0.050231
0.048985
0.047702
0.046382
0.045030
0.043547
0.041789
0.039996
0.038114
0.036211
0.034420
0.032752
0.031217
0.029711
0.028389
0.027084
0.025821
0.024587
0.023358
0.022141
0.020925
0.019711
0.018498
0.017285
0.016072
0.014859
0.013649
0.012440
0.011232
0.010030
0.008831
0.007631
0.006438
0.005206
0.003866
0.002205
-0.000025
-0.002027
-0.004107
-0.006182
-0.008224
-0.010261
-0.012303
-0.014337
-0.016365
-0.018390
-0.020410
-0.022427
-0.024442
-0.026453
-0.028462
-0.030465
-0.032464
-0.034459
-0.036451
-0.038439
-0.040425
-0.042407
-0.044387
-0.046365
-0.048342
-0.050319
-0.052296
-0.054274
-0.056253
-0.058234
-0.060219
-0.062210
-0.064206
-0.066208
-0.068215
-0.070231
-0.072258
-0.074300
-0.076345
-0.077167
-0.075956
-0.074744
-0.073573
-0.072406
-0.071246
-0.070104
-0.068968
-0.067834
-0.066706
-0.065583
-0.064466
-0.063347
-0.062232
-0.061114
-0.059989
-0.058854
-0.057723
-0.056579
-0.055432
-0.054276
-0.053114
-0.051942
-0.050758
-0.049577
-0.048375
-0.047167
-0.045952
-0.044736
-0.043515
-0.042291
-0.041065
-0.039837
-0.038607
-0.037374
-0.036140
-0.034903
-0.033665
-0.032426
-0.031184
-0.029944
-0.028700
-0.027453
-0.026203
-0.024956
-0.023676
-0.022370
-0.021010
-0.019601
-0.017926
-0.016177
-0.014393
-0.012559
-0.010742
-0.009008
-0.007315
-0.005887
-0.004511
-0.003162
-0.001858
-0.000594
0.000658
0.001879
0.003098
0.004315
0.005534
0.006750
0.007967
0.009184
0.010400
0.011618
0.012835
0.014053
0.015270
0.016487
0.017704
0.018921
0.020139
0.021357
0.008535
0.008880
0.009360
0.009821
0.010191
0.010462
0.010752
0.011072
0.011288
0.011604
0.011877
0.012103
0.012400
0.012696
0.013040
0.013369
0.013712
0.014045
0.014355
0.014618
0.014879
0.015118
0.015403
0.015674
0.016003
0.016369
0.016707
0.061411
-0.037228
-0.051073
0.072823
-0.045183
0.066809
-0.001184
0.025126
-0.037985
-0.031813
-0.012211
-0.024236
0.062015
0.055833
0.048267
0.035698
0.083057
-0.058995
0.005121
0.018914
-0.021196
0.047427
0.081194
-0.057029
0.012407
0.010423
-0.068008
0.088674
0.037382
0.089139
-0.011075
0.016055
-0.069004
0.031365
0.006794
0.095603
0.078590
0.073286
-0.049115
0.019705
0.044379
0.030481
-0.020480
-0.006654
-0.031242
0.015269
-0.064596
0.027360
-0.072681
0.095145
0.004357
-0.002998
0.053231
0.059424
0.022540
-0.035400
-0.029211
0.001469
-0.042760
-0.048752
0.057431
0.076307
0.053439
0.069330
-0.045157
0.007548
-0.056757
-0.017155
0.043409
-0.062343
0.086405
-0.064990
0.000424
0.022118
-0.075094
0.093262
0.042950
0.041301
0.051991
0.039721
0.050807
0.047000
0.033841
0.058186
0.028968
0.064413
0.027582
-0.018971
-0.017391
-0.034164
-0.027971
-0.015673
-0.026781
-0.022970
-0.010188
-0.040375
-0.005122
-0.003719
0.069244
0.075177
0.071637
-0.047568
-0.053363
0.021325
0.002693
0.065379
-0.041198
-0.035235
0.080836
-0.029241
-0.027235
-0.055629
0.051440
0.077240
-0.053070
0.008763
0.017702
0.014057
0.009978
0.012845
-0.061224
-0.025225
0.085288
-0.066870
-0.015131
0.041400
0.085159
-0.060999
0.009214
0.090958
-0.070331
0.013623
0.017272
-0.009040
0.035376
-0.007020
0.003118
-0.073049
0.025288
0.023192
0.097980
0.093136
0.099192
-0.046755
0.070812
-0.033457
-0.027314
-0.022287
-0.013579
-0.004448
0.051339
0.046321
0.037431
0.057481
0.026971
-0.035993
-0.053566
0.016884
0.003480
0.052212
-0.024020
0.009563
0.010839
0.042187
-0.060229
0.084298
-0.015932
0.015628
0.036163
-0.065936
-0.007880
0.033330
0.073215
0.018059
0.002286
0.093929
0.048963
0.039239
0.042358
-0.024934
-0.015353
-0.018356
-0.001740
0.045888
0.049686
0.037889
0.054689
0.057021
0.032317
0.060875
0.026352
-0.021864
-0.032998
-0.025655
-0.036847
-0.013964
-0.030666
-0.008473
-0.002450
0.063191
-0.039158
0.065644
-0.041602
0.068087
0.024037
-0.044030
-0.000057
0.070500
-0.046434
-0.050063
0.074032
-0.052258
0.077473
-0.054521
0.063389
-0.039205
0.059417
-0.033235
0.067350
-0.043172
0.020149
0.003874
0.079718
0.055433
0.071306
-0.047132
-0.028008
0.075261
-0.051089
-0.057878
0.006324
0.016490
0.081944
0.010775
0.049434
0.013255
-0.023212
0.079215
-0.055047
0.011189
0.011637
-0.060107
0.084168
-0.063467
-0.019177
0.045419
-0.065732
0.087534
-0.013104
0.039391
-0.059012
0.083174
-0.062991
0.087145
0.008004
0.014839
-0.066995
0.089810
-0.069165
0.005584
0.092105
0.018488
0.033369
-0.071499
-0.005004
0.094421
0.001812
0.029362
0.020922
-0.071021
0.024140
0.091135
-0.001129
-0.071826
-0.073874
0.096783
0.095946
0.097162
-0.039945
0.063983
-0.011671
0.066144
0.035441
0.011574
-0.045965
0.074079
-0.053848
0.081970
0.090041
-0.061782
0.005983
0.077663
0.058274
-0.065776
-0.069442
0.043814
0.024367
-0.019789
0.061498
0.058797
-0.037466
-0.034755
0.055053
0.052621
-0.031030
-0.028579
0.066349
-0.042299
0.021852
0.005897
-0.041964
0.008348
0.079815
0.014479
-0.055778
0.048213
0.044195
0.038170
0.085939
-0.063637
-0.061358
0.032150
0.020490
-0.067097
0.087732
0.085433
-0.003929
0.001003
0.092379
0.092723
0.045017
0.047517
-0.020978
0.035370
-0.023480
0.025833
-0.011635
-0.006094
0.072028
0.056268
-0.032241
-0.000388
0.002204
-0.047961
-0.050205
0.029770
0.031535
0.068488
0.069629
-0.044435
-0.045570
-0.038066
0.040934
0.050172
-0.052445
-0.016950
-0.026144
0.028391
0.075416
0.074313
-0.003138
0.004676
0.018111
0.070103
0.054265
-0.029991
0.062249
-0.032081
0.015694
-0.054688
-0.049900
-0.022017
0.050211
0.082044
0.083166
-0.057985
-0.059106
0.009622
0.078019
0.011978
0.014415
-0.026015
0.012052
0.040182
-0.034040
-0.017950
-0.057807
-0.011892
-0.013916
-0.009874
-0.064778
0.034156
0.089922
0.016842
0.019274
0.028144
0.091922
-0.005899
0.026142
0.094744
0.003537
-0.000280
-0.070627
0.022923
-0.069799
0.004192
0.072346
-0.042916
0.023566
-0.026696
-0.032932
-0.019329
-0.032673
0.056974
0.050796
0.043200
-0.050479
0.016125
-0.022802
0.052991
0.079950
0.010051
-0.055885
0.042974
-0.012716
0.016423
0.036954
-0.061551
0.021277
-0.004036
-0.009899
0.028011
-0.004804
0.046123
-0.022151
0.001425
0.070206
0.038981
-0.015056
0.010356
0.006659
-0.052605
0.048994
0.032940
0.007197
-0.063870
0.001491
0.033110
0.041945
0.026418
-0.017966
0.053882
0.060100
-0.029857
-0.036069
0.062742
-0.038706
-0.049100
0.048299
0.036996
-0.013318
0.065215
-0.041170
0.000816
-0.024264
0.022897
-0.051249
-0.009497
-0.007159
-0.030764
-0.036753
-0.043907
0.054637
-0.030606
0.076550
-0.043299
-0.001208
0.067347
0.072052
0.056228
0.060219
0.068085
0.020585
0.019360
0.078751
0.007115
0.067822
-0.019969
0.080940
-0.047932
-0.056879
0.008823
0.013698
-0.026791
0.046199
0.013186
-0.043786
-0.046035
0.076049
-0.051874
0.081081
0.083348
0.012768
-0.057008
-0.059263
-0.016733
-0.010707
0.012462
0.079994
-0.055828
-0.062496
0.038968
-0.040003
0.086579
0.018849
0.008412
-0.059792
0.083951
-0.008724
0.087927
0.088879
0.090715
0.030147
0.004763
-0.068262
0.091205
0.024924
-0.063775
0.091528
0.093554
0.021706
-0.001026
-0.002075
-0.068593
-0.067784
0.064186
0.029589
-0.040982
-0.016354
-0.009676
0.040497
-0.029727
-0.053814
0.011690
0.064949
0.077886
0.012347
-0.044765
0.072879
0.082747
-0.011536
-0.052646
0.037746
0.086822
0.062994
-0.058589
0.089516
-0.062570
0.035066
-0.038959
0.075589
0.008033
-0.008135
0.051629
-0.027861
-0.036510
-0.033764
0.060537
0.057802
0.057068
-0.054796
-0.018766
0.015190
0.044975
0.084501
0.006404
0.022491
-0.066575
-0.005241
0.053636
-0.029618
0.003011
0.026406
-0.021107
0.044764
0.024940
-0.040428
0.064441
0.066950
-0.011815
0.071249
-0.041930
-0.048283
-0.047039
-0.049418
0.049402
-0.025428
0.046901
0.017312
0.019968
-0.022897
0.054954
-0.040764
-0.038679
0.040356
-0.016347
0.055732
-0.031703
0.031255
0.005437
0.078827
0.073437
-0.002542
0.068896
0.022431
-0.053692
-0.051532
0.060987
-0.020810
-0.044851
0.013967
0.046991
0.014913
0.050973
-0.046744
0.009152
0.007875
0.068879
0.000069
0.082210
0.074852
-0.024796
0.076661
-0.028773
-0.058130
-0.060405
0.011266
0.007618
0.014757
-0.054625
0.078793
0.017631
0.040971
0.086720
-0.014724
0.034945
-0.009559
0.020059
-0.048705
0.005181
0.002735
0.088715
0.089166
0.090344
0.028930
0.030936
0.023708
0.026926
-0.062710
-0.006760
-0.065045
-0.067401
-0.034795
-0.002918
0.000230
0.070367
0.061510
-0.027851
-0.022942
0.000534
-0.009285
0.051886
0.047073
0.055725
-0.043597
0.071696
-0.051452
-0.019611
-0.010384
-0.058339
0.019631
-0.046526
0.004404
0.006158
0.047780
0.065010
0.055435
-0.031387
0.022065
0.033733
0.029719
-0.061828
-0.065377
-0.035548
0.038927
0.030885
0.044274
0.041409
-0.020373
-0.017517
-0.014940
0.068327
0.027628
-0.002147
0.076809
0.009261
0.049112
0.043761
0.080144
0.039749
0.024495
0.000707
-0.003722
-0.031657
-0.048484
-0.050576
-0.052730
0.036741
0.033447
-0.045370
0.024814
0.021953
-0.013289
0.058980
-0.034949
-0.039701
-0.037507
-0.037665
0.061694
0.066029
0.021243
0.018662
0.052932
-0.028890
-0.007864
-0.027781
-0.025572
0.007405
-0.037643
0.012877
0.015376
0.009916
-0.042779
-0.041937
0.003077
0.074525
0.070897
-0.017539
0.066925
0.010485
0.062925
0.015949
0.065918
0.079019
0.051753
-0.044073
-0.056056
-0.054935
0.011122
0.085658
-0.050670
0.076821
0.013554
0.006832
0.035738
0.082439
-0.015530
-0.013526
-0.023589
0.077727
-0.045549
-0.056602
0.084730
-0.059495
0.080767
0.017206
0.003965
0.087515
0.087141
0.087992
-0.007597
-0.060578
-0.001782
0.088325
0.027714
0.025710
-0.064567
-0.066218
0.059017
-0.024975
-0.006540
0.052370
-0.028343
0.008101
-0.038182
0.063135
-0.015766
-0.026488
0.038543
0.050387
-0.028537
0.010934
0.014327
-0.050692
-0.042406
0.074741
0.006052
0.038537
0.077591
-0.056295
-0.034532
0.017951
-0.057385
0.035149
0.019223
-0.033690
-0.036282
0.057719
0.060255
0.062373
-0.024367
-0.018345
0.016663
0.059783
0.072471
0.063749
-0.052877
0.076970
-0.049497
0.034527
0.001946
0.081544
0.085519
-0.064187
-0.010776
-0.026693
0.050669
0.020876
0.042928
0.045799
-0.018765
0.004922
-0.021632
-0.032176
0.056207
0.023546
0.069282
0.063602
0.029245
-0.006343
0.024602
-0.000712
-0.007659
-0.014553
0.008593
0.054107
0.014196
-0.030068
-0.039190
-0.038454
0.057680
0.074627
-0.051661
0.075703
0.069725
0.031447
0.001905
0.008488
0.071416
0.047978
0.065758
0.011955
-0.042967
-0.049487
-0.047507
0.045758
0.005629
0.083612
0.085964
-0.014341
0.041746
0.015544
-0.057196
-0.041629
-0.039611
0.053718
0.020842
0.066934
-0.012355
0.003174
0.081289
-0.021597
-0.060657
-0.008424
0.018418
0.031724
-0.059375
-0.063368
0.028505
0.073655
-0.063005
-0.053421
0.085129
0.086320
0.023279
-0.002548
-0.000541
0.026499
-0.005646
0.049764
-0.033610
-0.047449
-0.023840
-0.026346
-0.003252
-0.011931
0.049976
0.037805
-0.035018
0.059047
0.031753
0.045335
0.068347
-0.036813
0.057538
0.001098
-0.014030
-0.005435
0.058407
0.016294
0.048557
0.068549
-0.044734
-0.013172
0.080424
-0.050249
0.021634
-0.033511
-0.029838
0.053872
0.002407
0.083947
-0.056189
-0.058624
-0.023307
0.047577
0.021324
0.066360
0.045385
0.042600
0.040283
0.059787
0.062114
0.010757
-0.032601
-0.021361
-0.046521
-0.020322
-0.055141
0.044547
0.040534
-0.009241
0.030510
-0.004514
0.054496
-0.025426
0.049488
-0.018546
-0.008618
0.037199
0.028926
0.025631
0.006602
0.004478
-0.036012
0.022926
-0.037083
-0.004356
-0.006308
0.017919
0.009339
-0.013198
-0.004816
0.052270
-0.026340
0.012195
-0.028300
0.019247
-0.030473
0.014788
-0.038506
-0.036462
-0.048565
0.072594
0.033137
-0.022400
0.009730
0.067725
0.016725
0.069378
-0.040118
0.061724
-0.051764
0.064007
-0.054002
0.075845
-0.046337
-0.044353
-0.042171
0.013037
-0.016327
0.007286
0.073525
0.075620
-0.027262
0.051313
0.022852
0.027290
-0.049616
0.036528
0.001161
-0.001316
-0.055394
-0.057456
0.032522
0.083526
0.084785
0.004853
0.003811
0.078110
-0.006471
0.079567
0.083139
-0.062173
0.024069
0.019189
0.084327
0.025285
-0.061366
0.050549
-0.060979
0.070496
0.073649
-0.040468
-0.001844
0.036338
0.030297
-0.032336
0.056366
0.019680
0.044085
-0.016798
0.008678
0.066311
-0.030680
0.054714
-0.023781
0.038303
0.047994
0.031092
-0.031222
0.010268
-0.046609
-0.023315
-0.039287
0.049342
0.071624
-0.050848
0.067352
0.039322
0.005302
0.019922
-0.054275
0.051801
-0.027758
0.023639
0.000376
0.074943
0.033318
0.076390
0.081948
0.071547
-0.043195
-0.054203
0.082769
0.029294
0.026078
-0.058983
0.034224
-0.015141
0.054503
-0.030475
0.041393
0.006188
0.042466
-0.019795
-0.043226
-0.034389
0.060942
0.067303
-0.034988
-0.003947
0.027286
-0.035755
-0.000598
0.046385
0.058723
0.013493
0.017479
0.015949
0.062482
-0.025539
-0.047572
-0.033338
0.060328
-0.011363
-0.012693
0.070413
0.007739
-0.035395
-0.022232
-0.045502
-0.021112
0.064554
-0.037514
0.036827
0.066556
0.048859
-0.024781
0.061330
-0.024552
0.014906
0.012128
-0.048659
0.028150
0.003650
-0.051982
-0.017127
0.072721
-0.041110
0.046558
0.079259
0.064992
0.042525
-0.052218
0.081594
-0.015145
0.082323
0.037325
0.020406
-0.055437
-0.011199
-0.003321
-0.058173
0.002879
0.078371
0.017493
-0.000067
0.048394
0.002504
-0.048296
-0.005315
-0.007282
-0.060173
-0.059801
0.072449
0.052511
0.009951
0.056448
0.050716
-0.026669
-0.003386
0.023086
-0.027351
0.044156
-0.009742
-0.007036
0.055286
-0.031256
0.040757
0.005776
0.018327
-0.017549
0.022689
-0.019643
0.010545
-0.034921
-0.026194
-0.019745
0.050236
-0.013606
-0.003520
0.036487
-0.030275
0.016941
-0.021916
0.069598
-0.048868
0.038111
-0.013977
0.017116
-0.052274
-0.049047
-0.053015
0.057180
-0.009924
0.075204
-0.000103
-0.031760
0.053866
-0.029840
0.064507
0.002876
0.068469
0.045844
0.045336
-0.008080
0.022397
0.041311
-0.002340
0.077244
0.028081
-0.004095
-0.057793
-0.056990
0.005578
0.070542
-0.017993
0.015453
-0.034167
0.020914
0.065322
0.052648
-0.028630
-0.033715
0.056933
0.058310
0.013373
0.025271
0.044054
-0.024292
-0.021683
0.060535
0.011518
-0.044630
-0.042978
-0.041304
-0.022772
0.059628
0.067349
-0.032347
0.009018
0.046842
0.018677
0.065383
0.029540
0.001653
0.049778
-0.025700
-0.012327
0.061429
-0.047632
-0.038320
0.062132
0.021163
-0.041219
-0.006791
0.006537
0.055786
0.047340
0.076086
-0.040280
0.080770
-0.000845
-0.019110
0.074413
-0.049754
-0.012013
0.031299
-0.056609
0.024850
0.073817
-0.002088
0.004089
0.081154
-0.053112
0.018231
0.053290
0.051301
0.035319
0.026733
0.078416
-0.045144
0.080342
0.069292
0.035346
-0.045584
0.023989
-0.029284
-0.037354
0.042963
0.040826
0.011329
0.032652
0.014141
-0.016149
0.039214
0.007595
0.021590
0.042195
-0.044369
0.004224
-0.032958
0.063219
-0.032283
0.054180
-0.022228
-0.012017
0.042511
0.046432
0.027821
-0.029338
0.009658
-0.042819
0.057918
0.050088
0.018867
0.066147
-0.040075
0.072941
0.004564
-0.012817
0.021877
0.000891
-0.030178
-0.039407
-0.022714
0.023558
0.032412
0.013877
0.065592
0.068531
-0.028365
-0.044650
0.019579
0.021386
0.040098
0.040946
0.024378
0.034115
0.075245
0.046103
0.073224
-0.051119
0.030082
0.079175
0.037587
0.007789
0.050666
-0.026639
-0.010591
0.059453
0.001411
0.015536
0.012995
0.047375
0.049208
-0.023301
-0.025152
-0.020436
-0.002592
-0.043782
-0.021139
-0.026307
0.007047
0.044432
0.052340
-0.028321
-0.035733
-0.046717
-0.000364
-0.002866
0.025087
-0.004999
0.063361
-0.047771
0.035215
-0.008153
0.018422
0.071251
-0.049995
0.043299
-0.039272
-0.036178
-0.032763
0.079592
-0.055803
-0.001704
-0.051016
-0.006088
0.077170
-0.015937
0.063061
-0.019903
0.078788
-0.054985
0.036113
-0.047090
0.070703
0.079968
0.026865
-0.010047
0.003354
0.019424
-0.053440
-0.042007
0.011784
0.004259
0.044861
0.055239
0.069503
-0.034261
0.031063
-0.014545
-0.016650
0.016233
0.039993
0.014030
0.009362
0.019092
-0.042562
-0.018537
-0.032664
0.057352
0.009258
-0.019991
-0.001927
0.036102
0.030625
0.045165
0.023151
0.066530
-0.013010
-0.038894
-0.044771
-0.048020
0.002638
0.038897
0.001829
-0.001116
0.072040
0.057680
-0.008349
-0.049814
-0.008880
-0.018244
-0.024403
-0.000931
0.011042
0.039516
-0.050291
-0.014771
-0.004861
-0.053824
0.028863
0.077607
0.034913
0.067489
-0.033069
0.012316
0.004743
-0.027801
0.062552
0.055889
0.012203
0.059592
0.017570
0.043431
-0.041116
-0.021070
0.026485
-0.031331
-0.031415
0.064574
-0.033238
0.008400
0.034002
0.048314
-0.024241
0.020629
-0.005208
-0.043688
0.041484
0.022351
0.038586
0.062201
0.034910
0.029258
0.045378
-0.036544
-0.010915
-0.038084
0.005820
0.023134
0.076010
0.074099
0.048094
-0.024686
-0.045663
-0.028994
0.053130
0.048733
0.044082
0.076418
0.032100
-0.017905
0.025628
-0.020179
-0.054620
-0.001614
0.060263
0.042067
0.002137
0.020274
-0.038427
-0.010849
0.076815
0.067589
0.066488
-0.045910
-0.043947
0.052073
0.020143
0.006262
0.007427
0.077993
0.071813
0.068088
-0.045819
0.064212
0.013032
-0.015310
-0.031202
0.055993
-0.020701
0.019940
-0.040666
-0.041941
0.015431
0.014627
0.017501
0.055601
-0.016429
0.051418
-0.027385
0.014198
-0.029797
0.052572
-0.010583
-0.018840
0.041044
0.034577
-0.028569
0.050872
0.064536
0.019438
0.059070
0.064946
-0.042871
0.070964
-0.013602
0.062244
-0.028598
-0.040903
-0.037545
0.023901
0.019579
0.032055
-0.009683
0.039341
0.027234
0.024231
0.000174
0.059655
-0.036972
0.030854
0.074855
0.073284
0.075650
0.046869
-0.003629
-0.052650
-0.042780
0.012316
0.007809
0.017639
0.050085
-0.026057
-0.009865
0.043066
0.044159
-0.000165
-0.019233
0.056766
0.063499
0.065480
0.003145
0.033561
0.015753
0.037205
0.009633
0.056778
-0.030852
0.029160
0.006439
0.003877
0.001427
-0.003683
0.058663
-0.042778
0.046047
0.047789
-0.023726
-0.043767
-0.021967
-0.026791
0.050830
-0.034977
-0.034034
-0.006882
-0.006330
0.032913
-0.051770
0.026392
-0.046906
-0.037477
-0.002339
-0.051446
0.027650
0.070048
0.044863
0.040869
-0.000823
0.021937
-0.018707
-0.016712
-0.040827
0.074015
-0.039266
0.013563
0.036896
0.054017
-0.049139
0.021334
0.068696
0.020756
0.061061
-0.047848
0.061122
-0.030986
0.011148
-0.017054
-0.030092
-0.021695
-0.018966
-0.015190
-0.013952
0.016615
0.008672
0.006447
0.054097
0.049761
-0.025724
-0.026070
0.052489
-0.029033
-0.024581
-0.001549
0.042176
0.027621
0.007570
-0.027114
0.021305
0.055865
0.045621
0.039667
-0.037759
0.001985
-0.017791
0.021591
-0.046064
0.014086
0.055965
0.058347
-0.007727
0.000839
0.035549
-0.029469
0.030775
0.043990
-0.013493
-0.001829
-0.004345
-0.046662
-0.048344
0.033695
0.028408
0.073690
0.068913
0.063507
0.060716
-0.050702
0.010879
0.052811
-0.011586
-0.016959
-0.023234
0.016179
0.047292
0.048602
0.001956
0.005034
-0.009472
0.042115
-0.017944
0.060749
0.025601
-0.003478
-0.029407
0.017932
0.040089
-0.006200
0.020786
-0.007733
0.046964
-0.022881
0.005871
-0.019759
0.022553
-0.040174
-0.015861
0.057000
-0.040846
-0.033928
-0.031945
0.054268
0.005162
-0.034806
-0.036596
0.037891
-0.043879
0.025097
-0.041823
0.074473
0.033467
0.066898
0.069841
0.048861
-0.027563
0.064483
0.014812
-0.017491
-0.019542
0.051577
-0.039675
0.042865
-0.011636
-0.031644
0.037686
0.054758
0.031652
0.060530
-0.044717
0.065620
-0.015555
0.022035
-0.005619
0.000742
0.029635
0.072896
0.063008
0.010609
0.072111
-0.041855
0.000793
0.057939
0.012986
-0.023353
0.018367
-0.038421
0.007673
0.015315
-0.027110
0.014772
-0.010225
-0.005083
0.033270
0.005652
-0.038980
0.054937
0.061540
-0.036609
0.063763
-0.018282
0.000115
-0.035710
-0.029644
0.038453
-0.012420
0.068981
0.006818
0.019663
0.054329
0.039653
0.036307
-0.001205
0.010406
0.052538
-0.027065
0.049764
0.019199
0.024553
-0.037664
-0.043547
-0.030896
0.027128
0.071730
0.062532
-0.040940
0.041637
0.003259
0.040909
-0.015755
-0.014157
0.059519
0.038252
-0.016722
-0.025377
0.003660
0.002449
-0.007564
0.023164
0.026035
-0.028113
0.029128
0.043079
0.008567
0.020391
-0.017657
-0.039032