# vtk DataFile Version 2.0
Test
ASCII
DATASET POLYDATA
POINTS 1818 float
0.000000 0.000000 0.000000
1.000000 0.000000 0.000000
1.000000 1.000000 0.000000
0.000000 1.000000 0.000000
0.300000 0.330000 0.000000
0.700000 0.680000 0.000000
0.058824 0.000000 0.000000
0.117647 0.000000 0.000000
0.176471 0.000000 0.000000
0.235294 0.000000 0.000000
0.294118 0.000000 0.000000
0.352941 0.000000 0.000000
0.411765 0.000000 0.000000
0.470588 0.000000 0.000000
0.529412 0.000000 0.000000
0.588235 0.000000 0.000000
0.647059 0.000000 0.000000
0.705882 0.000000 0.000000
0.764706 0.000000 0.000000
0.823529 0.000000 0.000000
0.882353 0.000000 0.000000
0.941176 0.000000 0.000000
1.000000 0.058824 0.000000
1.000000 0.117647 0.000000
1.000000 0.176471 0.000000
1.000000 0.235294 0.000000
1.000000 0.294118 0.000000
1.000000 0.352941 0.000000
1.000000 0.411765 0.000000
1.000000 0.470588 0.000000
1.000000 0.529412 0.000000
1.000000 0.588235 0.000000
1.000000 0.647059 0.000000
1.000000 0.705882 0.000000
1.000000 0.764706 0.000000
1.000000 0.823529 0.000000
1.000000 0.882353 0.000000
1.000000 0.941176 0.000000
0.941176 1.000000 0.000000
0.882353 1.000000 0.000000
0.823529 1.000000 0.000000
0.764706 1.000000 0.000000
0.705882 1.000000 0.000000
0.647059 1.000000 0.000000
0.588235 1.000000 0.000000
0.529412 1.000000 0.000000
0.470588 1.000000 0.000000
0.411765 1.000000 0.000000
0.352941 1.000000 0.000000
0.294118 1.000000 0.000000
0.235294 1.000000 0.000000
0.176471 1.000000 0.000000
0.117647 1.000000 0.000000
0.058824 1.000000 0.000000
0.000000 0.941176 0.000000
0.000000 0.882353 0.000000
0.000000 0.823529 0.000000
0.000000 0.764706 0.000000
0.000000 0.705882 0.000000
0.000000 0.647059 0.000000
0.000000 0.588235 0.000000
0.000000 0.529412 0.000000
0.000000 0.470588 0.000000
0.000000 0.411765 0.000000
0.000000 0.352941 0.000000
0.000000 0.294118 0.000000
0.000000 0.235294 0.000000
0.000000 0.176471 0.000000
0.000000 0.117647 0.000000
0.000000 0.058824 0.000000
0.305970 0.335224 0.000000
0.311940 0.340448 0.000000
0.317910 0.345672 0.000000
0.323881 0.350896 0.000000
0.329851 0.356119 0.000000
0.335821 0.361343 0.000000
0.341791 0.366567 0.000000
0.347761 0.371791 0.000000
0.353731 0.377015 0.000000
0.359701 0.382239 0.000000
0.365672 0.387463 0.000000
0.371642 0.392687 0.000000
0.377612 0.397910 0.000000
0.383582 0.403134 0.000000
0.389552 0.408358 0.000000
0.395522 0.413582 0.000000
0.401493 0.418806 0.000000
0.407463 0.424030 0.000000
0.413433 0.429254 0.000000
0.419403 0.434478 0.000000
0.425373 0.439701 0.000000
0.431343 0.444925 0.000000
0.437313 0.450149 0.000000
0.443284 0.455373 0.000000
0.449254 0.460597 0.000000
0.455224 0.465821 0.000000
0.461194 0.471045 0.000000
0.467164 0.476269 0.000000
0.473134 0.481493 0.000000
0.479104 0.486716 0.000000
0.485075 0.491940 0.000000
0.491045 0.497164 0.000000
0.497015 0.502388 0.000000
0.502985 0.507612 0.000000
0.508955 0.512836 0.000000
0.514925 0.518060 0.000000
0.520896 0.523284 0.000000
0.526866 0.528507 0.000000
0.532836 0.533731 0.000000
0.538806 0.538955 0.000000
0.544776 0.544179 0.000000
0.550746 0.549403 0.000000
0.556716 0.554627 0.000000
0.562687 0.559851 0.000000
0.568657 0.565075 0.000000
0.574627 0.570299 0.000000
0.580597 0.575522 0.000000
0.586567 0.580746 0.000000
0.592537 0.585970 0.000000
0.598507 0.591194 0.000000
0.604478 0.596418 0.000000
0.610448 0.601642 0.000000
0.616418 0.606866 0.000000
0.622388 0.612090 0.000000
0.628358 0.617313 0.000000
0.634328 0.622537 0.000000
0.640299 0.627761 0.000000
0.646269 0.632985 0.000000
0.652239 0.638209 0.000000
0.658209 0.643433 0.000000
0.664179 0.648657 0.000000
0.670149 0.653881 0.000000
0.676119 0.659104 0.000000
0.682090 0.664328 0.000000
0.688060 0.669552 0.000000
0.694030 0.674776 0.000000
0.516135 0.080917 0.000000
0.549338 0.042552 0.000000
0.567302 0.088709 0.000000
0.555658 0.563778 0.000000
0.559301 0.571359 0.000000
0.552318 0.570919 0.000000
0.603235 0.047100 0.000000
0.446553 0.448087 0.000000
0.438652 0.443189 0.000000
0.445116 0.440368 0.000000
0.437254 0.190586 0.000000
0.465954 0.201747 0.000000
0.439184 0.213838 0.000000
0.453137 0.228102 0.000000
0.522423 0.410182 0.000000
0.522098 0.390982 0.000000
0.537289 0.398500 0.000000
0.453388 0.527105 0.000000
0.462022 0.524948 0.000000
0.461218 0.533993 0.000000
0.324300 0.374550 0.000000
0.319287 0.386214 0.000000
0.314834 0.375138 0.000000
0.668809 0.628853 0.000000
0.677366 0.632907 0.000000
0.668274 0.639611 0.000000
0.469934 0.529282 0.000000
0.439703 0.436699 0.000000
0.446608 0.432083 0.000000
0.542854 0.633425 0.000000
0.535117 0.647070 0.000000
0.524302 0.633157 0.000000
0.519372 0.648877 0.000000
0.586338 0.611293 0.000000
0.591638 0.624149 0.000000
0.575478 0.621479 0.000000
0.437962 0.035513 0.000000
0.421505 0.085456 0.000000
0.394924 0.044162 0.000000
0.445207 0.955749 0.000000
0.429168 0.919510 0.000000
0.464409 0.914226 0.000000
0.317150 0.400904 0.000000
0.328626 0.395860 0.000000
0.439616 0.884412 0.000000
0.330406 0.381773 0.000000
0.676842 0.602700 0.000000
0.674982 0.614185 0.000000
0.665930 0.611798 0.000000
0.414707 0.535036 0.000000
0.420123 0.526072 0.000000
0.425338 0.533771 0.000000
0.398407 0.375558 0.000000
0.393804 0.363255 0.000000
0.407284 0.365452 0.000000
0.407758 0.523337 0.000000
0.899969 0.377867 0.000000
0.945915 0.378245 0.000000
0.914158 0.409130 0.000000
0.358219 0.436142 0.000000
0.361390 0.425428 0.000000
0.369309 0.432300 0.000000
0.465999 0.075074 0.000000
0.269944 0.367761 0.000000
0.266521 0.352125 0.000000
0.283474 0.357667 0.000000
0.385889 0.083020 0.000000
0.359482 0.060981 0.000000
0.279658 0.346766 0.000000
0.363604 0.104040 0.000000
0.511115 0.503731 0.000000
0.503243 0.499914 0.000000
0.509146 0.494910 0.000000
0.513188 0.475753 0.000000
0.504957 0.474656 0.000000
0.511959 0.464784 0.000000
0.311863 0.447505 0.000000
0.293019 0.442078 0.000000
0.305555 0.431691 0.000000
0.499204 0.464990 0.000000
0.293855 0.459576 0.000000
0.396676 0.236328 0.000000
0.371014 0.247362 0.000000
0.373003 0.229199 0.000000
0.384478 0.261522 0.000000
0.555704 0.523331 0.000000
0.551313 0.515879 0.000000
0.562752 0.515269 0.000000
0.554954 0.506854 0.000000
0.804236 0.611103 0.000000
0.819351 0.593503 0.000000
0.832061 0.615776 0.000000
0.509908 0.485173 0.000000
0.129738 0.481190 0.000000
0.110722 0.443736 0.000000
0.154857 0.452634 0.000000
0.089738 0.485299 0.000000
0.396427 0.153886 0.000000
0.393058 0.115469 0.000000
0.420333 0.126587 0.000000
0.442628 0.413512 0.000000
0.434815 0.404283 0.000000
0.446816 0.400259 0.000000
0.499770 0.482873 0.000000
0.353883 0.235057 0.000000
0.351360 0.254011 0.000000
0.332147 0.240870 0.000000
0.112307 0.405527 0.000000
0.140355 0.392788 0.000000
0.142004 0.423465 0.000000
0.334868 0.263052 0.000000
0.551239 0.594093 0.000000
0.560217 0.601969 0.000000
0.546711 0.604614 0.000000
0.398510 0.570197 0.000000
0.387124 0.557316 0.000000
0.399978 0.555748 0.000000
0.705281 0.743146 0.000000
0.722930 0.758853 0.000000
0.697202 0.758074 0.000000
0.380190 0.572638 0.000000
0.278345 0.431947 0.000000
0.292575 0.428097 0.000000
0.470820 0.540616 0.000000
0.478213 0.533042 0.000000
0.480161 0.543190 0.000000
0.415268 0.299334 0.000000
0.412465 0.313515 0.000000
0.400419 0.297680 0.000000
0.396495 0.317117 0.000000
0.718655 0.732879 0.000000
0.709319 0.677587 0.000000
0.715709 0.670111 0.000000
0.719283 0.682820 0.000000
0.212992 0.453899 0.000000
0.184619 0.470046 0.000000
0.186665 0.440862 0.000000
0.452307 0.386568 0.000000
0.460371 0.397715 0.000000
0.478664 0.456068 0.000000
0.476179 0.462123 0.000000
0.471250 0.456445 0.000000
0.464654 0.388544 0.000000
0.483415 0.461045 0.000000
0.357146 0.449596 0.000000
0.344653 0.443966 0.000000
0.554562 0.459423 0.000000
0.543333 0.457517 0.000000
0.553850 0.449505 0.000000
0.543131 0.445036 0.000000
0.347312 0.459318 0.000000
0.781088 0.538918 0.000000
0.810909 0.534152 0.000000
0.799399 0.553968 0.000000
0.402869 0.534333 0.000000
0.408011 0.546121 0.000000
0.703844 0.670118 0.000000
0.552234 0.794299 0.000000
0.528593 0.795589 0.000000
0.539188 0.770312 0.000000
0.596088 0.518714 0.000000
0.593029 0.508081 0.000000
0.604120 0.510731 0.000000
0.384880 0.468703 0.000000
0.382270 0.455963 0.000000
0.394062 0.458803 0.000000
0.374729 0.466839 0.000000
0.340939 0.294790 0.000000
0.324530 0.290188 0.000000
0.338473 0.279923 0.000000
0.465367 0.336545 0.000000
0.477337 0.352846 0.000000
0.459495 0.350024 0.000000
0.584947 0.516440 0.000000
0.326802 0.302636 0.000000
0.945343 0.420397 0.000000
0.779746 0.749037 0.000000
0.771533 0.774140 0.000000
0.758291 0.749848 0.000000
0.743435 0.765852 0.000000
0.751942 0.297541 0.000000
0.784264 0.292048 0.000000
0.772562 0.330207 0.000000
0.812744 0.305799 0.000000
0.655547 0.494535 0.000000
0.649767 0.472522 0.000000
0.671966 0.480244 0.000000
0.612062 0.502007 0.000000
0.616789 0.515227 0.000000
0.403059 0.898561 0.000000
0.391512 0.946883 0.000000
0.625780 0.504699 0.000000
0.635988 0.491275 0.000000
0.596252 0.650380 0.000000
0.583401 0.655132 0.000000
0.583737 0.644777 0.000000
0.713099 0.416502 0.000000
0.708474 0.388943 0.000000
0.733625 0.389568 0.000000
0.684835 0.406222 0.000000
0.656936 0.416423 0.000000
0.633624 0.425116 0.000000
0.634362 0.400237 0.000000
0.646884 0.740682 0.000000
0.654954 0.726002 0.000000
0.663305 0.741855 0.000000
0.732481 0.441235 0.000000
0.751303 0.460839 0.000000
0.721338 0.462235 0.000000
0.759622 0.437863 0.000000
0.462761 0.363156 0.000000
0.373644 0.622389 0.000000
0.346217 0.613642 0.000000
0.370315 0.594521 0.000000
0.351411 0.640635 0.000000
0.695337 0.690220 0.000000
0.705202 0.700133 0.000000
0.692303 0.700990 0.000000
0.521365 0.516400 0.000000
0.522992 0.510597 0.000000
0.527633 0.513574 0.000000
0.291567 0.329512 0.000000
0.294927 0.318154 0.000000
0.365771 0.366553 0.000000
0.366135 0.358691 0.000000
0.374180 0.368122 0.000000
0.408232 0.327056 0.000000
0.423479 0.328280 0.000000
0.411272 0.339740 0.000000
0.664110 0.670607 0.000000
0.667245 0.662649 0.000000
[...]
POINT_DATA 1818
SCALARS UX float 1
LOOKUP_TABLE default
-0.000008
0.000006
0.453117
-0.191492
-0.066223
0.333040
0.000001
-0.000001
-0.000000
-0.000000
-0.000000
-0.000000
-0.000000
-0.000000
-0.000000
0.000000
0.000000
0.000000
0.000000
0.000000
0.000001
-0.000000
0.074595
0.166060
0.233587
0.300291
0.367945
0.440865
0.513579
0.580679
0.637787
0.681201
0.704209
0.715044
0.693362
0.626315
0.535495
0.480064
0.370934
0.313559
0.277185
0.253628
0.235704
0.218346
0.200752
0.182888
0.162863
0.139007
0.111296
0.078531
0.039895
-0.006149
-0.058664
-0.124246
-0.196150
-0.207960
-0.229490
-0.254895
-0.288583
-0.327700
-0.366789
-0.403592
-0.429783
-0.443598
-0.449908
-0.390526
-0.288449
-0.097117
-0.019067
-0.058480
-0.049482
-0.037777
-0.051314
-0.055000
-0.059789
-0.078169
-0.078207
-0.082559
-0.064801
-0.043714
-0.037906
-0.041728
-0.059241
-0.032978
-0.028617
-0.025768
-0.024506
-0.011267
-0.018364
-0.008080
-0.019401
-0.024803
-0.020672
-0.030331
-0.032526
0.028769
0.001599
0.011252
0.057624
0.068443
0.069006
0.070034
0.060934
0.081353
0.105504
0.112565
0.130416
0.134597
0.135121
0.160716
0.152391
0.170139
0.211501
0.215470
0.228614
0.240274
0.236864
0.239141
0.236124
0.235650
0.244580
0.244784
0.279275
0.273370
0.263151
0.277354
0.292329
0.285257
0.294236
0.290328
0.290352
0.281973
0.277595
0.285044
0.316181
0.319921
0.003587
0.000199
0.004955
0.006272
0.012936
0.001922
0.000260
0.166138
0.140866
0.161574
0.018376
0.020576
0.022447
0.028993
0.165508
0.145897
0.159055
-0.100458
-0.101369
-0.087984
-0.275852
-0.289987
-0.283776
0.486936
0.488402
0.473209
-0.092395
0.154308
0.161657
0.065346
0.076214
0.057571
0.070743
0.060301
0.077559
0.065376
0.000891
0.005313
0.000690
0.151679
0.141315
0.156158
-0.289262
-0.285963
0.139998
-0.279215
0.495220
0.499210
0.495792
-0.103594
-0.113546
-0.100808
0.091852
0.081674
0.088351
-0.122453
0.403716
0.436731
0.454347
-0.246482
-0.253120
-0.246936
0.002864
-0.305101
-0.291611
-0.288944
0.005138
0.003181
-0.265782
0.006314
0.272001
0.237211
0.265063
0.249673
0.244798
0.232396
-0.253564
-0.266625
-0.270693
0.227553
-0.250361
0.024785
0.025989
0.023443
0.030206
0.341793
0.327285
0.331733
0.314629
0.586704
0.589177
0.607639
0.261287
-0.347953
-0.379760
-0.348184
-0.371257
0.013272
0.009238
0.007730
0.144615
0.132539
0.133050
0.251841
0.023767
0.027125
0.025214
-0.389350
-0.374019
-0.368932
0.027127
0.023403
0.035564
0.033703
-0.069410
-0.090632
-0.085134
0.245962
0.263299
0.239354
-0.078095
-0.281302
-0.278596
-0.075462
-0.084241
-0.069008
0.050532
0.057604
0.046818
0.056089
0.270885
0.447263
0.501611
0.497073
-0.306517
-0.315686
-0.333696
0.121687
0.134498
0.206010
0.210871
0.202337
0.126737
0.214748
-0.234781
-0.243689
0.240105
0.232900
0.226025
0.215520
-0.227870
0.502414
0.524408
0.536871
-0.110152
-0.092595
0.496709
0.174973
0.163233
0.160480
0.350262
0.331256
0.340389
-0.206254
-0.222344
-0.215883
-0.211434
0.031975
0.026283
0.028825
0.084517
0.099613
0.092911
0.341990
0.028101
0.489861
0.409229
0.332026
0.344497
0.288747
0.184498
0.200448
0.240165
0.239958
0.343630
0.310409
0.336362
0.330183
0.353152
0.125148
0.127472
0.341017
0.326882
0.108119
0.106493
0.095853
0.293883
0.258551
0.280077
0.258618
0.248171
0.240960
0.214070
0.207553
0.206614
0.216406
0.340054
0.380644
0.354977
0.360782
0.103948
-0.036108
-0.063614
-0.063057
-0.037797
0.256519
0.268687
0.240529
0.269058
0.290137
0.297693
-0.136965
-0.023421
0.063940
0.066268
0.074818
0.064322
0.068678
0.072610
0.189383
0.203653
0.210961
-0.191229
-0.171616
-0.193680
-0.175734
0.143068
0.144065
0.127290
0.286264
0.058986
0.064016
0.076549
0.033729
0.026888
0.038553
0.116878
0.104811
0.098875
-0.000827
0.005023
-0.014249
0.081724
0.048009
0.056144
0.059889
0.256732
0.276121
0.252298
0.267073
0.022058
0.069286
-0.083637
-0.086221
-0.077594
-0.098216
-0.319885
-0.310387
-0.309272
-0.292190
-0.299379
-0.292834
0.089798
0.099117
0.086585
0.324681
0.315209
-0.168557
-0.182221
-0.159109
-0.010809
-0.066845
-0.046218
-0.020072
-0.013778
-0.273757
-0.036652
-0.032639
-0.045406
-0.021960
-0.216290
-0.205284
0.506845
0.517296
0.496137
0.515980
-0.234569
-0.236843
-0.248807
-0.044114
-0.109332
-0.030339
0.016681
0.005744
0.006068
0.001521
0.009260
-0.028751
-0.097942
0.528633
0.512314
-0.149693
-0.097538
-0.088050
0.096550
0.087324
0.078207
-0.075078
-0.232402
-0.226484
0.134866
0.142607
0.147032
-0.202213
-0.215744
0.047816
0.041649
0.044630
0.038698
0.044830
0.035182
0.197295
0.200887
0.177975
-0.314357
-0.355448
-0.318121
-0.170757
-0.132848
-0.140870
-0.158731
0.164870
0.153011
0.045449
0.046429
-0.032008
-0.034166
-0.042598
-0.047406
-0.026955
-0.021831
-0.017603
-0.204431
-0.206487
-0.215019
-0.191436
-0.179284
-0.182692
-0.168296
-0.072572
0.140879
0.128909
0.124020
0.111725
0.094850
0.094048
0.111887
0.324391
0.286832
0.284868
0.332287
0.374310
-0.208153
-0.222295
-0.245370
0.382775
0.392755
0.359110
-0.144493
-0.134364
-0.129997
0.114267
0.130306
-0.143942
0.118421
0.099127
0.107399
0.136076
0.150388
0.145255
0.298059
0.296958
0.313696
0.032291
0.029213
0.123061
0.308767
-0.068028
-0.034011
-0.106610
-0.081932
-0.124173
0.081650
0.098351
0.239518
0.259136
0.254839
0.248086
0.194928
-0.393370
0.206552
0.217117
0.208143
0.213882
-0.274595
-0.304386
-0.242269
0.440994
0.437618
0.446082
0.030325
0.175498
0.305867
0.273681
0.263307
0.191714
0.203237
0.207417
-0.259641
-0.268492
-0.255353
0.122280
0.111863
-0.272738
0.236512
0.254312
0.253066
0.120574
0.108959
0.130128
0.128653
0.147127
0.109640
0.272398
-0.215100
-0.213031
-0.231217
-0.225364
-0.216664
-0.209791
0.299896
0.322039
0.321802
0.312550
0.238977
0.445819
0.434278
-0.153240
-0.125600
-0.137702
0.073469
0.075777
-0.184244
-0.181412
-0.156133
0.066293
0.014076
0.022732
0.011108
-0.169504
-0.180923
-0.191316
-0.014024
-0.059073
0.007718
0.025266
0.025227
0.021682
0.021029
0.063482
0.315654
-0.294118
-0.323460
0.333387
0.255118
0.273477
0.035825
0.233488
0.219522
-0.004460
0.011124
0.388002
0.410313
0.415491
-0.017083
0.222729
0.243516
0.310342
-0.100301
-0.114886
-0.082830
-0.053147
-0.037856
-0.001727
-0.127890
0.144351
0.157895
-0.141977
0.101137
0.082972
0.094419
0.093078
0.482666
0.453710
0.431824
0.452175
0.418582
0.381968
0.122965
0.126276
0.143100
0.035813
0.036175
0.290113
0.261903
0.205877
0.217095
0.007344
-0.271842
-0.280499
0.146492
0.155446
-0.266126
0.564728
0.568681
0.534694
0.535067
0.562576
0.049063
0.049709
0.068224
-0.300625
0.256626
0.078912
0.077035
0.086754
-0.083692
-0.135933
0.076458
0.083584
0.463436
-0.220508
-0.181043
-0.218721
-0.220192
-0.232688
-0.060519
-0.048138
-0.043052
-0.243737
0.532151
0.524307
0.541124
-0.030996
0.015442
0.363141
0.355940
0.367055
0.336803
0.360406
0.331950
0.354416
0.366851
0.370463
0.108256
-0.228114
0.100548
-0.247761
-0.266214
-0.072566
-0.103565
0.071720
0.075536
0.014872
-0.002217
0.262483
0.216455
-0.278600
0.206894
-0.062159
-0.041322
-0.023748
0.198321
0.455159
0.456029
0.433010
0.447227
0.082217
0.068469
0.142656
0.139228
0.155092
0.392070
0.407842
0.387670
0.397022
0.175012
0.224932
0.006394
-0.008222
0.305913
-0.167796
-0.098075
-0.120691
0.541511
0.549831
0.544779
0.176874
0.162763
0.180119
0.560902
0.435045
0.132347
0.057660
0.092851
-0.011057
0.157906
0.143717
0.143516
0.125806
0.564303
0.571841
0.573172
0.000089
-0.023018
-0.051388
0.598000
-0.186086
-0.164754
-0.196495
-0.107015
-0.150764
-0.229076
-0.003051
0.000267
-0.008606
0.668956
0.656018
0.688627
0.640203
0.634058
0.680940
0.678935
0.190713
0.194970
-0.393770
-0.331921
-0.352236
0.188288
0.107601
0.059097
-0.387576
-0.382003
-0.403265
-0.249215
-0.266756
-0.422800
0.085687
0.061640
0.095661
0.011860
0.066275
0.086371
0.096327
0.580319
0.637509
0.235166
0.232310
0.249545
0.313267
0.288755
0.343553
0.270611
0.248218
0.298206
0.061142
0.052655
-0.124489
-0.219237
-0.228158
-0.159907
-0.201512
-0.208368
-0.226347
-0.399515
-0.414709
0.004017
0.009945
0.002389
0.007367
0.004850
0.185863
0.196071
0.196077
-0.407546
0.001928
0.000883
0.051529
0.047497
0.037169
0.657058
0.632162
-0.237085
0.540529
0.537099
0.511033
0.567853
-0.310606
-0.325401
-0.294075
0.571763
0.006502
0.628200
0.245152
0.009812
0.031768
0.025287
0.018062
0.000527
0.007356
0.188897
0.194937
0.201756
0.505262
0.433788
0.037830
0.112895
0.120782
0.215639
0.041046
0.105350
0.147208
0.121123
0.147176
-0.279350
-0.264109
0.103352
0.167817
0.000804
0.002249
0.024652
0.027204
0.009360
0.000196
0.006537
-0.207541
-0.168854
-0.171786
-0.197037
0.106113
-0.272889
-0.237485
-0.284410
-0.239546
-0.265609
0.037585
0.047067
0.075090
0.097980
0.030565
0.024584
0.023422
0.177460
0.191258
-0.219530
-0.276053
-0.226646
0.176791
0.164353
0.161228
0.025351
0.014577
0.088672
0.080956
-0.252085
-0.284596
-0.270562
-0.149132
-0.154206
-0.130610
0.017646
-0.037152
-0.168003
0.178895
0.049065
0.031121
-0.120871
-0.038753
-0.008417
-0.042295
-0.138341
-0.350902
0.208431
0.164606
-0.099755
-0.089835
-0.115160
-0.103349
0.046295
0.044561
-0.168721
0.278907
0.111589
0.124260
0.034472
0.061745
0.046439
0.027745
0.057476
-0.012007
0.031643
0.051615
0.032344
0.038200
-0.124225
-0.121904
-0.148959
0.097117
0.097982
-0.145707
0.408689
0.372433
0.384462
-0.359884
-0.335004
-0.318601
0.130569
0.122515
0.112373
-0.309193
0.550379
0.598203
0.570919
0.528337
0.548606
-0.343454
-0.338665
-0.068680
-0.095201
-0.067283
0.262467
0.464766
0.384543
0.564524
-0.138719
-0.134604
0.051294
0.034868
0.058552
-0.304232
-0.358544
0.031236
0.131408
0.141481
0.131932
-0.123219
-0.132339
-0.116758
0.510113
0.506050
0.518183
-0.168180
0.559325
0.563174
-0.362458
0.117089
0.285199
-0.161316
-0.209590
0.181321
0.173831
0.378358
0.377262
0.362454
0.051412
0.050346
0.388406
0.043915
0.406298
-0.328173
-0.341477
0.531472
0.544595
0.410206
0.073313
0.057358
0.584645
0.555631
0.585092
0.534286
0.175609
0.163839
0.174285
0.163146
0.158801
0.198119
0.190333
0.177905
0.016136
0.061861
0.021983
0.025439
0.021695
0.109097
0.127516
0.059807
0.055933
0.041342
0.202667
0.188863
0.193311
-0.012226
-0.012436
0.002839
-0.144334
0.555812
0.556317
0.557614
-0.302997
-0.298491
-0.313504
0.017435
0.017522
0.021429
-0.301228
0.137205
0.020799
0.152828
0.199871
-0.345112
-0.325967
0.607118
0.195181
0.296295
0.266846
0.016179
0.002780
0.228199
0.222916
0.011386
-0.245022
0.223154
-0.147355
-0.331012
-0.329788
-0.156538
-0.143664
-0.161925
0.421485
0.433028
0.450946
0.414218
0.021481
0.041347
0.025380
0.073067
-0.308325
0.060472
0.043441
-0.314027
-0.000504
0.253552
0.245791
0.218596
0.589639
0.497815
0.454921
0.072186
0.221596
0.202763
-0.291742
-0.282996
-0.291871
-0.312627
0.047852
0.001143
0.022497
0.204258
0.020037
0.117387
0.101577
0.007507
0.040606
0.037064
0.049035
0.521141
-0.001294
0.002180
-0.000003
0.219405
0.031584
0.020959
0.020112
0.505697
0.026185
0.015561
0.010277
0.038085
-0.003605
0.485058
0.477162
0.491024
0.487500
0.482886
0.491258
-0.285083
0.100533
0.000421
0.000584
0.003787
0.116524
0.113887
0.123935
0.604182
0.627718
0.440608
-0.085568
-0.097615
0.167482
0.151260
0.403582
0.352700
0.321868
0.308031
-0.174327
-0.159612
0.012802
0.005611
0.136786
-0.200585
-0.199810
0.226132
-0.191515
0.211733
0.220733
0.218975
0.217412
0.219754
0.520777
0.509507
0.035410
0.015437
0.039420
0.019605
0.050459
0.050049
0.131288
0.133629
-0.363201
0.103933
0.191426
0.217678
0.615207
0.612604
0.166543
0.240836
0.245918
0.232445
0.184850
0.146835
0.021485
0.029216
0.023635
-0.107590
-0.127286
0.512722
0.138808
0.096275
0.126392
0.238974
0.152549
0.158374
0.158252
0.502020
0.508902
0.443567
-0.274244
-0.276773
-0.260130
0.217522
0.019865
0.015262
0.017443
0.233387
0.017669
0.017622
0.009005
0.127652
0.228548
0.012927
0.460965
0.469465
0.492906
0.499675
0.481418
0.590908
-0.238751
0.193751
0.106653
0.088513
0.088801
0.114486
0.096939
0.019343
0.010960
0.503717
0.272823
0.221465
0.225681
0.499807
0.506522
0.226398
0.294234
0.295182
-0.221245
-0.253805
0.183592
0.004308
-0.212283
0.504820
0.491713
0.482489
0.489130
-0.223548
-0.298701
-0.304176
0.358562
0.368406
0.179967
0.159837
0.156552
0.152357
0.335043
0.635909
0.181415
0.480757
0.440709
0.460747
0.030301
0.020553
0.091456
0.623631
0.088170
0.031125
0.479518
0.426291
0.175416
0.161765
0.117252
0.098672
0.109088
0.076560
0.375529
0.364424
0.048256
0.014860
0.031635
0.061804
0.014448
-0.416224
0.314396
0.300098
0.316747
0.284049
0.278997
-0.142874
0.469401
-0.247514
0.109317
-0.029719
-0.225585
-0.014905
-0.004006
0.002159
-0.210603
0.151419
-0.278166
-0.352551
0.111432
0.194400
0.176158
-0.251192
-0.259929
-0.210171
0.487838
0.089021
0.078608
-0.206020
0.071559
0.463332
0.515207
-0.006811
-0.010675
-0.032351
0.278048
-0.201778
0.466547
0.465004
0.065737
0.008456
-0.002286
0.009485
0.029054
0.043853
0.046524
0.201968
0.462451
0.507352
0.402191
0.036091
0.416983
0.059681
0.058156
0.423728
0.062631
0.018890
0.572745
0.165007
-0.246685
-0.250628
0.425679
0.227043
0.218532
0.582617
0.211409
0.217489
0.172558
-0.211656
-0.185975
0.163820
0.150784
-0.233714
-0.233473
-0.239004
0.505136
-0.241426
-0.065342
-0.073927
0.383422
0.094147
0.029096
0.028055
-0.068852
0.102812
0.096835
0.342825
-0.009317
-0.003086
0.390845
0.404640
0.392990
0.408430
0.385516
0.339870
-0.193188
-0.118446
-0.163018
-0.182397
0.041759
0.211359
0.208623
0.185682
0.196921
0.039534
0.021294
0.233684
0.390205
0.450173
0.111342
0.107750
0.117685
0.113690
0.005131
-0.176358
-0.177151
0.436046
0.450620
0.446955
-0.009737
0.002560
0.098706
-0.169109
-0.183488
0.020654
0.016595
0.444030
0.027018
-0.267468
-0.300762
-0.232648
0.012438
0.108668
-0.159062
0.068539
0.065570
-0.269313
-0.291307
0.088982
0.135273
0.201730
0.007605
0.141633
0.000042
0.129526
-0.112180
-0.099479
0.144634
-0.040823
-0.278309
-0.276266
-0.317846
-0.224406
-0.007872
-0.123181
-0.103667
0.358851
0.364607
0.348315
-0.009904
0.016523
0.083820
0.076252
-0.045714
-0.030203
-0.052848
0.171354
0.182233
-0.119906
-0.027210
0.451464
0.462533
0.049726
-0.140392
-0.126090
-0.260258
-0.255898
-0.263367
0.116461
0.123354
0.405297
0.367644
0.088161
0.104666
0.013626
0.227008
0.234527
0.104584
0.155512
-0.111683
0.000054
0.000002
0.057294
-0.085856
0.152247
0.145673
-0.062336
-0.064921
0.062921
0.209395
0.217587
0.456614
-0.276005
0.468363
0.134688
0.396883
0.414892
-0.178050
-0.191332
0.175298
0.186405
0.137652
0.137503
0.430338
0.476623
0.122520
0.053325
0.491201
-0.293228
0.155167
0.099038
0.085422
-0.296655
0.499604
0.046291
0.174469
0.286680
0.284718
0.239601
0.039566
-0.108386
-0.092063
-0.049198
-0.319981
0.383213
0.233371
0.258590
0.244501
0.011078
-0.233872
0.404874
-0.209793
-0.157332
-0.156877
0.041631
0.074590
0.052893
0.328282
0.153755
0.046793
0.071409
-0.078975
-0.001235
0.389063
0.428111
-0.143321
-0.127734
0.059991
0.000318
0.024804
-0.006664
0.346959
0.420125
0.349940
0.274312
-0.242929
0.364141
-0.270492
0.038952
0.298984
0.419022
0.418232
0.270410
0.436165
0.496594
-0.170800
-0.027468
-0.009541
0.613765
0.592936
0.005451
0.506130
0.070586
0.057512
0.062472
0.195722
0.206792
0.184368
0.177383
0.055402
0.021483
0.470585
0.086275
-0.254235
0.110707
-0.216061
0.012801
0.464764
0.557513
0.556319
0.081974
0.075776
-0.216186
0.399975
0.369507
0.074656
0.123099
0.033924
0.029501
-0.264116
0.037829
0.223749
0.050081
0.433119
0.530775
0.349148
0.307055
0.287755
-0.200651
0.021844
0.035381
0.044954
-0.193901
0.649120
-0.018547
0.160785
0.172569
-0.250241
0.143954
0.267414
0.210271
0.147379
0.218038
0.382741
0.071210
0.319077
0.079929
0.130756
0.134456
0.001342
-0.111563
-0.000995
0.092446
0.260041
0.008749
0.010623
0.071944
0.598036
0.237742
-0.226553
-0.233982
0.012473
0.374498
-0.190637
-0.223259
-0.238985
-0.021233
-0.153212
0.463968
0.063479
0.415198
0.291780
0.301195
0.188567
0.109767
0.090237
-0.237272
0.341183
0.334364
0.292082
0.302463
-0.013055
-0.023903
-0.123648
-0.119167
0.295618
-0.269554
0.015965
0.010041
-0.067144
-0.044353
0.178105
0.066315
0.273868
0.190673
-0.008809
0.240633
0.184281
0.010965
-0.111758
-0.108276
0.220593
0.187107
-0.058649
0.345911
0.313479
-0.203475
0.548326
-0.051897
-0.299278
0.392802
0.274740
0.124587
0.135040
-0.028248
-0.226613
0.423703
0.410301
0.420775
0.058001
0.191365
0.246892
-0.249879
-0.310728
0.340655
0.201195
-0.248197
-0.199352
0.468650
0.460133
0.193143
0.188217
0.123586
0.207250
0.384263
0.076196
0.087311
-0.048426
-0.106711
0.131985
-0.044065
0.055068
0.051742
0.194658
0.370004
-0.045512
0.428862
-0.188441
0.002230
0.472769
-0.188240
-0.151997
-0.210566
-0.065458
0.100081
0.115011
-0.048392
0.434491
-0.193891
0.178750
0.084980
0.044275
0.201619
0.052418
0.061846
0.203665
-0.155395
-0.165730
0.050216
0.163931
0.079855
-0.132762
-0.035545
-0.023875
-0.108443
-0.064443
0.071717
-0.048143
-0.025707
0.036458
0.201445
-0.055457
0.499128
0.517843
0.119084
-0.226277
-0.214989
0.057451
0.167257
0.151539
-0.049345
0.172900
-0.243436
-0.254272
0.173874
0.280844
0.278368
0.378726
0.438488
-0.072106
0.390310
-0.055310
-0.075072
-0.060507
0.201568
0.017053
0.307088
-0.084160
0.238894
0.183810
0.177641
-0.292200
0.228503
-0.055715
-0.070185
0.173770
0.016309
-0.091882
0.138863
0.290368
0.069864
-0.053116
0.090006
SCALARS UY float 1
LOOKUP_TABLE default
-0.000010
-0.000010
-1.864995
-1.864997
-0.219265
-1.282687
-0.000002
-0.000003
-0.000003
-0.000003
-0.000003
-0.000003
-0.000003
-0.000003
-0.000003
-0.000003
-0.000003
-0.000003
-0.000003
-0.000003
-0.000004
-0.000002
-0.081005
-0.214377
-0.313439
-0.412308
-0.523679
-0.621937
-0.709820
-0.784472
-0.848469
-0.902579
-0.957013
-1.014980
-1.095727
-1.233111
-1.421469
-1.642137
-1.864997
-1.864996
-1.864997
-1.864997
-1.864997
-1.864997
-1.864997
-1.864997
-1.864997
-1.864997
-1.864997
-1.864997
-1.864997
-1.864997
-1.864997
-1.864997
-1.696649
-1.530494
-1.372726
-1.218312
-1.075580
-0.951854
-0.845985
-0.757385
-0.685902
-0.650985
-0.618804
-0.539021
-0.436393
-0.221442
-0.169402
-0.061001
-0.254516
-0.260080
-0.273240
-0.278090
-0.351538
-0.395234
-0.441807
-0.418449
-0.400340
-0.414056
-0.376944
-0.443131
-0.441843
-0.475170
-0.512342
-0.512616
-0.480908
-0.471451
-0.496771
-0.579358
-0.591139
-0.631429
-0.709147
-0.701259
-0.746977
-0.752619
-0.761978
-0.762177
-0.657686
-0.790272
-0.757919
-0.666482
-0.770698
-0.811705
-0.877393
-0.847964
-0.768052
-0.736833
-0.817790
-0.966983
-0.943688
-0.953754
-0.852170
-0.843373
-0.834212
-0.885361
-0.922034
-0.959147
-0.971786
-1.004760
-1.063388
-1.031525
-1.019265
-1.110727
-1.112633
-1.064573
-1.169381
-1.149786
-1.026831
-1.120359
-1.229032
-1.305451
-1.311380
-1.307363
-1.268192
-1.242496
-0.003303
-0.000059
-0.004962
-1.362499
-1.391872
-1.398284
-0.000246
-0.229828
-0.249469
-0.197485
-0.007637
-0.014444
-0.009339
-0.025047
-0.214444
-0.197390
-0.218708
-1.259921
-1.272073
-1.278516
-0.790427
-0.828339
-0.791718
-0.724513
-0.737441
-0.768737
-1.288111
-0.199802
-0.177940
-1.452242
-1.458362
-1.436417
-1.447507
-1.459016
-1.477597
-1.465655
-0.001349
-0.002837
-0.000360
-1.812549
-1.765106
-1.766723
-0.861533
-0.862113
-1.722965
-0.816317
-0.679734
-0.706784
-0.686053
-1.205466
-1.203860
-1.220572
-0.118468
-0.107611
-0.113352
-1.181116
-0.543804
-0.596858
-0.609689
-0.993935
-0.983303
-1.005232
0.000836
-0.686094
-0.612266
-0.667818
-0.003320
-0.000853
-0.593708
-0.006198
-0.328119
-0.352407
-0.285327
-0.254301
-0.244684
-0.243903
-0.940270
-0.904403
-0.904373
-0.229778
-0.935421
-0.029170
-0.029076
-0.021373
-0.038062
-0.362754
-0.345101
-0.362046
-0.340092
-0.892170
-0.858773
-0.898560
-0.261172
-0.773228
-0.701247
-0.745706
-0.747969
-0.010927
-0.006851
-0.004008
-0.160060
-0.151340
-0.151384
-0.256522
-0.025491
-0.030156
-0.020444
-0.648476
-0.642004
-0.689973
-0.030514
-1.427327
-1.439552
-1.432414
-1.227707
-1.196639
-1.210512
-1.589914
-1.591910
-1.618671
-1.210427
-0.863635
-0.878837
-1.298735
-1.303159
-1.314088
-0.069037
-0.078379
-0.063776
-0.076525
-1.537778
-0.923632
-0.884394
-0.933389
-0.808247
-0.806108
-0.753702
-0.144695
-0.155441
-0.206800
-0.215679
-0.205499
-0.152160
-0.214639
-1.010791
-0.983607
-0.297130
-0.279778
-0.286837
-0.268528
-1.009264
-0.725839
-0.739591
-0.772135
-1.187215
-1.208991
-0.951376
-1.648550
-1.640590
-1.612230
-0.425911