# vtk DataFile Version 2.0
Test
ASCII
DATASET POLYDATA
POINTS 3011 float
0.000000 0.000000 0.000000
2.000000 0.000000 0.000000
2.000000 4.000000 0.000000
0.000000 4.000000 0.000000
0.000000 0.500000 0.000000
1.500000 2.000000 0.000000
2.000000 2.500000 0.000000
0.285714 0.000000 0.000000
0.571429 0.000000 0.000000
0.857143 0.000000 0.000000
1.142857 0.000000 0.000000
1.428571 0.000000 0.000000
1.714286 0.000000 0.000000
2.000000 0.276366 0.000000
2.000000 0.523709 0.000000
2.000000 0.745076 0.000000
2.000000 0.943195 0.000000
2.000000 1.120508 0.000000
2.000000 1.279199 0.000000
2.000000 1.421225 0.000000
2.000000 1.548336 0.000000
2.000000 1.662097 0.000000
2.000000 1.763911 0.000000
2.000000 1.855033 0.000000
2.000000 1.936585 0.000000
2.000000 2.009573 0.000000
2.000000 2.074896 0.000000
2.000000 2.133358 0.000000
2.000000 2.185681 0.000000
2.000000 2.232509 0.000000
2.000000 2.274419 0.000000
2.000000 2.311927 0.000000
2.000000 2.345497 0.000000
2.000000 2.375541 0.000000
2.000000 2.402430 0.000000
2.000000 2.426495 0.000000
2.000000 2.448033 0.000000
2.000000 2.467309 0.000000
2.000000 2.484560 0.000000
2.000000 2.516256 0.000000
2.000000 2.535859 0.000000
2.000000 2.559499 0.000000
2.000000 2.588006 0.000000
2.000000 2.622383 0.000000
2.000000 2.663839 0.000000
2.000000 2.713831 0.000000
2.000000 2.774116 0.000000
2.000000 2.846815 0.000000
2.000000 2.934483 0.000000
2.000000 3.040202 0.000000
2.000000 3.167691 0.000000
2.000000 3.321430 0.000000
2.000000 3.506825 0.000000
2.000000 3.730395 0.000000
1.714286 4.000000 0.000000
1.428571 4.000000 0.000000
1.142857 4.000000 0.000000
0.857143 4.000000 0.000000
0.571429 4.000000 0.000000
0.285714 4.000000 0.000000
0.000000 3.713462 0.000000
0.000000 3.449209 0.000000
0.000000 3.205508 0.000000
0.000000 2.980761 0.000000
0.000000 2.773493 0.000000
0.000000 2.582346 0.000000
0.000000 2.406065 0.000000
0.000000 2.243495 0.000000
0.000000 2.093568 0.000000
0.000000 1.955302 0.000000
0.000000 1.827789 0.000000
0.000000 1.710194 0.000000
0.000000 1.601745 0.000000
0.000000 1.501730 0.000000
0.000000 1.409494 0.000000
0.000000 1.324431 0.000000
0.000000 1.245984 0.000000
0.000000 1.173639 0.000000
0.000000 1.106920 0.000000
0.000000 1.045390 0.000000
0.000000 0.988645 0.000000
0.000000 0.936314 0.000000
0.000000 0.888053 0.000000
0.000000 0.843545 0.000000
0.000000 0.802499 0.000000
0.000000 0.764646 0.000000
0.000000 0.729736 0.000000
0.000000 0.697541 0.000000
0.000000 0.667851 0.000000
0.000000 0.640469 0.000000
0.000000 0.615217 0.000000
0.000000 0.591929 0.000000
0.000000 0.570453 0.000000
0.000000 0.550646 0.000000
0.000000 0.532380 0.000000
0.000000 0.515535 0.000000
0.000000 0.483768 0.000000
0.000000 0.461535 0.000000
0.000000 0.431083 0.000000
0.000000 0.389372 0.000000
0.000000 0.332241 0.000000
0.000000 0.253989 0.000000
0.000000 0.146807 0.000000
0.010563 0.510563 0.000000
0.021127 0.521127 0.000000
0.031690 0.531690 0.000000
0.042254 0.542254 0.000000
0.052817 0.552817 0.000000
0.063380 0.563380 0.000000
0.073944 0.573944 0.000000
0.084507 0.584507 0.000000
0.095070 0.595070 0.000000
0.105634 0.605634 0.000000
0.116197 0.616197 0.000000
0.126761 0.626761 0.000000
0.137324 0.637324 0.000000
0.147887 0.647887 0.000000
0.158451 0.658451 0.000000
0.169014 0.669014 0.000000
0.179577 0.679577 0.000000
0.190141 0.690141 0.000000
0.200704 0.700704 0.000000
0.211268 0.711268 0.000000
0.221831 0.721831 0.000000
0.232394 0.732394 0.000000
0.242958 0.742958 0.000000
0.253521 0.753521 0.000000
0.264085 0.764085 0.000000
0.274648 0.774648 0.000000
0.285211 0.785211 0.000000
0.295775 0.795775 0.000000
0.306338 0.806338 0.000000
0.316901 0.816901 0.000000
0.327465 0.827465 0.000000
0.338028 0.838028 0.000000
0.348592 0.848592 0.000000
0.359155 0.859155 0.000000
0.369718 0.869718 0.000000
0.380282 0.880282 0.000000
0.390845 0.890845 0.000000
0.401408 0.901408 0.000000
0.411972 0.911972 0.000000
0.422535 0.922535 0.000000
0.433099 0.933099 0.000000
0.443662 0.943662 0.000000
0.454225 0.954225 0.000000
0.464789 0.964789 0.000000
0.475352 0.975352 0.000000
0.485915 0.985915 0.000000
0.496479 0.996479 0.000000
0.507042 1.007042 0.000000
0.517606 1.017606 0.000000
0.528169 1.028169 0.000000
0.538732 1.038732 0.000000
0.549296 1.049296 0.000000
0.559859 1.059859 0.000000
0.570423 1.070423 0.000000
0.580986 1.080986 0.000000
0.591549 1.091549 0.000000
0.602113 1.102113 0.000000
0.612676 1.112676 0.000000
0.623239 1.123239 0.000000
0.633803 1.133803 0.000000
0.644366 1.144366 0.000000
0.654930 1.154930 0.000000
0.665493 1.165493 0.000000
0.676056 1.176056 0.000000
0.686620 1.186620 0.000000
0.697183 1.197183 0.000000
0.707746 1.207746 0.000000
0.718310 1.218310 0.000000
0.728873 1.228873 0.000000
0.739437 1.239437 0.000000
0.750000 1.250000 0.000000
0.760563 1.260563 0.000000
0.771127 1.271127 0.000000
0.781690 1.281690 0.000000
0.792254 1.292254 0.000000
0.802817 1.302817 0.000000
0.813380 1.313380 0.000000
0.823944 1.323944 0.000000
0.834507 1.334507 0.000000
0.845070 1.345070 0.000000
0.855634 1.355634 0.000000
0.866197 1.366197 0.000000
0.876761 1.376761 0.000000
0.887324 1.387324 0.000000
0.897887 1.397887 0.000000
0.908451 1.408451 0.000000
0.919014 1.419014 0.000000
0.929577 1.429577 0.000000
0.940141 1.440141 0.000000
0.950704 1.450704 0.000000
0.961268 1.461268 0.000000
0.971831 1.471831 0.000000
0.982394 1.482394 0.000000
0.992958 1.492958 0.000000
1.003521 1.503521 0.000000
1.014085 1.514085 0.000000
1.024648 1.524648 0.000000
1.035211 1.535211 0.000000
1.045775 1.545775 0.000000
1.056338 1.556338 0.000000
1.066901 1.566901 0.000000
1.077465 1.577465 0.000000
1.088028 1.588028 0.000000
1.098592 1.598592 0.000000
1.109155 1.609155 0.000000
1.119718 1.619718 0.000000
1.130282 1.630282 0.000000
1.140845 1.640845 0.000000
1.151408 1.651408 0.000000
1.161972 1.661972 0.000000
1.172535 1.672535 0.000000
1.183099 1.683099 0.000000
1.193662 1.693662 0.000000
1.204225 1.704225 0.000000
1.214789 1.714789 0.000000
1.225352 1.725352 0.000000
1.235915 1.735915 0.000000
1.246479 1.746479 0.000000
1.257042 1.757042 0.000000
1.267606 1.767606 0.000000
1.278169 1.778169 0.000000
1.288732 1.788732 0.000000
1.299296 1.799296 0.000000
1.309859 1.809859 0.000000
1.320423 1.820423 0.000000
1.330986 1.830986 0.000000
1.341549 1.841549 0.000000
1.352113 1.852113 0.000000
1.362676 1.862676 0.000000
1.373239 1.873239 0.000000
1.383803 1.883803 0.000000
1.394366 1.894366 0.000000
1.404930 1.904930 0.000000
1.415493 1.915493 0.000000
1.426056 1.926056 0.000000
1.436620 1.936620 0.000000
1.447183 1.947183 0.000000
1.457746 1.957746 0.000000
1.468310 1.968310 0.000000
1.478873 1.978873 0.000000
1.489437 1.989437 0.000000
1.510417 2.010417 0.000000
1.520833 2.020833 0.000000
1.531250 2.031250 0.000000
1.541667 2.041667 0.000000
1.552083 2.052083 0.000000
1.562500 2.062500 0.000000
1.572917 2.072917 0.000000
1.583333 2.083333 0.000000
1.593750 2.093750 0.000000
1.604167 2.104167 0.000000
1.614583 2.114583 0.000000
1.625000 2.125000 0.000000
1.635417 2.135417 0.000000
1.645833 2.145833 0.000000
1.656250 2.156250 0.000000
1.666667 2.166667 0.000000
1.677083 2.177083 0.000000
1.687500 2.187500 0.000000
1.697917 2.197917 0.000000
1.708333 2.208333 0.000000
1.718750 2.218750 0.000000
1.729167 2.229167 0.000000
1.739583 2.239583 0.000000
1.750000 2.250000 0.000000
1.760417 2.260417 0.000000
1.770833 2.270833 0.000000
1.781250 2.281250 0.000000
1.791667 2.291667 0.000000
1.802083 2.302083 0.000000
1.812500 2.312500 0.000000
1.822917 2.322917 0.000000
1.833333 2.333333 0.000000
1.843750 2.343750 0.000000
1.854167 2.354167 0.000000
1.864583 2.364583 0.000000
1.875000 2.375000 0.000000
1.885417 2.385417 0.000000
1.895833 2.395833 0.000000
1.906250 2.406250 0.000000
1.916667 2.416667 0.000000
1.927083 2.427083 0.000000
1.937500 2.437500 0.000000
1.947917 2.447917 0.000000
1.958333 2.458333 0.000000
1.968750 2.468750 0.000000
1.979167 2.479167 0.000000
1.989583 2.489583 0.000000
0.206561 0.791563 0.000000
0.205359 0.816165 0.000000
0.186354 0.798211 0.000000
0.221961 0.800924 0.000000
0.280649 1.360489 0.000000
0.304015 1.400469 0.000000
0.229142 1.396096 0.000000
0.275922 1.451476 0.000000
1.869084 2.391788 0.000000
1.857928 2.378421 0.000000
1.238669 2.061899 0.000000
1.278787 2.082276 0.000000
1.238298 2.096047 0.000000
1.277579 2.032995 0.000000
0.402536 1.205823 0.000000
0.415290 1.176040 0.000000
0.428330 1.201952 0.000000
0.387294 1.172617 0.000000
0.146930 1.050586 0.000000
0.109488 1.087198 0.000000
0.102742 1.042403 0.000000
0.157178 1.091184 0.000000
0.588967 1.178581 0.000000
0.593116 1.153718 0.000000
0.608054 1.166752 0.000000
0.612180 1.145944 0.000000
0.860304 1.543784 0.000000
0.868821 1.521840 0.000000
0.878420 1.536650 0.000000
0.845380 1.517623 0.000000
1.129525 1.764330 0.000000
1.142005 1.751560 0.000000
1.145757 1.773681 0.000000
1.159368 1.759106 0.000000
1.968150 2.518865 0.000000
1.986105 2.509269 0.000000
1.986696 2.531115 0.000000
0.668964 1.191005 0.000000
0.683291 1.201259 0.000000
0.557625 1.074830 0.000000
0.569760 1.084377 0.000000
0.557769 1.089278 0.000000
0.707567 1.266174 0.000000
0.719026 1.281845 0.000000
0.700768 1.282275 0.000000
0.722329 1.266956 0.000000
0.468225 2.149688 0.000000
0.419106 2.064198 0.000000
0.523878 2.082648 0.000000
0.838546 1.421191 0.000000
0.823708 1.410355 0.000000
0.840477 1.404206 0.000000
0.818500 1.425973 0.000000
0.953187 1.488222 0.000000
0.959780 1.473222 0.000000
0.967054 1.485637 0.000000
1.047418 1.769126 0.000000
1.080240 1.782403 0.000000
1.047768 1.802712 0.000000
0.971392 1.693320 0.000000
0.949208 1.720793 0.000000
0.940644 1.684781 0.000000
0.381391 2.160909 0.000000
0.944091 1.477800 0.000000
0.530075 1.477351 0.000000
0.521303 1.516669 0.000000
0.474240 1.491166 0.000000
0.489489 1.546185 0.000000
1.537370 2.239326 0.000000
1.555275 2.267640 0.000000
1.532966 2.278201 0.000000
0.962010 1.661716 0.000000
0.986804 1.643200 0.000000
0.986259 1.672729 0.000000
1.049149 1.737940 0.000000
1.075111 1.737123 0.000000
[...]
POINT_DATA 3011
SCALARS UX float 1
LOOKUP_TABLE default
-0.000000
0.000000
-0.073315
-0.116887
-0.037730
-0.029531
-0.049704
-0.000000
-0.000000
-0.000000
-0.000000
0.000000
-0.000000
0.014811
0.021212
0.025019
0.027526
0.029186
0.030198
0.030580
0.029927
0.028005
0.024678
0.019692
0.013642
0.006175
-0.001443
-0.009033
-0.016019
-0.022115
-0.027342
-0.031826
-0.035631
-0.038802
-0.041479
-0.043732
-0.045630
-0.047224
-0.048572
-0.050846
-0.052146
-0.053643
-0.055208
-0.056979
-0.058909
-0.060780
-0.062784
-0.064744
-0.066465
-0.068165
-0.069685
-0.071092
-0.072261
-0.072978
-0.081594
-0.089070
-0.095600
-0.101338
-0.106715
-0.111814
-0.116044
-0.114458
-0.112098
-0.109673
-0.107417
-0.105679
-0.104583
-0.104088
-0.104223
-0.104839
-0.105887
-0.107099
-0.108446
-0.109848
-0.111216
-0.112485
-0.113649
-0.114677
-0.115576
-0.116347
-0.116962
-0.117431
-0.117707
-0.117783
-0.117641
-0.117310
-0.117024
-0.117145
-0.117442
-0.117113
-0.113519
-0.114817
-0.103860
-0.100142
-0.090065
-0.073809
-0.030530
-0.023419
-0.019444
-0.017117
-0.014400
-0.011402
-0.007679
-0.049516
-0.047277
-0.045564
-0.051299
-0.046641
-0.044496
-0.052228
-0.061275
-0.049802
-0.053498
-0.045738
-0.050012
-0.049751
-0.048266
-0.048138
-0.050155
-0.050570
-0.049379
-0.041592
-0.040260
-0.039179
-0.038605
-0.050586
-0.043918
-0.045909
-0.047613
-0.048096
-0.046344
-0.059243
-0.058559
-0.057393
-0.060110
-0.058037
-0.059220
-0.055402
-0.057014
-0.055819
-0.055781
-0.055110
-0.056646
-0.055021
-0.054977
-0.058332
-0.056306
-0.055547
-0.056976
-0.056646
-0.051337
-0.049989
-0.049155
-0.048710
-0.048364
-0.048108
-0.048113
-0.047825
-0.047754
-0.048088
-0.047753
-0.047884
-0.047776
-0.047680
-0.047605
-0.047458
-0.047196
-0.046070
-0.047357
-0.047255
-0.047257
-0.046265
-0.045660
-0.047302
-0.046678
-0.046694
-0.048685
-0.048357
-0.049029
-0.049765
-0.049592
-0.049737
-0.049601
-0.049899
-0.048947
-0.047391
-0.046783
-0.047844
-0.044693
-0.046232
-0.046081
-0.042950
-0.043655
-0.043909
-0.043309
-0.041269
-0.041925
-0.042250
-0.041884
-0.041086
-0.040998
-0.041372
-0.040510
-0.040253
-0.038653
-0.039334
-0.038614
-0.037153
-0.036904
-0.036401
-0.036496
-0.035904
-0.035547
-0.035827
-0.035174
-0.035869
-0.035144
-0.035826
-0.035689
-0.034236
-0.034434
-0.034307
-0.034401
-0.033836
-0.033146
-0.033670
-0.038261
-0.035721
-0.034592
-0.036083
-0.034518
-0.035060
-0.033790
-0.032969
-0.032175
-0.032056
-0.031429
-0.031253
-0.030202
-0.030025
-0.035980
-0.035244
-0.034798
-0.034302
-0.031845
-0.031389
-0.031766
-0.032395
-0.033022
-0.033518
-0.034104
-0.034639
-0.035074
-0.035553
-0.036031
-0.036516
-0.036958
-0.037418
-0.037869
-0.038319
-0.038757
-0.039220
-0.039662
-0.040113
-0.040560
-0.041013
-0.041468
-0.041946
-0.042407
-0.042879
-0.043338
-0.043803
-0.044254
-0.044704
-0.045143
-0.045568
-0.045988
-0.046383
-0.046773
-0.047140
-0.047485
-0.047814
-0.048112
-0.048398
-0.048655
-0.048890
-0.049103
-0.049285
-0.049430
-0.049558
-0.049647
-0.106867
-0.109199
-0.110053
-0.105517
-0.106481
-0.105336
-0.106918
-0.105056
-0.049093
-0.048529
-0.067495
-0.065083
-0.067356
-0.065370
-0.106040
-0.105905
-0.105408
-0.106657
-0.113474
-0.113828
-0.114457
-0.112822
-0.097230
-0.093522
-0.092827
-0.084728
-0.088213
-0.087740
-0.087247
-0.088952
-0.075577
-0.074383
-0.074602
-0.073134
-0.053034
-0.051265
-0.052681
-0.075860
-0.071073
-0.075931
-0.070713
-0.084851
-0.088092
-0.088525
-0.091832
-0.085433
-0.092866
-0.094313
-0.091639
-0.086519
-0.087741
-0.084448
-0.089145
-0.069922
-0.055603
-0.059819
-0.079724
-0.078212
-0.079332
-0.083369
-0.083882
-0.084546
-0.094971
-0.069814
-0.099036
-0.098572
-0.100099
-0.098800
-0.056899
-0.057704
-0.059442
-0.083937
-0.082841
-0.082884
-0.079886
-0.078667
-0.078875
-0.055583
-0.078991
-0.067621
-0.054947
-0.057115
-0.064731
-0.062915
-0.060889
-0.062678
-0.059862
-0.062370
-0.060977
-0.098277
-0.098844
-0.097691
-0.098796
-0.097245
-0.097435
-0.098213
-0.095795
-0.108588
-0.107738
-0.108272
-0.108272
-0.077405
-0.078501
-0.076782
-0.080170
-0.097732
-0.098725
-0.096627
-0.053031
-0.053240
-0.055174
-0.099731
-0.110070
-0.111159
-0.111490
-0.096706
-0.096024
-0.095578
-0.094901
-0.112527
-0.102595
-0.100805
-0.103283
-0.054689
-0.052069
-0.053080
-0.079191
-0.078219
-0.077245
-0.105191
-0.104626
-0.075767
-0.091217
-0.090615
-0.091986
-0.090214
-0.049519
-0.052407
-0.052259
-0.089267
-0.088685
-0.089821
-0.048739
-0.089870
-0.073736
-0.076890
-0.101587
-0.101039
-0.100218
-0.114040
-0.113060
-0.099785
-0.086603
-0.087147
-0.085511
-0.114770
-0.085863
-0.078990
-0.077596
-0.113133
-0.112406
-0.112236
-0.087819
-0.079876
-0.075428
-0.091346
-0.095658
-0.038485
-0.037713
-0.040701
-0.071126
-0.072208
-0.072841
-0.075699
-0.074335
-0.075968
-0.073141
-0.076728
-0.077748
-0.076767
-0.097617
-0.102045
-0.100689
-0.088659
-0.089973
-0.089347
-0.085133
-0.089015
-0.115311
-0.114650
-0.115717
-0.094289
-0.098222
-0.052347
-0.079673
-0.045673
-0.048194
-0.047691
-0.089942
-0.088111
-0.084318
-0.087091
-0.059294
-0.060811
-0.062432
-0.091683
-0.095007
-0.090124
-0.070006
-0.068607
-0.068317
-0.071565
-0.046158
-0.046156
-0.050787
-0.069168
-0.070872
-0.070704
-0.062474
-0.057587
-0.058981
-0.081155
-0.080724
-0.084213
-0.084103
-0.039992
-0.038348
-0.044213
-0.086135
-0.098000
-0.099559
-0.100747
-0.101156
-0.070752
-0.058614
-0.058279
-0.055633
-0.064967
-0.065390
-0.062955
-0.066908
-0.061325
-0.060437
-0.058981
-0.042778
-0.041630
-0.085183
-0.083357
-0.084063
-0.084482
-0.085925
-0.082929
-0.085426
-0.082365
-0.062189
-0.063387
-0.061478
-0.055936
-0.055701
-0.060488
-0.045792
-0.043660
-0.046827
-0.043297
-0.042727
-0.090183
-0.091155
-0.092806
-0.091893
-0.092285
-0.091073
-0.090998
-0.091376
-0.090158
-0.088144
-0.084851
-0.086189
-0.084248
-0.086410
-0.068686
-0.067158
-0.065439
-0.069868
-0.080684
-0.084970
-0.088020
-0.091115
-0.091167
-0.090316
-0.083731
-0.048183
-0.050385
-0.049027
-0.051503
-0.074597
-0.073349
-0.086144
-0.086448
-0.085425
-0.049491
-0.053284
-0.063674
-0.073105
-0.075445
-0.071954
-0.075690
-0.080062
-0.079950
-0.076349
-0.082262
-0.041860
-0.041721
-0.069678
-0.064811
-0.077031
-0.075421
-0.076928
-0.078109
-0.060827
-0.063258
-0.065487
-0.073909
-0.080010
-0.078011
-0.079943
-0.059785
-0.061601
-0.050917
-0.048891
-0.052786
-0.050585
-0.062152
-0.062879
-0.065354
-0.065139
-0.115243
-0.115141
-0.116050
-0.114239
-0.100978
-0.094609
-0.090347
-0.099345
-0.100876
-0.104393
-0.041553
-0.105785
-0.106386
-0.107240
-0.107418
-0.073671
-0.072103
-0.071417
-0.069772
-0.089103
-0.087879
-0.087024
-0.086423
-0.046913
-0.044704
-0.046230
-0.043890
-0.046426
-0.049397
-0.105725
-0.106289
-0.107699
-0.109791
-0.112239
-0.109656
-0.112526
-0.114220
-0.113499
-0.080179
-0.081433
-0.080963
-0.059889
-0.062716
-0.103395
-0.103309
-0.104467
-0.104061
-0.105067
-0.087543
-0.087024
-0.088247
-0.087572
-0.104552
-0.106316
-0.106014
-0.103180
-0.092441
-0.090855
-0.113053
-0.112312
-0.111650
-0.112415
-0.113433
-0.107836
-0.108824
-0.103120
-0.091013
-0.100230
-0.109910
-0.106830
-0.108091
-0.110750
-0.108541
-0.085088
-0.084830
-0.085715
-0.072672
-0.109145
-0.107537
-0.105919
-0.112641
-0.109174
-0.061441
-0.060656
-0.059384
-0.063722
-0.063327
-0.060318
-0.109746
-0.110018
-0.110615
-0.104170
-0.103172
-0.102034
-0.103672
-0.069328
-0.066075
-0.068215
-0.070828
-0.081017
-0.080961
-0.104131
-0.103162
-0.104939
-0.103425
-0.078784
-0.091918
-0.096421
-0.074183
-0.070026
-0.092871
-0.052313
-0.054863
-0.055061
-0.051099
-0.107517
-0.106441
-0.072017
-0.072153
-0.074256
-0.074359
-0.073830
-0.086518
-0.089697
-0.087016
-0.091168
-0.093759
-0.093384
-0.093126
-0.114234
-0.114565
-0.115934
-0.112562
-0.059797
-0.077560
-0.110482
-0.111046
-0.111879
-0.110458
-0.108564
-0.111184
-0.054923
-0.053345
-0.051930
-0.106922
-0.107146
-0.110096
-0.104727
-0.102032
-0.099520
-0.052651
-0.051281
-0.053332
-0.050865
-0.052488
-0.069308
-0.067754
-0.111255
-0.111507
-0.110753
-0.054919
-0.067086
-0.064754
-0.065700
-0.105351
-0.103470
-0.102540
-0.103734
-0.102505
-0.101731
-0.097062
-0.096339
-0.110960
-0.109834
-0.117036
-0.116343
-0.116213
-0.115630
-0.104117
-0.041534
-0.105084
-0.104838
-0.109412
-0.105386
-0.094759
-0.061430
-0.064420
-0.107024
-0.111305
-0.107307
-0.050819
-0.111034
-0.060033
-0.059731
-0.062552
-0.109593
-0.110091
-0.107217
-0.085741
-0.083014
-0.084077
-0.081368
-0.082269
-0.112050
-0.111647
-0.113408
-0.113590
-0.061435
-0.064078
-0.107268
-0.104227
-0.105129
-0.102305
-0.101844
-0.101181
-0.102425
-0.100575
-0.101919
-0.102209
-0.101348
-0.100420
-0.101623
-0.096887
-0.101381
-0.057138
-0.057497
-0.106804
-0.106101
-0.107030
-0.106540
-0.107735
-0.035472
-0.036433
-0.039869
-0.099449
-0.099667
-0.106664
-0.107443
-0.099588
-0.098528
-0.073688
-0.076218
-0.075247
-0.073480
-0.091344
-0.104461
-0.099862
-0.099450
-0.097626
-0.055466
-0.046906
-0.049275
-0.048658
-0.051191
-0.083255
-0.083739
-0.081822
-0.081257
-0.079710
-0.079876
-0.065115
-0.062468
-0.056950
-0.057736
-0.080842
-0.079130
-0.057489
-0.057391
-0.083129
-0.105989
-0.107435
-0.098064
-0.086533
-0.078039
-0.099916
-0.103924
-0.065618
-0.076659
-0.116012
-0.063667
-0.074407
-0.075559
-0.049893
-0.051320
-0.055017
-0.115665
-0.108109
-0.107664
-0.108876
-0.075524
-0.076072
-0.077357
-0.076627
-0.050778
-0.113093
-0.112693
-0.111894
-0.107725
-0.066165
-0.066665
-0.068518
-0.067909
-0.047326
-0.116500
-0.116397
-0.115490
-0.103520
-0.113712
-0.096616
-0.098122
-0.094958
-0.097794
-0.100657
-0.097373
-0.106486
-0.079588
-0.082199
-0.082581
-0.079140
-0.084501
-0.086902
-0.080628
-0.098249
-0.088281
-0.065573
-0.080012
-0.083151
-0.082451
-0.111703
-0.113041
-0.110753
-0.115838
-0.114788
-0.096046
-0.092012
-0.095609
-0.092206
-0.111888
-0.069845
-0.079333
-0.076891
-0.092533
-0.093795
-0.092358
-0.109465
-0.108964
-0.110625
-0.099768
-0.100648
-0.104564
-0.104250
-0.090921
-0.090276
-0.089484
-0.088713
-0.088028
-0.073356
-0.075390
-0.081661
-0.085093
-0.086049
-0.085234
-0.081742
-0.071176
-0.077225
-0.077842
-0.079892
-0.080236
-0.105098
-0.101486
-0.102904
-0.099393
-0.094016
-0.100108
-0.103781
-0.105876
-0.051171
-0.109141
-0.109209
-0.110289
-0.110179
-0.094671
-0.095574
-0.093911
-0.097159
-0.095965
-0.116207
-0.109177
-0.108802
-0.115146
-0.040197
-0.041700
-0.102436
-0.111379
-0.040990
-0.063331
-0.096856
-0.099064
-0.097249
-0.071710
-0.099847
-0.114153
-0.113499
-0.116946
-0.115260
-0.050125
-0.113502
-0.091446
-0.097365
-0.092202
-0.102989
-0.111685
-0.049642
-0.077209
-0.085979
-0.091600
-0.085987
-0.061533
-0.064083
-0.064048
-0.047974
-0.049923
-0.047944
-0.075890
-0.095173
-0.099506
-0.105486
-0.081505
-0.079270
-0.081603
-0.083434
-0.086112
-0.108281
-0.108306
-0.094846
-0.094853
-0.093706
-0.091795
-0.067651
-0.089710
-0.116711
-0.102286
-0.102977
-0.102155
-0.078729
-0.099813
-0.098799
-0.098899
-0.101405
-0.098823
-0.098129
-0.097029
-0.095705
-0.102052
-0.095525
-0.096744
-0.096042
-0.076517
-0.072450
-0.074428
-0.094222
-0.104807
-0.105382
-0.104516
-0.111615
-0.109920
-0.109602
-0.113698
-0.097632
-0.076794
-0.096820
-0.099227
-0.099575
-0.098028
-0.115228
-0.111654
-0.098012
-0.097707
-0.103948
-0.073017
-0.055069
-0.057812
-0.114279
-0.098450
-0.087552
-0.115948
-0.108594
-0.107095
-0.100151
-0.067359
-0.111819
-0.065982
-0.066404
-0.068044
-0.093336
-0.090067
-0.115131
-0.096371
-0.103637
-0.104448
-0.105572
-0.070611
-0.083783
-0.085507
-0.084072
-0.083000
-0.099464
-0.097251
-0.104798
-0.103221
-0.102583
-0.101249
-0.101602
-0.105402
-0.111523
-0.047950
-0.045134
-0.101655
-0.100908
-0.101941
-0.049016
-0.089137
-0.088234
-0.052939
-0.060344
-0.068100
-0.079676
-0.081751
-0.111261
-0.112851
-0.078340
-0.077736
-0.089990
-0.087074
-0.092523
-0.094725
-0.107098
-0.103922
-0.106592
-0.063577
-0.065520
-0.076366
-0.074466
-0.100401
-0.109503
-0.108478
-0.100557
-0.101336
-0.100369
-0.107467
-0.114623
-0.101024
-0.091302
-0.091955
-0.108182
-0.108950
-0.109360
-0.066380
-0.093158
-0.093494
-0.094524
-0.088337
-0.074722
-0.108184
-0.106984
-0.093265
-0.090794
-0.093463
-0.097773
-0.087648
-0.050184
-0.101946
-0.093166
-0.093071
-0.104159
-0.104056
-0.105673
-0.099840
-0.100734
-0.100697
-0.076062
-0.087738
-0.091384
-0.090721
-0.082493
-0.085316
-0.091992
-0.082163
-0.078233
-0.070663
-0.070535
-0.069515
-0.077670
-0.091986
-0.107783
-0.107628
-0.108900
-0.108770
-0.052717
-0.050993
-0.057649
-0.095808
-0.094967
-0.089218
-0.100474
-0.101091
-0.100046
-0.101466
-0.072465
-0.049834
-0.049478
-0.074328
-0.061445
-0.075380
-0.070652
-0.093311
-0.078248
-0.076714
-0.106665
-0.104726
-0.105803
-0.090788
-0.060376
-0.062006
-0.089249
-0.080053
-0.081399
-0.106981
-0.081601
-0.089843
-0.079051
-0.091252
-0.078947
-0.077239
-0.103343
-0.083052
-0.081939
-0.082748
-0.081886
-0.053732
-0.075269
-0.089217
-0.061393
-0.084031
-0.098769
-0.065747
-0.068802
-0.067815
-0.069990
-0.067315
-0.069795
-0.072223
-0.107056
-0.100495
-0.109324
-0.102737
-0.103774
-0.103282
-0.081227
-0.082961
-0.103513
-0.106295
-0.105641
-0.093207
-0.089833
-0.078168
-0.089728
-0.073746
-0.094304
-0.102589
-0.108171
-0.112623
-0.049753
-0.085280
-0.105542
-0.107108
-0.104748
-0.087065
-0.088705
-0.077992
-0.083975
-0.084970
-0.085924
-0.087226
-0.091094
-0.088923
-0.088948
-0.085927
-0.086890
-0.088616
-0.095369
-0.109807
-0.040111
-0.039759
-0.082708
-0.102617
-0.094418
-0.095067
-0.095607
-0.077433
-0.080535
-0.085707
-0.086361
-0.086662
-0.086138
-0.055503
-0.052475
-0.092895
-0.090527
-0.077976
-0.089034
-0.084036
-0.079040
-0.099756
-0.069493
-0.069631
-0.104108
-0.090377
-0.088650
-0.089272
-0.051439
-0.074185
-0.072058
-0.073255
-0.108129
-0.109239
-0.066741
-0.102022
-0.095179
-0.102782
-0.068028
-0.087129
-0.083694
-0.072620
-0.097473
-0.100979
-0.099040
-0.077905
-0.070391
-0.072923
-0.070778
-0.049546
-0.047951
-0.050234
-0.051620
-0.048360
-0.068868
-0.042450
-0.043553
-0.092449
-0.084080
-0.082991
-0.090954
-0.081670
-0.080279
-0.066561
-0.067515
-0.089410
-0.101133
-0.091493
-0.103134
-0.102818
-0.093952
-0.093687
-0.094658
-0.050940
-0.052685
-0.098841
-0.086812
-0.096217
-0.069698
-0.059101
-0.057707
-0.058178
-0.061889
-0.063839
-0.057556
-0.101888
-0.094178
-0.082426
-0.086400
-0.087023
-0.094064
-0.093404
-0.092908
-0.076982
-0.079630
-0.076339
-0.080530
-0.089352
-0.088086
-0.077648
-0.095069
-0.063666
-0.089341
-0.081155
-0.072692
-0.086862
-0.058161
-0.059139
-0.078638
-0.047452
-0.045285
-0.103043
-0.079974
-0.067427
-0.046314
-0.082876
-0.060037
-0.089347
-0.049520
-0.110053
-0.057068
-0.101882
-0.088193
-0.092296
-0.094146
-0.108834
-0.074228
-0.074224
-0.076773
-0.070845
-0.070910
-0.067958
-0.069496
-0.085223
-0.073914
-0.078424
-0.090091
-0.069735
-0.066942
-0.087139
-0.060971
-0.088696
-0.089066
-0.097307
-0.096124
-0.097480
-0.096769
-0.096435
-0.095564
-0.087527
-0.097857
-0.074816
-0.078147
-0.068154
-0.055107
-0.050538
-0.099766
-0.071565
-0.065664
-0.057859
-0.086555
-0.094183
-0.098213
-0.077828
-0.075178
-0.079802
-0.070535
-0.072408
-0.073727
-0.075739
-0.048024
-0.045610
-0.048011
-0.044220
-0.100759
-0.112361
-0.077578
-0.077879
-0.079009
-0.075799
-0.096434
-0.068521
-0.066822
-0.067006
-0.083141
-0.082400
-0.082025
-0.077908
-0.065653
-0.066762
-0.065282
-0.082682
-0.084250
-0.076114
-0.081470
-0.081304
-0.097458
-0.089735
-0.050693
-0.049205
-0.083548
-0.081857
-0.082703
-0.052230
-0.053160
-0.046914
-0.050521
-0.100672
-0.066425
-0.044824
-0.095344
-0.094081
-0.094445
-0.055830
-0.053729
-0.055048
-0.097382
-0.088603
-0.054547
-0.094192
-0.098693
-0.100123
-0.052681
-0.057342
-0.080127
-0.081126
-0.071515
-0.069092
-0.080600
-0.045019
-0.040521
-0.045769
-0.082149
-0.077530
-0.085908
-0.081305
-0.092788
-0.091374
-0.091140
-0.047106
-0.050941
-0.103878
-0.107420
-0.090170
-0.068378
-0.066250
-0.079492
-0.071706
-0.114133
-0.084342
-0.097838
-0.097485
-0.092967
-0.057460
-0.098174
-0.095877
-0.100210
-0.099781
-0.051778
-0.078778
-0.110479
-0.058408
-0.036919
-0.039160
-0.058895
-0.056250
-0.056451
-0.052456
-0.071225
-0.072711
-0.073661
-0.075852
-0.075862
-0.059800
-0.043509
-0.044496
-0.078199
-0.067587
-0.072814
-0.093982
-0.091707
-0.068611
-0.064741
-0.078254
-0.072670
-0.084393
-0.069092
-0.070903
-0.065926
-0.068290
-0.042698
-0.059374
-0.061496
-0.045138
-0.047261
-0.042415
-0.049953
-0.066855
-0.054598
-0.076907
-0.072710
-0.063347
-0.053448
-0.059287
-0.071794
-0.077531
-0.093322
-0.095822
-0.095531
-0.086627
-0.086300
-0.066573
-0.065910
-0.078201
-0.064927
-0.062279
-0.068289
-0.059223
-0.055259
-0.053098
-0.051475
-0.071587
-0.071688
-0.055946
-0.053759
-0.052662
-0.046297
-0.044079
-0.050165
-0.099649
-0.044543
-0.040113
-0.041668
-0.039244
-0.048228
-0.040670
-0.041379
-0.075843
-0.071265
-0.079612
-0.056681
-0.054000
-0.095239
-0.042030
-0.067792
-0.065245
-0.073981
-0.051667
-0.115451
-0.114503
-0.075441
-0.108762
-0.114269
-0.085295
-0.102655
-0.082211
-0.092504
-0.085641
-0.091795
-0.079316
-0.095511
-0.068787
-0.066473
-0.082062
-0.078988
-0.044921
-0.049598
-0.053557
-0.067120
-0.054981
-0.072691
-0.060288
-0.059492
-0.097015
-0.059766
-0.067301
-0.058745
-0.059965
-0.046458
-0.045028
-0.037108
-0.036675
-0.042820
-0.041701
-0.039180
-0.070151
-0.065567
-0.100789
-0.048685
-0.056637
-0.054135
-0.055162
-0.070790
-0.058010
-0.057606
-0.095746
-0.094419
-0.091829
-0.092814
-0.087334
-0.088148
-0.073410
-0.074275
-0.074886
-0.058789
-0.094479
-0.091211
-0.097400
-0.052154
-0.054577
-0.064380
-0.065050
-0.066942
-0.072339
-0.094013
-0.090319
-0.096925
-0.049772
-0.068413
-0.069787
-0.069949
-0.050130
-0.048313
-0.050008
-0.105956
-0.068126
-0.073064
-0.085242
-0.083502
-0.087914
-0.079004
-0.062124
-0.091109
-0.114562
-0.093638
-0.055890
-0.067515
-0.084568
-0.084180
-0.072537
-0.084100
-0.089710
-0.086600
-0.073083
-0.058421
-0.073930
-0.088370
-0.091975
-0.069153
-0.080054
-0.071348
-0.069319
-0.100416
-0.088782
-0.057035
-0.056769
-0.098274
-0.059149
-0.056760
-0.048764
-0.085719
-0.057250
-0.076061
-0.072942
-0.075721
-0.091011
-0.084108
-0.076243
-0.102668
-0.067764
-0.089812
-0.052168
-0.051396
-0.062074
-0.070972
-0.070542
-0.059141
-0.061790
-0.109764
-0.109443
-0.095086
-0.098484
-0.062734
-0.056104
-0.080482
-0.090235
-0.052594
-0.089136
-0.053475
-0.056117
-0.082155
-0.072873
-0.071410
-0.055229
-0.055549
-0.049334
-0.055254
-0.084497
-0.078920
-0.054266
-0.053805
-0.051158
-0.046255
-0.047709
-0.045773
-0.087462
-0.077819
-0.079032
-0.059131
-0.112388
-0.037768
-0.081942
-0.061257
-0.095977
-0.064096
-0.047721
-0.074254
-0.077829
-0.047100
-0.084054
-0.045514
-0.040103
-0.095928
-0.080120
-0.098272
-0.094856
-0.080952
-0.083105
-0.086219
-0.081045
-0.076953
-0.074568
-0.067516
-0.075869
-0.057515
-0.071686
-0.071357
-0.070316
-0.076769
-0.063467
-0.087552
-0.054281
-0.056223
-0.039900
-0.073648
-0.082991
-0.060132
-0.055304
-0.055115
-0.044160
-0.063695
-0.095608
-0.047832
-0.059902
-0.077753
-0.061783
-0.044138
-0.054857
-0.043231
-0.042332
-0.104879
-0.046001
-0.087468
-0.048190
-0.044288
-0.046837
-0.076400
-0.064515
-0.062861
-0.081446
-0.075713
-0.063515
-0.081154
-0.077640
-0.077667
-0.068734
-0.075101
-0.064089
-0.063033
-0.062194
-0.082959
-0.070353
-0.043473
-0.055467
-0.063470
-0.069353
-0.059455
-0.066267
-0.069514
-0.057518
-0.085726
-0.057936
-0.074710
-0.056520
-0.070550
-0.055765
-0.087681
-0.079212
-0.081257
-0.046247
-0.036419
-0.081099
-0.057825
-0.057770
-0.041253
-0.071941
-0.064018
-0.059917
-0.100600
-0.092902
-0.051999
-0.064107
-0.044677
-0.050663
-0.052394
-0.088081
-0.076044
-0.070008
-0.015671
-0.012689
-0.012566
-0.028952
-0.017189
-0.023423
-0.020079
-0.025520
-0.013270
0.003972
-0.000013
0.005330
-0.011053
-0.012936
-0.003229
-0.000519
0.010328
-0.000387
-0.000323
-0.001846
0.014261
0.017334
0.018378
-0.007234
-0.010557
-0.006253
-0.023048
-0.020534
-0.018082
-0.026431
-0.010685
-0.016584
-0.013436
-0.008587
-0.006985
-0.006105
-0.004261
-0.003722
-0.005311
-0.009430
0.003630
-0.000435
0.002222
-0.001374
-0.005331
-0.002729
-0.007016
-0.008527
-0.006577
-0.002388
-0.000965
0.010761
0.009592
0.010536
0.009517
-0.012033
-0.011230
-0.015244
-0.002422
-0.002907
-0.010969