# vtk DataFile Version 2.0
Test
ASCII
DATASET POLYDATA
POINTS 1818 float
0.000000 0.000000 0.000000
1.000000 0.000000 0.000000
1.000000 1.000000 0.000000
0.000000 1.000000 0.000000
0.300000 0.330000 0.000000
0.700000 0.680000 0.000000
0.058824 0.000000 0.000000
0.117647 0.000000 0.000000
0.176471 0.000000 0.000000
0.235294 0.000000 0.000000
0.294118 0.000000 0.000000
0.352941 0.000000 0.000000
0.411765 0.000000 0.000000
0.470588 0.000000 0.000000
0.529412 0.000000 0.000000
0.588235 0.000000 0.000000
0.647059 0.000000 0.000000
0.705882 0.000000 0.000000
0.764706 0.000000 0.000000
0.823529 0.000000 0.000000
0.882353 0.000000 0.000000
0.941176 0.000000 0.000000
1.000000 0.058824 0.000000
1.000000 0.117647 0.000000
1.000000 0.176471 0.000000
1.000000 0.235294 0.000000
1.000000 0.294118 0.000000
1.000000 0.352941 0.000000
1.000000 0.411765 0.000000
1.000000 0.470588 0.000000
1.000000 0.529412 0.000000
1.000000 0.588235 0.000000
1.000000 0.647059 0.000000
1.000000 0.705882 0.000000
1.000000 0.764706 0.000000
1.000000 0.823529 0.000000
1.000000 0.882353 0.000000
1.000000 0.941176 0.000000
0.941176 1.000000 0.000000
0.882353 1.000000 0.000000
0.823529 1.000000 0.000000
0.764706 1.000000 0.000000
0.705882 1.000000 0.000000
0.647059 1.000000 0.000000
0.588235 1.000000 0.000000
0.529412 1.000000 0.000000
0.470588 1.000000 0.000000
0.411765 1.000000 0.000000
0.352941 1.000000 0.000000
0.294118 1.000000 0.000000
0.235294 1.000000 0.000000
0.176471 1.000000 0.000000
0.117647 1.000000 0.000000
0.058824 1.000000 0.000000
0.000000 0.941176 0.000000
0.000000 0.882353 0.000000
0.000000 0.823529 0.000000
0.000000 0.764706 0.000000
0.000000 0.705882 0.000000
0.000000 0.647059 0.000000
0.000000 0.588235 0.000000
0.000000 0.529412 0.000000
0.000000 0.470588 0.000000
0.000000 0.411765 0.000000
0.000000 0.352941 0.000000
0.000000 0.294118 0.000000
0.000000 0.235294 0.000000
0.000000 0.176471 0.000000
0.000000 0.117647 0.000000
0.000000 0.058824 0.000000
0.305970 0.335224 0.000000
0.311940 0.340448 0.000000
0.317910 0.345672 0.000000
0.323881 0.350896 0.000000
0.329851 0.356119 0.000000
0.335821 0.361343 0.000000
0.341791 0.366567 0.000000
0.347761 0.371791 0.000000
0.353731 0.377015 0.000000
0.359701 0.382239 0.000000
0.365672 0.387463 0.000000
0.371642 0.392687 0.000000
0.377612 0.397910 0.000000
0.383582 0.403134 0.000000
0.389552 0.408358 0.000000
0.395522 0.413582 0.000000
0.401493 0.418806 0.000000
0.407463 0.424030 0.000000
0.413433 0.429254 0.000000
0.419403 0.434478 0.000000
0.425373 0.439701 0.000000
0.431343 0.444925 0.000000
0.437313 0.450149 0.000000
0.443284 0.455373 0.000000
0.449254 0.460597 0.000000
0.455224 0.465821 0.000000
0.461194 0.471045 0.000000
0.467164 0.476269 0.000000
0.473134 0.481493 0.000000
0.479104 0.486716 0.000000
0.485075 0.491940 0.000000
0.491045 0.497164 0.000000
0.497015 0.502388 0.000000
0.502985 0.507612 0.000000
0.508955 0.512836 0.000000
0.514925 0.518060 0.000000
0.520896 0.523284 0.000000
0.526866 0.528507 0.000000
0.532836 0.533731 0.000000
0.538806 0.538955 0.000000
0.544776 0.544179 0.000000
0.550746 0.549403 0.000000
0.556716 0.554627 0.000000
0.562687 0.559851 0.000000
0.568657 0.565075 0.000000
0.574627 0.570299 0.000000
0.580597 0.575522 0.000000
0.586567 0.580746 0.000000
0.592537 0.585970 0.000000
0.598507 0.591194 0.000000
0.604478 0.596418 0.000000
0.610448 0.601642 0.000000
0.616418 0.606866 0.000000
0.622388 0.612090 0.000000
0.628358 0.617313 0.000000
0.634328 0.622537 0.000000
0.640299 0.627761 0.000000
0.646269 0.632985 0.000000
0.652239 0.638209 0.000000
0.658209 0.643433 0.000000
0.664179 0.648657 0.000000
0.670149 0.653881 0.000000
0.676119 0.659104 0.000000
0.682090 0.664328 0.000000
0.688060 0.669552 0.000000
0.694030 0.674776 0.000000
0.516135 0.080917 0.000000
0.549338 0.042552 0.000000
0.567302 0.088709 0.000000
0.555658 0.563778 0.000000
0.559301 0.571359 0.000000
0.552318 0.570919 0.000000
0.603235 0.047100 0.000000
0.446553 0.448087 0.000000
0.438652 0.443189 0.000000
0.445116 0.440368 0.000000
0.437254 0.190586 0.000000
0.465954 0.201747 0.000000
0.439184 0.213838 0.000000
0.453137 0.228102 0.000000
0.522423 0.410182 0.000000
0.522098 0.390982 0.000000
0.537289 0.398500 0.000000
0.453388 0.527105 0.000000
0.462022 0.524948 0.000000
0.461218 0.533993 0.000000
0.324300 0.374550 0.000000
0.319287 0.386214 0.000000
0.314834 0.375138 0.000000
0.668809 0.628853 0.000000
0.677366 0.632907 0.000000
0.668274 0.639611 0.000000
0.469934 0.529282 0.000000
0.439703 0.436699 0.000000
0.446608 0.432083 0.000000
0.542854 0.633425 0.000000
0.535117 0.647070 0.000000
0.524302 0.633157 0.000000
0.519372 0.648877 0.000000
0.586338 0.611293 0.000000
0.591638 0.624149 0.000000
0.575478 0.621479 0.000000
0.437962 0.035513 0.000000
0.421505 0.085456 0.000000
0.394924 0.044162 0.000000
0.445207 0.955749 0.000000
0.429168 0.919510 0.000000
0.464409 0.914226 0.000000
0.317150 0.400904 0.000000
0.328626 0.395860 0.000000
0.439616 0.884412 0.000000
0.330406 0.381773 0.000000
0.676842 0.602700 0.000000
0.674982 0.614185 0.000000
0.665930 0.611798 0.000000
0.414707 0.535036 0.000000
0.420123 0.526072 0.000000
0.425338 0.533771 0.000000
0.398407 0.375558 0.000000
0.393804 0.363255 0.000000
0.407284 0.365452 0.000000
0.407758 0.523337 0.000000
0.899969 0.377867 0.000000
0.945915 0.378245 0.000000
0.914158 0.409130 0.000000
0.358219 0.436142 0.000000
0.361390 0.425428 0.000000
0.369309 0.432300 0.000000
0.465999 0.075074 0.000000
0.269944 0.367761 0.000000
0.266521 0.352125 0.000000
0.283474 0.357667 0.000000
0.385889 0.083020 0.000000
0.359482 0.060981 0.000000
0.279658 0.346766 0.000000
0.363604 0.104040 0.000000
0.511115 0.503731 0.000000
0.503243 0.499914 0.000000
0.509146 0.494910 0.000000
0.513188 0.475753 0.000000
0.504957 0.474656 0.000000
0.511959 0.464784 0.000000
0.311863 0.447505 0.000000
0.293019 0.442078 0.000000
0.305555 0.431691 0.000000
0.499204 0.464990 0.000000
0.293855 0.459576 0.000000
0.396676 0.236328 0.000000
0.371014 0.247362 0.000000
0.373003 0.229199 0.000000
0.384478 0.261522 0.000000
0.555704 0.523331 0.000000
0.551313 0.515879 0.000000
0.562752 0.515269 0.000000
0.554954 0.506854 0.000000
0.804236 0.611103 0.000000
0.819351 0.593503 0.000000
0.832061 0.615776 0.000000
0.509908 0.485173 0.000000
0.129738 0.481190 0.000000
0.110722 0.443736 0.000000
0.154857 0.452634 0.000000
0.089738 0.485299 0.000000
0.396427 0.153886 0.000000
0.393058 0.115469 0.000000
0.420333 0.126587 0.000000
0.442628 0.413512 0.000000
0.434815 0.404283 0.000000
0.446816 0.400259 0.000000
0.499770 0.482873 0.000000
0.353883 0.235057 0.000000
0.351360 0.254011 0.000000
0.332147 0.240870 0.000000
0.112307 0.405527 0.000000
0.140355 0.392788 0.000000
0.142004 0.423465 0.000000
0.334868 0.263052 0.000000
0.551239 0.594093 0.000000
0.560217 0.601969 0.000000
0.546711 0.604614 0.000000
0.398510 0.570197 0.000000
0.387124 0.557316 0.000000
0.399978 0.555748 0.000000
0.705281 0.743146 0.000000
0.722930 0.758853 0.000000
0.697202 0.758074 0.000000
0.380190 0.572638 0.000000
0.278345 0.431947 0.000000
0.292575 0.428097 0.000000
0.470820 0.540616 0.000000
0.478213 0.533042 0.000000
0.480161 0.543190 0.000000
0.415268 0.299334 0.000000
0.412465 0.313515 0.000000
0.400419 0.297680 0.000000
0.396495 0.317117 0.000000
0.718655 0.732879 0.000000
0.709319 0.677587 0.000000
0.715709 0.670111 0.000000
0.719283 0.682820 0.000000
0.212992 0.453899 0.000000
0.184619 0.470046 0.000000
0.186665 0.440862 0.000000
0.452307 0.386568 0.000000
0.460371 0.397715 0.000000
0.478664 0.456068 0.000000
0.476179 0.462123 0.000000
0.471250 0.456445 0.000000
0.464654 0.388544 0.000000
0.483415 0.461045 0.000000
0.357146 0.449596 0.000000
0.344653 0.443966 0.000000
0.554562 0.459423 0.000000
0.543333 0.457517 0.000000
0.553850 0.449505 0.000000
0.543131 0.445036 0.000000
0.347312 0.459318 0.000000
0.781088 0.538918 0.000000
0.810909 0.534152 0.000000
0.799399 0.553968 0.000000
0.402869 0.534333 0.000000
0.408011 0.546121 0.000000
0.703844 0.670118 0.000000
0.552234 0.794299 0.000000
0.528593 0.795589 0.000000
0.539188 0.770312 0.000000
0.596088 0.518714 0.000000
0.593029 0.508081 0.000000
0.604120 0.510731 0.000000
0.384880 0.468703 0.000000
0.382270 0.455963 0.000000
0.394062 0.458803 0.000000
0.374729 0.466839 0.000000
0.340939 0.294790 0.000000
0.324530 0.290188 0.000000
0.338473 0.279923 0.000000
0.465367 0.336545 0.000000
0.477337 0.352846 0.000000
0.459495 0.350024 0.000000
0.584947 0.516440 0.000000
0.326802 0.302636 0.000000
0.945343 0.420397 0.000000
0.779746 0.749037 0.000000
0.771533 0.774140 0.000000
0.758291 0.749848 0.000000
0.743435 0.765852 0.000000
0.751942 0.297541 0.000000
0.784264 0.292048 0.000000
0.772562 0.330207 0.000000
0.812744 0.305799 0.000000
0.655547 0.494535 0.000000
0.649767 0.472522 0.000000
0.671966 0.480244 0.000000
0.612062 0.502007 0.000000
0.616789 0.515227 0.000000
0.403059 0.898561 0.000000
0.391512 0.946883 0.000000
0.625780 0.504699 0.000000
0.635988 0.491275 0.000000
0.596252 0.650380 0.000000
0.583401 0.655132 0.000000
0.583737 0.644777 0.000000
0.713099 0.416502 0.000000
0.708474 0.388943 0.000000
0.733625 0.389568 0.000000
0.684835 0.406222 0.000000
0.656936 0.416423 0.000000
0.633624 0.425116 0.000000
0.634362 0.400237 0.000000
0.646884 0.740682 0.000000
0.654954 0.726002 0.000000
0.663305 0.741855 0.000000
0.732481 0.441235 0.000000
0.751303 0.460839 0.000000
0.721338 0.462235 0.000000
0.759622 0.437863 0.000000
0.462761 0.363156 0.000000
0.373644 0.622389 0.000000
0.346217 0.613642 0.000000
0.370315 0.594521 0.000000
0.351411 0.640635 0.000000
0.695337 0.690220 0.000000
0.705202 0.700133 0.000000
0.692303 0.700990 0.000000
0.521365 0.516400 0.000000
0.522992 0.510597 0.000000
0.527633 0.513574 0.000000
0.291567 0.329512 0.000000
0.294927 0.318154 0.000000
0.365771 0.366553 0.000000
0.366135 0.358691 0.000000
0.374180 0.368122 0.000000
0.408232 0.327056 0.000000
0.423479 0.328280 0.000000
0.411272 0.339740 0.000000
0.664110 0.670607 0.000000
0.667245 0.662649 0.000000
[...]
POINT_DATA 1818
SCALARS UX float 1
LOOKUP_TABLE default
-0.000011
0.000010
0.418046
-0.670299
-0.276063
0.221939
0.000001
-0.000002
-0.000000
-0.000001
-0.000000
-0.000000
-0.000000
-0.000000
-0.000000
0.000000
0.000000
0.000000
0.000001
0.000001
0.000002
-0.000000
0.189616
0.302613
0.387156
0.452900
0.506706
0.552226
0.593475
0.623974
0.643516
0.650678
0.639755
0.614679
0.564480
0.507404
0.459967
0.432679
0.340866
0.270930
0.207231
0.147514
0.091764
0.039004
-0.013824
-0.068584
-0.126871
-0.188639
-0.252980
-0.319464
-0.387429
-0.456484
-0.526073
-0.598318
-0.669565
-0.673567
-0.683244
-0.695980
-0.710938
-0.725946
-0.738715
-0.745206
-0.739622
-0.718270
-0.678227
-0.616378
-0.534177
-0.424884
-0.304413
-0.185620
-0.260843
-0.250475
-0.244948
-0.238607
-0.230727
-0.226110
-0.217259
-0.213264
-0.205304
-0.198162
-0.195089
-0.190881
-0.186834
-0.187889
-0.177232
-0.172824
-0.173338
-0.167003
-0.163829
-0.153793
-0.146849
-0.138524
-0.131328
-0.121450
-0.113053
-0.105993
-0.097892
-0.088533
-0.084536
-0.077792
-0.075489
-0.070649
-0.061556
-0.054370
-0.035575
-0.026710
-0.016970
-0.001440
0.005768
0.023244
0.030102
0.040922
0.047299
0.051239
0.055545
0.059874
0.061869
0.069033
0.072723
0.076852
0.084312
0.085452
0.090650
0.096991
0.099664
0.108149
0.113714
0.117134
0.123903
0.130512
0.143294
0.155381
0.165557
0.179665
0.198483
0.208072
-0.003175
0.001232
0.010237
-0.161325
-0.166742
-0.189505
0.009345
0.049889
0.020929
0.070243
-0.036488
-0.020447
-0.035990
-0.025969
0.136560
0.119622
0.136767
-0.318963
-0.313469
-0.308967
-0.399261
-0.422388
-0.413937
0.333385
0.344559
0.299078
-0.304645
0.059095
0.088770
-0.162607
-0.156015
-0.179013
-0.168938
-0.137223
-0.124258
-0.144547
-0.008956
-0.023136
-0.014956
-0.152937
-0.171104
-0.133696
-0.434303
-0.422018
-0.162540
-0.402433
0.361940
0.357136
0.351047
-0.340385
-0.342222
-0.333931
0.010343
-0.003592
0.011249
-0.352154
0.470660
0.517725
0.506462
-0.413545
-0.409205
-0.404630
-0.012926
-0.454080
-0.439588
-0.431091
-0.028761
-0.024496
-0.416736
-0.041563
0.134387
0.091586
0.155889
0.181555
0.172281
0.174716
-0.444520
-0.459364
-0.449261
0.162451
-0.457932
-0.064836
-0.084716
-0.080507
-0.073759
0.237233
0.231068
0.244318
0.233087
0.471716
0.486329
0.493926
0.178434
-0.618535
-0.631278
-0.590503
-0.658430
-0.048897
-0.038308
-0.033351
0.080423
0.066007
0.074222
0.159226
-0.095266
-0.101489
-0.112936
-0.613291
-0.579251
-0.594368
-0.117496
-0.191474
-0.176517
-0.187495
-0.331106
-0.347836
-0.338550
0.127839
0.147199
0.111985
-0.345215
-0.471310
-0.459026
-0.297790
-0.295621
-0.289135
-0.033553
-0.027354
-0.047844
-0.039608
0.157079
0.294721
0.342292
0.302062
-0.533924
-0.562756
-0.557689
0.066359
0.082540
0.135577
0.127466
0.122999
0.077191
0.142046
-0.413545
-0.422239
0.200358
0.191443
0.191632
0.180783
-0.418275
0.438345
0.466293
0.461666
-0.349112
-0.338370
0.309158
-0.050665
-0.076883
-0.071053
0.271963
0.262763
0.272045
-0.391395
-0.395985
-0.386381
-0.398714
-0.115039
-0.136909
-0.118197
0.032678
0.054794
0.039028
0.262689
-0.135016
0.544893
0.261508
0.219363
0.218126
0.176556
0.250083
0.277750
0.297846
0.319237
0.298159
0.279022
0.302776
0.271292
0.283569
-0.201213
-0.210651
0.282605
0.280792
-0.093585
-0.101624
-0.112726
0.300249
0.276360
0.302334
0.265264
0.246296
0.232012
0.214470
0.050925
0.058765
0.072330
0.336347
0.367935
0.338117
0.362472
0.052725
-0.325049
-0.357087
-0.342735
-0.339104
0.152132
0.171149
0.131272
0.106225
0.154017
0.166436
-0.325581
-0.240128
-0.046521
-0.040145
-0.023606
-0.021336
-0.007259
-0.008256
0.040428
0.065050
0.078462
-0.393473
-0.393648
-0.405061
-0.404848
-0.012480
-0.024439
-0.050011
0.133616
0.056115
0.076538
0.076201
-0.109485
-0.127454
-0.106445
0.019422
-0.011270
-0.022729
-0.241139
-0.243627
-0.257671
-0.029334
-0.084193
-0.077580
-0.015303
0.138178
0.167986
0.129150
0.155695
-0.098233
-0.030730
-0.277529
-0.256482
-0.246285
-0.283748
-0.489844
-0.471317
-0.481122
-0.426278
-0.440933
-0.427918
-0.027553
-0.021930
-0.151733
0.254951
0.253469
-0.420768
-0.417810
-0.405125
-0.209630
-0.489037
-0.447959
-0.433532
-0.408184
-0.405188
-0.257433
-0.260858
-0.266475
-0.247794
-0.310706
-0.295378
0.364775
0.366888
0.344628
0.382528
-0.444276
-0.436320
-0.432485
-0.250921
-0.299579
-0.238764
-0.213088
-0.192736
-0.161109
-0.111896
-0.240578
-0.278862
-0.316506
0.357500
0.304776
-0.328576
-0.298112
-0.289033
-0.073569
-0.103470
-0.110514
-0.284758
-0.334141
-0.329417
-0.095877
-0.074262
-0.076488
-0.312895
-0.339686
-0.055958
-0.064294
-0.092145
-0.100414
-0.082203
-0.115270
0.185084
0.182767
0.163257
-0.693604
-0.707537
-0.666752
-0.572675
-0.533636
-0.557432
-0.543782
0.002776
-0.016967
-0.104429
-0.113678
-0.238708
-0.249329
-0.244122
-0.258299
-0.224975
-0.230728
-0.218856
-0.371968
-0.380221
-0.373524
-0.367957
-0.363511
-0.370823
-0.363745
-0.301766
0.046744
0.011835
0.009707
0.115619
0.090780
0.099036
0.105828
0.389859
0.348455
0.364187
0.418619
0.429617
-0.334280
-0.345736
-0.375510
0.250112
0.256158
0.196927
-0.333671
-0.324162
-0.332889
-0.069981
-0.041746
-0.317127
-0.058319
-0.087257
-0.086185
0.091032
0.106802
0.096000
0.229436
0.234400
0.240432
-0.100017
-0.105120
-0.069169
0.245017
-0.455286
-0.415903
-0.494727
-0.453011
-0.494672
0.068153
0.086345
0.190532
0.203901
0.195335
0.201903
0.173665
-0.667860
0.012461
0.039559
0.012660
0.035761
-0.419681
-0.450577
-0.394968
0.278598
0.291407
0.308801
-0.089042
0.155266
0.203448
0.213306
0.212102
0.046456
0.070334
0.070906
-0.428130
-0.422173
-0.418797
-0.080879
-0.099856
-0.643160
0.209007
0.222937
0.217166
0.057184
0.048454
-0.127444
-0.116073
-0.096577
0.054459
0.232798
-0.440089
-0.450288
-0.455280
-0.376739
-0.357218
-0.356074
0.155276
0.208683
0.179693
0.197866
0.102005
0.263157
0.261821
-0.299524
-0.234507
-0.256041
-0.018002
-0.008709
-0.449277
-0.436966
-0.426455
-0.023592
0.007380
-0.000566
-0.007846
-0.449353
-0.471117
-0.465117
-0.219028
-0.266218
-0.191615
-0.132692
-0.137737
-0.159060
-0.412763
-0.341587
0.221349
-0.441437
-0.477709
0.218723
0.211975
0.227329
-0.380685
0.200720
0.178988
-0.237362
-0.225660
0.361119
0.383954
0.378960
-0.252064
0.175836
0.185950
0.287504
-0.324489
-0.329351
-0.312873
-0.276163
-0.262732
-0.159809
-0.340825
0.088896
0.104800
-0.343259
-0.118213
-0.140376
-0.120158
-0.135552
0.469741
0.432959
0.436406
0.272974
0.220826
0.194199
-0.164789
-0.145739
-0.127486
-0.079733
-0.062731
0.174091
0.097621
0.105123
0.128643
0.005755
-0.431943
-0.429475
0.018118
0.022873
-0.403303
0.326641
0.368372
0.319076
0.576197
0.375357
0.088759
0.104134
0.113776
-0.442665
0.146351
0.005747
0.008966
0.020592
-0.204466
-0.282599
-0.140428
-0.126769
0.289555
-0.383083
-0.350537
-0.421202
-0.430402
-0.426909
-0.298766
-0.286267
-0.287649
-0.373303
0.396215
0.385303
0.400504
-0.274356
-0.022853
0.473484
0.297240
0.296533
0.181010
0.232493
0.174357
0.237926
0.219824
0.253091
0.016623
-0.346946
-0.060243
-0.376809
-0.392418
-0.425984
-0.461263
0.013121
0.026746
-0.161830
-0.193465
0.191576
0.062690
-0.620039
0.039781
-0.398224
-0.389340
-0.358622
0.030573
0.377717
0.367442
0.356042
0.354579
0.021363
0.000333
-0.062975
-0.059615
-0.039233
0.336310
0.340852
0.327450
0.327355
0.344528
0.364588
-0.370517
-0.374337
0.442608
-0.619967
-0.540178
-0.579707
0.415748
0.403486
0.394235
-0.069087
-0.089460
-0.050161
0.421345
0.473245
0.289461
0.216340
0.250437
0.170750
-0.109931
0.131161
0.124001
0.107449
0.380361
0.418479
0.405493
-0.434351
-0.475013
-0.498517
0.446420
-0.300238
-0.274955
-0.333663
-0.359587
-0.364100
-0.451029
0.072302
0.049957
0.122620
0.560083
0.564380
0.605346
0.518008
0.483890
0.562500
0.546669
-0.017963
-0.016285
-0.603882
-0.538209
-0.541458
-0.038122
0.121877
-0.007368
-0.586440
-0.583731
-0.625267
-0.473156
-0.473958
-0.671081
0.100661
0.006076
-0.278640
-0.033666
-0.270372
-0.231806
-0.229975
0.584808
0.612938
0.087718
0.078255
0.125320
0.254694
0.209443
0.270407
0.189398
0.127492
0.243471
-0.038146
-0.054822
-0.323946
-0.386228
-0.399356
-0.341585
-0.451004
-0.467497
-0.466926
-0.701789
-0.694961
-0.042510
-0.061207
-0.037177
-0.064237
-0.073592
0.022909
0.044915
0.035475
-0.651895
-0.020216
-0.034231
-0.125831
-0.145532
-0.151080
0.595688
0.553513
-0.488960
0.436716
0.423554
0.418079
0.441400
-0.595316
-0.587422
-0.562614
0.459950
-0.010582
0.523322
0.118644
-0.001345
-0.030380
-0.044079
-0.170667
0.019270
-0.016949
-0.002123
0.016621
0.020730
0.316759
0.258090
-0.091935
-0.192088
-0.192641
0.049698
-0.161351
0.183801
0.216499
0.179128
0.233653
-0.440969
-0.438106
-0.236314
-0.099300
-0.040985
-0.071276
0.076411
0.061948
0.044866
-0.060987
-0.119596
-0.546572
-0.507661
-0.532458
-0.519485
-0.125526
-0.563926
-0.552520
-0.594730
-0.533231
-0.539316
-0.198031
-0.181110
-0.236774
-0.202983
-0.197532
-0.153651
-0.130986
-0.037468
-0.006217
-0.610676
-0.672703
-0.586195
0.136318
0.123227
0.126343
-0.223922
-0.240191
0.017517
0.003921
-0.512485
-0.535688
-0.509902
-0.390136
-0.383738
-0.371774
-0.242810
-0.267447
-0.489992
0.143253
0.073248
0.048345
-0.375830
-0.352790
-0.328031
-0.367473
-0.392036
-0.569738
0.256535
0.217065
-0.412728
-0.416606
-0.439508
-0.442879
0.053680
0.034117
-0.384871
0.396514
-0.003164
0.031967
0.036850
0.045282
0.018315
-0.162956
0.023246
-0.319080
-0.233421
-0.215721
-0.239698
-0.241299
-0.411329
-0.422774
-0.439092
0.038223
0.032615
-0.455190
0.228470
0.313631
0.313247
-0.682450
-0.634197
-0.644035
-0.085434
-0.105361
-0.110868
-0.460339
0.535739
0.564749
0.526217
0.501433
0.497160
-0.513884
-0.502276
-0.376269
-0.391797
-0.388037
0.162415
0.318581
0.258861
0.376741
-0.470011
-0.484941
-0.322117
-0.335801
-0.295367
-0.460652
-0.536138
-0.322087
0.102896
0.108005
0.108257
-0.312241
-0.305652
-0.321508
0.390074
0.390593
0.404511
-0.344567
0.485996
0.471432
-0.566122
-0.098650
0.131468
-0.598040
-0.653484
-0.065906
-0.092899
0.295240
0.289755
0.282863
-0.070928
-0.066488
0.306062
-0.071822
0.317605
-0.486696
-0.519381
0.399461
0.410533
0.327465
0.102133
-0.052741
0.442661
0.390257
0.496591
0.372574
0.003541
-0.012129
0.008964
-0.006751
0.142810
-0.014101
-0.038290
0.152403
-0.397812
-0.326660
-0.369650
-0.215322
-0.211311
0.092028
0.117962
-0.183756
-0.193210
-0.203276
0.153738
0.142340
0.151022
-0.271466
-0.263638
-0.253887
-0.406316
0.419626
0.430263
0.435040
-0.468631
-0.482019
-0.499109
-0.051424
-0.067137
-0.068114
-0.500221
-0.151068
-0.083141
-0.130020
-0.012113
-0.545554
-0.535509
0.517121
0.142330
0.339595
0.304591
-0.245285
-0.260304
0.078425
0.061514
-0.054343
-0.578862
0.073249
-0.373980
-0.518529
-0.498768
-0.368007
-0.366234
-0.375545
0.341776
0.339789
0.347355
0.354428
0.098722
0.122229
0.095674
0.136879
-0.459669
-0.195772
-0.209720
-0.471286
-0.280671
0.142208
0.136663
0.090130
0.456190
0.405083
0.351191
0.047748
0.101256
0.007090
-0.462439
-0.452111
-0.446510
-0.516942
-0.178990
-0.078061
-0.153961
0.017485
-0.159111
0.091283
0.074446
-0.021966
-0.045101
-0.035324
-0.025772
0.377789
0.100794
0.075242
0.059291
0.098570
0.127207
-0.110196
-0.087837
0.468835
-0.287802
-0.313781
-0.299402
-0.297056
-0.351734
0.440027
0.379464
0.395395
0.366211
0.357437
0.353678
-0.488829
0.030033
0.024849
0.047183
0.041884
0.066792
0.071211
0.078881
0.542155
0.574524
0.405273
-0.370311
-0.367694
-0.014724
-0.035561
0.307479
0.367672
0.332751
0.334246
-0.373853
-0.364756
-0.180166
-0.188254
-0.041365
-0.426753
-0.416560
0.087446
-0.433098
0.201486
0.205329
0.199318
0.083666
0.095084
0.382905
0.364134
-0.266261
-0.283379
-0.251190
-0.267793
-0.254300
-0.267061
0.143591
0.134681
-0.548879
0.130498
0.187303
0.210695
0.483786
0.470555
0.157902
0.106558
0.114075
0.082629
0.009615
-0.109720
-0.160733
-0.179027
-0.196926
-0.353953
-0.361762
0.405451
0.174802
0.139090
0.148371
0.120334
-0.026813
-0.044911
-0.053845
0.328307
0.331098
0.269420
-0.406867
-0.406179
-0.378514
0.038085
-0.129447
-0.113318
-0.101582
0.095299
-0.149416
-0.137872
-0.112313
-0.080790
0.101260
-0.073839
0.395006
0.414306
0.417974
0.365016
0.399946
0.437479
-0.406667
-0.033487
-0.146329
-0.179112
-0.169451
-0.144172
-0.176455
-0.201941
0.065245
0.348032
0.172801
0.048871
0.060826
0.371997
0.376235
0.234556
0.251344
0.243657
-0.354528
-0.386105
0.041788
0.070700
-0.412953
0.381186
0.376545
0.348864
0.343970
-0.411139
-0.523678
-0.456168
0.323495
0.320516
0.184437
0.159826
0.165578
0.172411
0.312830
0.494483
0.027898
0.316141
0.244324
0.268806
-0.057039
-0.184572
-0.113220
0.482223
0.064959
-0.168970
0.326106
0.328921
-0.026664
-0.057610
-0.122957
-0.148881
-0.128491
-0.222804
0.283370
0.271833
-0.080672
-0.132353
-0.117430
-0.229926
-0.212198
-0.634648
0.267131
0.263283
0.260313
0.257765
0.263218
-0.358385
0.290343
-0.398843
-0.040785
-0.265971
-0.405400
-0.190741
-0.152596
-0.149197
-0.358477
0.064509
-0.410921
-0.540296
0.011691
0.051050
0.020548
-0.403596
-0.377246
-0.312086
0.329455
0.046746
0.038889
-0.309204
-0.108718
0.296862
0.335676
-0.291076
-0.305286
-0.311422
0.186076
-0.322604
0.356946
0.345866
0.021477
-0.191239
-0.205423
-0.202660
-0.228486
-0.216244
-0.086953
0.066765
0.474439
0.502346
0.225106
-0.114789
0.219972
-0.056519
-0.058281
0.268174
-0.048161
-0.178256
0.454245
0.001873
-0.394465
-0.396576
0.320593
0.146366
0.151811
0.512075
0.154163
0.106180
0.038615
-0.504106
-0.493780
-0.001647
-0.023501
-0.382873
-0.393425
-0.386307
0.525922
-0.397641
-0.205474
-0.261471
0.338857
-0.103947
-0.130218
-0.135576
-0.274138
0.021394
0.006433
0.211112
-0.199389
-0.214649
0.269038
0.280668
0.287224
0.294041
0.278202
0.174458
-0.567266
-0.230328
-0.286075
-0.279733
-0.093767
0.018900
0.012152
0.154031
0.167491
-0.110436
-0.158379
0.128963
0.199745
0.271665
0.029548
0.032840
0.041528
0.044223
-0.213793
-0.335947
-0.313862
0.315174
0.318341
0.326923
-0.226601
-0.221886
0.022320
-0.349680
-0.356309
0.027710
0.039280
0.338129
0.018232
-0.415561
-0.448274
-0.400479
-0.257197
0.042745
-0.302222
-0.024159
-0.034142
-0.491620
-0.507578
0.055424
0.007820
0.102654
-0.223452
0.101799
-0.004970
0.089809
-0.363413
-0.359641
0.138702
-0.270637
-0.420647
-0.467746
-0.490388
-0.408486
-0.233312
-0.257017
-0.235367
0.253008
0.261969
0.257541
-0.284325
-0.262229
-0.006759
-0.017064
-0.310223
-0.302464
-0.323921
-0.019358
-0.005971
-0.283400
-0.293488
0.335386
0.334635
-0.013411
-0.350561
-0.346785
-0.411345
-0.400304
-0.399674
0.030723
0.041781
0.261093
0.199747
-0.195967
-0.181502
-0.229688
0.105958
0.124244
0.068832
0.094375
-0.335562
0.031107
0.031316
-0.125039
-0.229883
0.080970
0.068585
-0.260553
-0.242664
-0.044108
0.163783
0.164811
0.308273
-0.400476
0.311217
0.015811
0.395758
0.397519
-0.382824
-0.384363
0.017282
0.031561
-0.046110
-0.051765
0.265212
0.339566
0.088430
-0.150719
0.329755
-0.435046
0.273189
0.216540
0.220162
-0.439645
0.353508
0.163342
0.099879
0.220535
0.212579
0.126574
0.171759
-0.533944
-0.500904
-0.481095
-0.476265
0.402562
0.219356
0.239481
0.221588
0.019600
-0.511801
0.433418
-0.404762
-0.353473
-0.342983
-0.016182
0.041175
0.002633
0.251233
0.123273
-0.172862
-0.150262
-0.542358
-0.071870
0.323812
0.373418
-0.611483
-0.601453
-0.157917
0.076453
0.178661
0.082568
0.308515
0.382419
0.226751
0.164619
-0.383972
0.218052
-0.411875
-0.095469
0.221055
0.290429
0.274097
0.204194
0.387531
0.330020
-0.357490
-0.286678
-0.275369
0.454043
0.424758
0.021844
0.358769
-0.197385
-0.215792
-0.216668
0.133182
0.144814
0.130170
0.130450
-0.168332
-0.051801
0.367353
0.187383
-0.362712
-0.161367
-0.525399
-0.188453
0.336826
0.413577
0.393939
-0.260798
-0.284996
-0.489095
0.358062
0.340377
-0.206640
-0.062350
0.010194
-0.008760
-0.417357
0.000246
0.059418
-0.161578
0.373752
0.443551
0.250981
0.221577
0.188922
-0.459943
-0.150303
-0.014433
0.000902
-0.377375
0.520391
-0.447371
0.113682
0.118795
-0.486286
0.284036
0.234632
0.181945
-0.084812
0.192952
0.191800
-0.190206
0.310733
-0.173729
0.054143
0.046138
0.037432
-0.306961
0.117304
-0.150371
0.144001
-0.089059
-0.082041
-0.175106
0.467702
0.269725
-0.362540
-0.365536
-0.145430
0.282733
-0.607014
-0.654200
-0.651217
-0.238854
-0.358231
0.286730
-0.260274
0.228842
0.288637
0.288628
0.043756
-0.239130
-0.272578
-0.355506
0.385496
0.365111
0.197525
0.195335
-0.157804
-0.205310
-0.387052
-0.394496
0.209345
-0.398169
-0.145546
-0.158767
-0.321609
-0.410473
0.203588
0.151897
0.244422
0.226704
-0.230859
0.342588
0.280134
-0.181709
-0.297988
-0.309636
0.240588
0.201321
-0.277856
0.247728
0.190715
-0.385390
0.346530
-0.186226
-0.453458
0.295132
0.269700
-0.071899
-0.060067
-0.280121
-0.388203
0.302901
0.302478
0.310407
-0.057838
0.166666
0.115319
-0.359213
-0.459904
0.228416
0.162458
-0.361665
-0.359286
0.281472
0.323789
0.087371
0.116791
0.053081
0.330438
0.470213
-0.081688
-0.071566
-0.192237
-0.393000
0.235967
-0.278675
-0.067806
-0.074233
0.051047
0.190490
-0.303302
0.292203
-0.343598
-0.179255
0.329146
-0.327405
-0.257910
-0.302071
-0.313679
-0.077850
-0.048942
-0.298356
0.303668
-0.357414
0.022029
-0.011654
-0.092621
0.052809
-0.113672
-0.100154
0.169126
-0.325617
-0.336343
-0.076470
0.009320
-0.019736
-0.233935
-0.221941
-0.168868
-0.265143
-0.189594
-0.041654
-0.227532
-0.152809
-0.101030
0.059498
-0.268759
0.346741
0.290385
-0.044737
-0.381822
-0.375323
-0.068089
0.106618
0.113239
-0.183989
0.063272
-0.351082
-0.385456
0.050756
0.201707
0.223321
0.268013
0.329523
-0.312735
0.215713
-0.281951
-0.284943
-0.290990
0.208660
-0.156561
0.212571
-0.326410
0.157726
0.123678
0.114646
-0.428192
0.087672
-0.194131
-0.232063
0.029806
-0.145943
-0.324614
0.066050
0.234863
-0.123806
-0.248825
0.001344
SCALARS UY float 1
LOOKUP_TABLE default
-0.000016
-0.000017
-2.389991
-2.389994
-0.647286
-1.670598
-0.000004
-0.000007
-0.000006
-0.000006
-0.000005
-0.000005
-0.000005
-0.000005
-0.000005
-0.000005
-0.000005
-0.000005
-0.000006
-0.000006
-0.000007
-0.000004
-0.206347
-0.361454
-0.510258
-0.646927
-0.772590
-0.896671
-1.018149
-1.134855
-1.249384
-1.360471
-1.473858
-1.591913
-1.723361
-1.877674
-2.044046
-2.216189
-2.389994
-2.389993
-2.389994
-2.389994
-2.389994
-2.389994
-2.389995
-2.389994
-2.389994
-2.389994
-2.389994
-2.389994
-2.389994
-2.389994
-2.389994
-2.389994
-2.237796
-2.086708
-1.938047
-1.791838
-1.650864
-1.516095
-1.388677
-1.269794
-1.157041
-1.050548
-0.943368
-0.827563
-0.694518
-0.539041
-0.383771
-0.216975
-0.667079
-0.683097
-0.701810
-0.714652
-0.729086
-0.741076
-0.758364
-0.770874
-0.783006
-0.795348
-0.806370
-0.828160
-0.849538
-0.856416
-0.877290
-0.891534
-0.903519
-0.920868
-0.934088
-0.951521
-0.964515
-0.976248
-0.985452
-1.002162
-1.018795
-1.019275
-1.039142
-1.057821
-1.065868
-1.085319
-1.100381
-1.117228
-1.137845
-1.138982
-1.155514
-1.162411
-1.170372
-1.187858
-1.190506
-1.208963
-1.216887
-1.233348
-1.242978
-1.264679
-1.282599
-1.299606
-1.314840
-1.335782
-1.352582
-1.369897
-1.392475
-1.405950
-1.418271
-1.441649
-1.459267
-1.480013
-1.499567
-1.517119
-1.531466
-1.547858
-1.564605
-1.581810
-1.598649
-1.614286
-1.632889
-1.650020
-0.122523
-0.064115
-0.139609
-1.448951
-1.481314
-1.489396
-0.073410
-0.840692
-0.841119
-0.798926
-0.294648
-0.319673
-0.335908
-0.364714
-0.743735
-0.706217
-0.729584
-1.364992
-1.365663
-1.384274
-0.905448
-0.941200
-0.903177
-1.352624
-1.367630
-1.406379
-1.379311
-0.791914
-0.761388
-1.629776
-1.652693
-1.619182
-1.648274
-1.601446
-1.631853
-1.622343
-0.050083
-0.123083
-0.061894
-2.294592
-2.214226
-2.207376
-0.978729
-0.975589
-2.138669
-0.933478
-1.284384
-1.311428
-1.297010
-1.354593
-1.340125
-1.359513
-0.630208
-0.604752
-0.610839
-1.325595
-0.884519
-0.912737
-0.962790
-1.098672
-1.075196
-1.097311
-0.109896
-0.849294
-0.800817
-0.821028
-0.119155
-0.086960
-0.780729
-0.151369
-0.978624
-0.999366
-0.933742
-0.869487
-0.864592
-0.844513
-1.087286
-1.061716
-1.044922
-0.839702
-1.104751
-0.367676
-0.384300
-0.353347
-0.410816
-0.998270
-0.977181
-0.980520
-0.956728
-1.393719
-1.353370
-1.404359
-0.892833
-1.147692
-1.068411
-1.075754
-1.166304
-0.229058
-0.168255
-0.187078
-0.714658
-0.693233
-0.688191
-0.892296
-0.363930
-0.395899
-0.378244
-0.983160
-0.942643
-1.012158
-0.414194
-1.554289
-1.574759
-1.574721
-1.417870
-1.383491
-1.388026
-1.867200