# vtk DataFile Version 2.0
Test
ASCII
DATASET POLYDATA
POINTS 1818 float
0.000000 0.000000 0.000000
1.000000 0.000000 0.000000
1.000000 1.000000 0.000000
0.000000 1.000000 0.000000
0.300000 0.330000 0.000000
0.700000 0.680000 0.000000
0.058824 0.000000 0.000000
0.117647 0.000000 0.000000
0.176471 0.000000 0.000000
0.235294 0.000000 0.000000
0.294118 0.000000 0.000000
0.352941 0.000000 0.000000
0.411765 0.000000 0.000000
0.470588 0.000000 0.000000
0.529412 0.000000 0.000000
0.588235 0.000000 0.000000
0.647059 0.000000 0.000000
0.705882 0.000000 0.000000
0.764706 0.000000 0.000000
0.823529 0.000000 0.000000
0.882353 0.000000 0.000000
0.941176 0.000000 0.000000
1.000000 0.058824 0.000000
1.000000 0.117647 0.000000
1.000000 0.176471 0.000000
1.000000 0.235294 0.000000
1.000000 0.294118 0.000000
1.000000 0.352941 0.000000
1.000000 0.411765 0.000000
1.000000 0.470588 0.000000
1.000000 0.529412 0.000000
1.000000 0.588235 0.000000
1.000000 0.647059 0.000000
1.000000 0.705882 0.000000
1.000000 0.764706 0.000000
1.000000 0.823529 0.000000
1.000000 0.882353 0.000000
1.000000 0.941176 0.000000
0.941176 1.000000 0.000000
0.882353 1.000000 0.000000
0.823529 1.000000 0.000000
0.764706 1.000000 0.000000
0.705882 1.000000 0.000000
0.647059 1.000000 0.000000
0.588235 1.000000 0.000000
0.529412 1.000000 0.000000
0.470588 1.000000 0.000000
0.411765 1.000000 0.000000
0.352941 1.000000 0.000000
0.294118 1.000000 0.000000
0.235294 1.000000 0.000000
0.176471 1.000000 0.000000
0.117647 1.000000 0.000000
0.058824 1.000000 0.000000
0.000000 0.941176 0.000000
0.000000 0.882353 0.000000
0.000000 0.823529 0.000000
0.000000 0.764706 0.000000
0.000000 0.705882 0.000000
0.000000 0.647059 0.000000
0.000000 0.588235 0.000000
0.000000 0.529412 0.000000
0.000000 0.470588 0.000000
0.000000 0.411765 0.000000
0.000000 0.352941 0.000000
0.000000 0.294118 0.000000
0.000000 0.235294 0.000000
0.000000 0.176471 0.000000
0.000000 0.117647 0.000000
0.000000 0.058824 0.000000
0.305970 0.335224 0.000000
0.311940 0.340448 0.000000
0.317910 0.345672 0.000000
0.323881 0.350896 0.000000
0.329851 0.356119 0.000000
0.335821 0.361343 0.000000
0.341791 0.366567 0.000000
0.347761 0.371791 0.000000
0.353731 0.377015 0.000000
0.359701 0.382239 0.000000
0.365672 0.387463 0.000000
0.371642 0.392687 0.000000
0.377612 0.397910 0.000000
0.383582 0.403134 0.000000
0.389552 0.408358 0.000000
0.395522 0.413582 0.000000
0.401493 0.418806 0.000000
0.407463 0.424030 0.000000
0.413433 0.429254 0.000000
0.419403 0.434478 0.000000
0.425373 0.439701 0.000000
0.431343 0.444925 0.000000
0.437313 0.450149 0.000000
0.443284 0.455373 0.000000
0.449254 0.460597 0.000000
0.455224 0.465821 0.000000
0.461194 0.471045 0.000000
0.467164 0.476269 0.000000
0.473134 0.481493 0.000000
0.479104 0.486716 0.000000
0.485075 0.491940 0.000000
0.491045 0.497164 0.000000
0.497015 0.502388 0.000000
0.502985 0.507612 0.000000
0.508955 0.512836 0.000000
0.514925 0.518060 0.000000
0.520896 0.523284 0.000000
0.526866 0.528507 0.000000
0.532836 0.533731 0.000000
0.538806 0.538955 0.000000
0.544776 0.544179 0.000000
0.550746 0.549403 0.000000
0.556716 0.554627 0.000000
0.562687 0.559851 0.000000
0.568657 0.565075 0.000000
0.574627 0.570299 0.000000
0.580597 0.575522 0.000000
0.586567 0.580746 0.000000
0.592537 0.585970 0.000000
0.598507 0.591194 0.000000
0.604478 0.596418 0.000000
0.610448 0.601642 0.000000
0.616418 0.606866 0.000000
0.622388 0.612090 0.000000
0.628358 0.617313 0.000000
0.634328 0.622537 0.000000
0.640299 0.627761 0.000000
0.646269 0.632985 0.000000
0.652239 0.638209 0.000000
0.658209 0.643433 0.000000
0.664179 0.648657 0.000000
0.670149 0.653881 0.000000
0.676119 0.659104 0.000000
0.682090 0.664328 0.000000
0.688060 0.669552 0.000000
0.694030 0.674776 0.000000
0.516135 0.080917 0.000000
0.549338 0.042552 0.000000
0.567302 0.088709 0.000000
0.555658 0.563778 0.000000
0.559301 0.571359 0.000000
0.552318 0.570919 0.000000
0.603235 0.047100 0.000000
0.446553 0.448087 0.000000
0.438652 0.443189 0.000000
0.445116 0.440368 0.000000
0.437254 0.190586 0.000000
0.465954 0.201747 0.000000
0.439184 0.213838 0.000000
0.453137 0.228102 0.000000
0.522423 0.410182 0.000000
0.522098 0.390982 0.000000
0.537289 0.398500 0.000000
0.453388 0.527105 0.000000
0.462022 0.524948 0.000000
0.461218 0.533993 0.000000
0.324300 0.374550 0.000000
0.319287 0.386214 0.000000
0.314834 0.375138 0.000000
0.668809 0.628853 0.000000
0.677366 0.632907 0.000000
0.668274 0.639611 0.000000
0.469934 0.529282 0.000000
0.439703 0.436699 0.000000
0.446608 0.432083 0.000000
0.542854 0.633425 0.000000
0.535117 0.647070 0.000000
0.524302 0.633157 0.000000
0.519372 0.648877 0.000000
0.586338 0.611293 0.000000
0.591638 0.624149 0.000000
0.575478 0.621479 0.000000
0.437962 0.035513 0.000000
0.421505 0.085456 0.000000
0.394924 0.044162 0.000000
0.445207 0.955749 0.000000
0.429168 0.919510 0.000000
0.464409 0.914226 0.000000
0.317150 0.400904 0.000000
0.328626 0.395860 0.000000
0.439616 0.884412 0.000000
0.330406 0.381773 0.000000
0.676842 0.602700 0.000000
0.674982 0.614185 0.000000
0.665930 0.611798 0.000000
0.414707 0.535036 0.000000
0.420123 0.526072 0.000000
0.425338 0.533771 0.000000
0.398407 0.375558 0.000000
0.393804 0.363255 0.000000
0.407284 0.365452 0.000000
0.407758 0.523337 0.000000
0.899969 0.377867 0.000000
0.945915 0.378245 0.000000
0.914158 0.409130 0.000000
0.358219 0.436142 0.000000
0.361390 0.425428 0.000000
0.369309 0.432300 0.000000
0.465999 0.075074 0.000000
0.269944 0.367761 0.000000
0.266521 0.352125 0.000000
0.283474 0.357667 0.000000
0.385889 0.083020 0.000000
0.359482 0.060981 0.000000
0.279658 0.346766 0.000000
0.363604 0.104040 0.000000
0.511115 0.503731 0.000000
0.503243 0.499914 0.000000
0.509146 0.494910 0.000000
0.513188 0.475753 0.000000
0.504957 0.474656 0.000000
0.511959 0.464784 0.000000
0.311863 0.447505 0.000000
0.293019 0.442078 0.000000
0.305555 0.431691 0.000000
0.499204 0.464990 0.000000
0.293855 0.459576 0.000000
0.396676 0.236328 0.000000
0.371014 0.247362 0.000000
0.373003 0.229199 0.000000
0.384478 0.261522 0.000000
0.555704 0.523331 0.000000
0.551313 0.515879 0.000000
0.562752 0.515269 0.000000
0.554954 0.506854 0.000000
0.804236 0.611103 0.000000
0.819351 0.593503 0.000000
0.832061 0.615776 0.000000
0.509908 0.485173 0.000000
0.129738 0.481190 0.000000
0.110722 0.443736 0.000000
0.154857 0.452634 0.000000
0.089738 0.485299 0.000000
0.396427 0.153886 0.000000
0.393058 0.115469 0.000000
0.420333 0.126587 0.000000
0.442628 0.413512 0.000000
0.434815 0.404283 0.000000
0.446816 0.400259 0.000000
0.499770 0.482873 0.000000
0.353883 0.235057 0.000000
0.351360 0.254011 0.000000
0.332147 0.240870 0.000000
0.112307 0.405527 0.000000
0.140355 0.392788 0.000000
0.142004 0.423465 0.000000
0.334868 0.263052 0.000000
0.551239 0.594093 0.000000
0.560217 0.601969 0.000000
0.546711 0.604614 0.000000
0.398510 0.570197 0.000000
0.387124 0.557316 0.000000
0.399978 0.555748 0.000000
0.705281 0.743146 0.000000
0.722930 0.758853 0.000000
0.697202 0.758074 0.000000
0.380190 0.572638 0.000000
0.278345 0.431947 0.000000
0.292575 0.428097 0.000000
0.470820 0.540616 0.000000
0.478213 0.533042 0.000000
0.480161 0.543190 0.000000
0.415268 0.299334 0.000000
0.412465 0.313515 0.000000
0.400419 0.297680 0.000000
0.396495 0.317117 0.000000
0.718655 0.732879 0.000000
0.709319 0.677587 0.000000
0.715709 0.670111 0.000000
0.719283 0.682820 0.000000
0.212992 0.453899 0.000000
0.184619 0.470046 0.000000
0.186665 0.440862 0.000000
0.452307 0.386568 0.000000
0.460371 0.397715 0.000000
0.478664 0.456068 0.000000
0.476179 0.462123 0.000000
0.471250 0.456445 0.000000
0.464654 0.388544 0.000000
0.483415 0.461045 0.000000
0.357146 0.449596 0.000000
0.344653 0.443966 0.000000
0.554562 0.459423 0.000000
0.543333 0.457517 0.000000
0.553850 0.449505 0.000000
0.543131 0.445036 0.000000
0.347312 0.459318 0.000000
0.781088 0.538918 0.000000
0.810909 0.534152 0.000000
0.799399 0.553968 0.000000
0.402869 0.534333 0.000000
0.408011 0.546121 0.000000
0.703844 0.670118 0.000000
0.552234 0.794299 0.000000
0.528593 0.795589 0.000000
0.539188 0.770312 0.000000
0.596088 0.518714 0.000000
0.593029 0.508081 0.000000
0.604120 0.510731 0.000000
0.384880 0.468703 0.000000
0.382270 0.455963 0.000000
0.394062 0.458803 0.000000
0.374729 0.466839 0.000000
0.340939 0.294790 0.000000
0.324530 0.290188 0.000000
0.338473 0.279923 0.000000
0.465367 0.336545 0.000000
0.477337 0.352846 0.000000
0.459495 0.350024 0.000000
0.584947 0.516440 0.000000
0.326802 0.302636 0.000000
0.945343 0.420397 0.000000
0.779746 0.749037 0.000000
0.771533 0.774140 0.000000
0.758291 0.749848 0.000000
0.743435 0.765852 0.000000
0.751942 0.297541 0.000000
0.784264 0.292048 0.000000
0.772562 0.330207 0.000000
0.812744 0.305799 0.000000
0.655547 0.494535 0.000000
0.649767 0.472522 0.000000
0.671966 0.480244 0.000000
0.612062 0.502007 0.000000
0.616789 0.515227 0.000000
0.403059 0.898561 0.000000
0.391512 0.946883 0.000000
0.625780 0.504699 0.000000
0.635988 0.491275 0.000000
0.596252 0.650380 0.000000
0.583401 0.655132 0.000000
0.583737 0.644777 0.000000
0.713099 0.416502 0.000000
0.708474 0.388943 0.000000
0.733625 0.389568 0.000000
0.684835 0.406222 0.000000
0.656936 0.416423 0.000000
0.633624 0.425116 0.000000
0.634362 0.400237 0.000000
0.646884 0.740682 0.000000
0.654954 0.726002 0.000000
0.663305 0.741855 0.000000
0.732481 0.441235 0.000000
0.751303 0.460839 0.000000
0.721338 0.462235 0.000000
0.759622 0.437863 0.000000
0.462761 0.363156 0.000000
0.373644 0.622389 0.000000
0.346217 0.613642 0.000000
0.370315 0.594521 0.000000
0.351411 0.640635 0.000000
0.695337 0.690220 0.000000
0.705202 0.700133 0.000000
0.692303 0.700990 0.000000
0.521365 0.516400 0.000000
0.522992 0.510597 0.000000
0.527633 0.513574 0.000000
0.291567 0.329512 0.000000
0.294927 0.318154 0.000000
0.365771 0.366553 0.000000
0.366135 0.358691 0.000000
0.374180 0.368122 0.000000
0.408232 0.327056 0.000000
0.423479 0.328280 0.000000
0.411272 0.339740 0.000000
0.664110 0.670607 0.000000
0.667245 0.662649 0.000000
[...]
POINT_DATA 1818
SCALARS UX float 1
LOOKUP_TABLE default
-0.000006
0.000005
0.100323
-0.693033
-0.252245
-0.066063
0.000001
-0.000001
-0.000000
-0.000000
-0.000000
-0.000000
-0.000000
-0.000000
-0.000000
0.000000
0.000000
0.000000
0.000000
0.000000
0.000001
-0.000000
0.105455
0.168218
0.216304
0.255064
0.284295
0.312338
0.338438
0.360267
0.377384
0.386498
0.380384
0.361421
0.319976
0.258582
0.178029
0.119795
0.026811
-0.035600
-0.084385
-0.125325
-0.164082
-0.204112
-0.246555
-0.291152
-0.336647
-0.382353
-0.428182
-0.473921
-0.519272
-0.563605
-0.606843
-0.650026
-0.691233
-0.691671
-0.694720
-0.699018
-0.703197
-0.706347
-0.708241
-0.707204
-0.701941
-0.691996
-0.677556
-0.666305
-0.638552
-0.594037
-0.444209
-0.219939
-0.242083
-0.236960
-0.234532
-0.230184
-0.225770
-0.221573
-0.214936
-0.211957
-0.207249
-0.201831
-0.201218
-0.197199
-0.195609
-0.196703
-0.189147
-0.186892
-0.188862
-0.186000
-0.183772
-0.176716
-0.174170
-0.171276
-0.169554
-0.165014
-0.162596
-0.160762
-0.157441
-0.153591
-0.154733
-0.151245
-0.152669
-0.151470
-0.146412
-0.143175
-0.129975
-0.124739
-0.119875
-0.109321
-0.106704
-0.094866
-0.093015
-0.087972
-0.089380
-0.082884
-0.089200
-0.090959
-0.092087
-0.090923
-0.091269
-0.091884
-0.089080
-0.091759
-0.094808
-0.094799
-0.100799
-0.111016
-0.113905
-0.122167
-0.118625
-0.121157
-0.110330
-0.095114
-0.097084
-0.094407
-0.084704
-0.075240
0.000574
0.002023
0.007077
-0.296723
-0.311067
-0.334071
0.006027
-0.034048
-0.053828
-0.015405
-0.020827
-0.013572
-0.023449
-0.019987
0.044483
0.037974
0.047642
-0.431832
-0.426603
-0.426230
-0.439330
-0.465153
-0.452734
0.107633
0.118013
0.076797
-0.420942
-0.022389
0.002040
-0.347758
-0.347278
-0.358878
-0.356138
-0.316736
-0.315009
-0.329562
-0.002665
-0.008698
-0.005263
-0.355737
-0.369017
-0.341976
-0.482464
-0.468204
-0.362956
-0.443462
0.150561
0.139144
0.132024
-0.449570
-0.448566
-0.444711
-0.036487
-0.041801
-0.031352
-0.454888
0.259801
0.290028
0.282188
-0.476944
-0.468402
-0.467022
-0.003977
-0.487171
-0.464196
-0.451712
-0.011452
-0.009685
-0.428538
-0.017758
0.008005
-0.025194
0.029674
0.057110
0.050149
0.055167
-0.506396
-0.516947
-0.506092
0.045538
-0.519465
-0.042865
-0.056398
-0.049822
-0.053789
0.087366
0.084595
0.094204
0.088241
0.258467
0.267270
0.278116
0.051989
-0.626774
-0.632994
-0.608607
-0.650399
-0.023464
-0.016438
-0.014583
0.002907
-0.004930
0.003027
0.036757
-0.058964
-0.068358
-0.070631
-0.623646
-0.602147
-0.610555
-0.081669
-0.352880
-0.344857
-0.354817
-0.450653
-0.459486
-0.452858
-0.154534
-0.132926
-0.167583
-0.460604
-0.524275
-0.513291
-0.419597
-0.414857
-0.413442
-0.039724
-0.039924
-0.048497
-0.049420
-0.122576
0.011257
0.069090
0.022612
-0.572926
-0.592571
-0.587261
0.002078
0.010185
0.028147
0.019308
0.018275
0.009348
0.031119
-0.481708
-0.487258
0.076526
0.070365
0.072798
0.066045
-0.488406
0.224824
0.248133
0.243280
-0.455451
-0.450711
0.125332
-0.289197
-0.306751
-0.304278
0.113630
0.109833
0.115869
-0.468407
-0.468349
-0.459749
-0.474331
-0.092472
-0.106258
-0.088703
-0.006189
0.004290
-0.005639
0.107448
-0.110303
0.307202
0.010235
-0.058528
-0.049986
-0.103815
0.131699
0.148759
0.157253
0.172508
0.137166
0.128193
0.142310
0.117480
0.123025
-0.390209
-0.397438
0.124832
0.126249
-0.307562
-0.314449
-0.317889
0.149269
0.138012
0.153810
0.129017
0.115804
0.105428
0.098195
-0.227751
-0.224310
-0.210303
0.168569
0.186150
0.166954
0.185566
-0.000044
-0.455276
-0.474851
-0.462618
-0.466775
-0.127524
-0.110972
-0.155211
-0.018727
0.023127
0.032594
-0.306455
-0.209833
-0.077828
-0.068251
-0.059842
-0.040281
-0.030937
-0.035585
-0.212194
-0.178308
-0.177051
-0.474570
-0.479587
-0.484794
-0.488722
-0.236553
-0.256484
-0.275012
0.002602
0.021815
0.033949
0.030634
-0.117699
-0.128526
-0.107072
-0.043091
-0.070286
-0.076447
-0.390987
-0.395643
-0.401597
-0.075298
-0.119076
-0.112695
-0.031355
-0.142555
-0.117215
-0.149027
-0.127823
-0.056350
-0.058440
-0.396137
-0.365628
-0.357620
-0.396327
-0.529757
-0.511513
-0.524348
-0.460114
-0.478344
-0.457858
-0.076603
-0.073780
-0.348383
0.104518
0.105297
-0.504091
-0.498709
-0.492695
-0.187745
-0.574691
-0.547495
-0.541787
-0.523812
-0.424537
-0.393357
-0.398150
-0.399243
-0.389290
-0.332522
-0.317103
0.143832
0.135300
0.115489
0.168022
-0.510797
-0.502980
-0.495989
-0.223963
-0.288533
-0.204639
-0.139385
-0.129574
-0.083375
-0.061023
-0.189524
-0.282956
-0.351922
0.118040
0.055777
-0.325122
-0.412831
-0.406830
-0.262768
-0.297914
-0.295814
-0.407133
-0.356751
-0.347381
-0.320308
-0.306920
-0.308569
-0.349569
-0.383947
-0.056239
-0.057418
-0.090460
-0.088243
-0.077641
-0.100368
0.077096
0.073500
0.064286
-0.683539
-0.686574
-0.662774
-0.618008
-0.595522
-0.612058
-0.598506
-0.238028
-0.260139
-0.252329
-0.266991
-0.375352
-0.386030
-0.375943
-0.389842
-0.361988
-0.371568
-0.360941
-0.448786
-0.456794
-0.444962
-0.449275
-0.448638
-0.455027
-0.452491
-0.424019
-0.027631
-0.056307
-0.056686
0.049042
0.035533
0.041897
0.041146
0.211105
0.186616
0.198057
0.229559
0.234057
-0.331873
-0.351421
-0.397061
0.085940
0.087611
0.041709
-0.431097
-0.425843
-0.435685
-0.283123
-0.255348
-0.412020
-0.263550
-0.290269
-0.298211
0.017103
0.024358
0.017072
0.088405
0.092832
0.094479
-0.077488
-0.076154
-0.294529
0.099389
-0.548922
-0.525901
-0.571219
-0.544863
-0.568296
0.023253
0.030833
0.067540
0.074608
0.067993
0.075641
0.067113
-0.655483
-0.236077
-0.212130
-0.230770
-0.221215
-0.449893
-0.490589
-0.423045
0.088460
0.105509
0.118002
-0.065310
0.057704
-0.084532
0.079650
0.080948
-0.230988
-0.211688
-0.215468
-0.487533
-0.476756
-0.478531
-0.305481
-0.316176
-0.653017
0.085745
0.093259
0.088315
-0.006395
-0.007356
-0.340765
-0.333277
-0.320853
-0.001922
0.097272
-0.511196
-0.520272
-0.521078
-0.443460
-0.417568
-0.422245
0.019460
0.066361
0.038523
0.058858
-0.014779
0.048662
0.037675
-0.375059
-0.297220
-0.325936
-0.048527
-0.040116
-0.524701
-0.515108
-0.511322
-0.044659
0.003535
-0.002990
-0.004606
-0.527255
-0.542292
-0.536091
-0.187307
-0.241675
-0.154324
-0.089712
-0.101049
-0.117250
-0.534739
-0.487743
0.078762
-0.484476
-0.520950
0.073032
0.082936
0.092051
-0.512597
0.078893
0.062941
-0.385882
-0.381027
0.178847
0.193438
0.188113
-0.395267
0.058933
0.062342
0.135232
-0.436700
-0.437023
-0.431104
-0.304153
-0.303293
-0.101286
-0.443414
0.011024
0.019003
-0.441241
-0.326495
-0.336636
-0.324289
-0.337526
0.254826
0.227592
0.233790
0.079080
0.028768
0.004508
-0.365178
-0.352626
-0.339973
-0.064369
-0.051532
0.041794
-0.023765
-0.001058
0.017902
0.004699
-0.487121
-0.480628
-0.071218
-0.064770
-0.412857
0.126561
0.188797
0.114532
0.328093
0.198266
0.044490
0.053222
0.057206
-0.476086
0.022942
-0.027233
-0.022417
-0.018884
-0.276269
-0.363424
-0.332728
-0.323289
0.091282
-0.378781
-0.337187
-0.493557
-0.501621
-0.495237
-0.424656
-0.416993
-0.419760
-0.418795
0.178637
0.166524
0.188485
-0.411404
-0.012426
0.263509
0.134069
0.131142
0.038221
0.080149
0.031472
0.086228
0.071187
0.092449
-0.040271
-0.386067
-0.240232
-0.417138
-0.427273
-0.526693
-0.547331
-0.015120
-0.005969
-0.144424
-0.180192
0.063065
-0.213901
-0.635385
-0.232647
-0.507939
-0.505191
-0.485560
-0.242559
0.178665
0.170397
0.165686
0.161671
-0.014726
-0.023961
-0.299505
-0.296132
-0.285964
0.158108
0.158867
0.152176
0.150487
0.194634
0.205364
-0.499448
-0.499839
0.247275
-0.656703
-0.608049
-0.635009
0.212270
0.203454
0.179723
-0.296333
-0.313617
-0.286098
0.226723
0.260179
0.162892
0.119579
0.140607
0.094140
-0.326451
0.049507
0.043082
0.036578
0.200322
0.232798
0.226517
-0.546872
-0.573981
-0.585855
0.255209
-0.346542
-0.321818
-0.395616
-0.479113
-0.444091
-0.553563
0.039141
0.027201
0.067029
0.329423
0.331846
0.359604
0.304392
0.268554
0.327942
0.313321
-0.265928
-0.260042
-0.643067
-0.614925
-0.598091
-0.273882
0.055019
-0.024290
-0.619119
-0.608738
-0.635179
-0.532874
-0.530122
-0.662646
0.045282
-0.014822
-0.444892
-0.016415
-0.435234
-0.409696
-0.409164
0.335660
0.358711
-0.168372
-0.180001
-0.144167
-0.046607
-0.082440
-0.023972
-0.096649
-0.139501
-0.057642
-0.053596
-0.060124
-0.347859
-0.436859
-0.461355
-0.357152
-0.522995
-0.535237
-0.531730
-0.677114
-0.673117
-0.018435
-0.027668
-0.017314
-0.028935
-0.034050
-0.248843
-0.234582
-0.240886
-0.647020
-0.008510
-0.018484
-0.296322
-0.318609
-0.317356
0.350885
0.321016
-0.547736
0.221977
0.210794
0.205170
0.229416
-0.614971
-0.608307
-0.594627
0.243923
-0.003224
0.302140
-0.159417
0.000316
-0.025564
-0.031558
-0.324154
0.011122
-0.007621
-0.261552
-0.250552
-0.244002
0.095085
0.015277
-0.077741
-0.383485
-0.384023
-0.217936
-0.332095
0.096380
0.113647
0.092138
0.125105
-0.494638
-0.496770
-0.414193
-0.316977
-0.024717
-0.037336
0.039583
0.031698
0.024250
-0.036124
-0.054474
-0.593351
-0.570975
-0.588290
-0.575624
-0.334803
-0.597739
-0.593773
-0.617294
-0.580115
-0.581467
-0.366816
-0.355642
-0.412144
-0.390417
-0.362863
-0.102344
-0.079947
-0.282316
-0.261980
-0.637786
-0.674831
-0.618753
0.039386
0.032819
0.037022
-0.385565
-0.396319
-0.024023
-0.031375
-0.563669
-0.576725
-0.559318
-0.481803
-0.474840
-0.470122
-0.196860
-0.234046
-0.558317
0.044876
0.034855
0.023318
-0.476102
-0.477720
-0.465357
-0.488472
-0.486025
-0.594526
0.132702
0.111794
-0.511578
-0.516524
-0.529212
-0.533819
0.023385
0.011791
-0.472209
0.220861
-0.065778
-0.035765
0.015928
0.013949
0.001099
-0.322434
0.000465
-0.457314
-0.397199
-0.389525
-0.403293
-0.407082
-0.505396
-0.515030
-0.522919
-0.009243
-0.015605
-0.535875
0.058286
0.144208
0.141593
-0.667823
-0.638141
-0.646632
-0.312325
-0.324666
-0.325523
-0.510561
0.301862
0.324201
0.296260
0.277310
0.273524
-0.551541
-0.546725
-0.489392
-0.495820
-0.499078
-0.116685
0.071998
-0.010893
0.183770
-0.548094
-0.559588
-0.470788
-0.478500
-0.452340
-0.517977
-0.581084
-0.468016
0.029889
0.029590
0.034389
-0.418461
-0.403941
-0.429521
0.180634
0.181943
0.192986
-0.335219
0.264362
0.252245
-0.592005
-0.317690
-0.003473
-0.639889
-0.674362
-0.290973
-0.310384
0.127427
0.122841
0.120315
-0.076055
-0.068893
0.134490
-0.066369
0.140205
-0.526307
-0.555913
0.182947
0.199214
0.147775
0.048993
-0.064183
0.244653
0.201066
0.274502
0.161100
-0.260544
-0.268748
-0.255642
-0.262999
0.053427
-0.253758
-0.270709
0.053905
-0.521744
-0.475924
-0.501451
-0.377510
-0.371909
0.030890
0.044975
-0.364274
-0.371013
-0.373458
0.045360
0.040070
0.046291
-0.415090
-0.407805
-0.404437
-0.496915
0.208312
0.219473
0.231371
-0.513506
-0.529548
-0.541770
-0.027538
-0.034343
-0.039490
-0.545793
-0.355396
-0.047126
-0.339950
-0.248984
-0.577313
-0.571487
0.292434
0.037695
0.178867
0.157903
-0.401732
-0.410378
-0.191088
-0.201693
-0.024942
-0.611079
-0.200497
-0.467770
-0.556291
-0.537241
-0.459919
-0.461767
-0.465404
0.156937
0.152588
0.154192
0.167993
0.051987
0.063613
0.049509
0.070388
-0.493037
-0.375410
-0.380414
-0.508580
-0.352623
-0.127458
-0.132562
-0.177693
0.224934
0.146033
0.096636
0.012034
-0.177934
-0.244639
-0.512432
-0.505003
-0.495394
-0.558338
-0.151941
-0.070887
-0.122515
-0.241145
-0.132510
0.026487
0.019854
-0.008833
-0.041660
-0.032007
-0.032467
0.129644
0.054430
0.040565
0.032209
-0.190405
0.067463
-0.061096
-0.046185
0.251736
-0.441840
-0.459417
-0.447210
-0.450836
-0.484114
0.228889
0.176343
0.187752
0.161993
0.152297
0.141812
-0.539284
-0.020763
0.014418
0.025996
0.023067
0.005507
0.010885
0.012392
0.309753
0.333809
0.205613
-0.480250
-0.474917
-0.271704
-0.282350
0.131865
0.191128
0.169359
0.173001
-0.460425
-0.456035
-0.147176
-0.160824
-0.276300
-0.502626
-0.493822
-0.192452
-0.509903
0.087196
0.087578
0.082536
-0.203648
-0.194184
0.147988
0.139831
-0.427144
-0.435594
-0.416013
-0.423648
-0.421236
-0.430744
0.064927
0.056803
-0.581635
0.062232
0.081517
0.093636
0.279544
0.275081
0.064110
-0.167236
-0.157932
-0.182644
-0.257352
-0.328722
-0.096724
-0.118150
-0.132005
-0.460364
-0.462103
0.194363
0.086607
0.069525
0.069977
-0.144477
-0.275406
-0.289746
-0.294874
0.083439
0.084634
0.045102
-0.453418
-0.450247
-0.413578
-0.209560
-0.070100
-0.055154
-0.050785
-0.179629
-0.080505
-0.070215
-0.052005
-0.307931
-0.183573
-0.035568
0.192211
0.207951
0.207018
0.150438
0.192710
0.253251
-0.473143
-0.263216
-0.351145
-0.371800
-0.364112
-0.351054
-0.371601
-0.361153
0.034426
0.121079
-0.111591
-0.198191
-0.187296
0.164083
0.165778
0.111910
0.108280
0.101274
-0.352805
-0.408260
-0.190169
0.037679
-0.487576
0.173892
0.171438
0.141753
0.127908
-0.482855
-0.619286
-0.495694
0.154465
0.150254
0.083136
0.068610
0.074853
0.081699
0.150612
0.267853
-0.192368
0.095905
0.035997
0.070257
-0.043114
-0.343717
-0.314826
0.279823
0.018260
-0.333742
0.115678
0.144709
-0.277987
-0.296773
-0.336238
-0.350810
-0.338179
-0.402350
0.117716
0.110433
-0.102677
-0.147123
-0.133722
-0.404963
-0.369153
-0.648073
0.117343
0.117246
0.110924
0.116337
0.122159
-0.454918
0.071336
-0.401559
-0.229405
-0.404042
-0.476740
-0.327402
-0.278863
-0.283711
-0.351463
-0.015538
-0.427315
-0.572957
-0.046946
-0.213038
-0.236235
-0.413809
-0.407336
-0.323798
0.106981
0.003166
0.002279
-0.338294
-0.288862
0.099878
0.092932
-0.434934
-0.446127
-0.444419
0.055465
-0.368682
0.158344
0.147331
-0.004728
-0.341344
-0.352060
-0.355515
-0.391470
-0.386643
-0.095240
-0.208104
0.260137
0.278138
0.055508
-0.106722
-0.003207
-0.078984
-0.084629
0.089858
-0.069545
-0.103581
0.246185
-0.245728
-0.453250
-0.452135
0.137080
0.031196
0.038625
0.286413
0.042876
-0.003506
-0.059286
-0.562595
-0.558515
-0.255750
-0.269391
-0.445455
-0.460763
-0.447339
0.294597
-0.461885
-0.304016
-0.381842
0.161768
-0.306799
-0.123046
-0.118228
-0.398546
-0.032493
-0.045023
0.064880
-0.341111
-0.362435
0.101062
0.107988
0.116857
0.118806
0.110765
0.030177
-0.610286
-0.289136
-0.347851
-0.301701
-0.108498
-0.220208
-0.227981
0.052137
0.060372
-0.249195
-0.122683
0.013109
0.011572
0.079700
-0.028917
-0.023330
-0.020651
-0.015252
-0.365801
-0.415070
-0.379222
0.128416
0.125527
0.135590
-0.372824
-0.373317
-0.028322
-0.437477
-0.438768
0.013343
0.020436
0.147726
0.006600
-0.437039
-0.480324
-0.469037
-0.411288
-0.013112
-0.373552
-0.048234
-0.055578
-0.544810
-0.554187
0.010323
-0.074231
-0.000574
-0.377276
0.024038
-0.000877
0.019277
-0.467460
-0.467447
0.055932
-0.404760
-0.469812
-0.544617
-0.550358
-0.480301
-0.380469
-0.336160
-0.317843
0.095594
0.101966
0.101842
-0.427701
-0.417522
-0.048619
-0.051640
-0.439101
-0.437089
-0.449097
-0.274642
-0.265784
-0.381681
-0.429978
0.142203
0.136517
-0.023203
-0.448533
-0.449180
-0.467266
-0.452509
-0.447483
-0.030904
-0.024332
0.089190
0.042124
-0.384471
-0.376028
-0.386005
-0.182719
-0.164494
0.013637
0.010527
-0.443288
0.016865
0.016913
-0.300176
-0.327330
-0.000468
-0.009041
-0.386120
-0.362967
-0.063409
0.052215
0.050489
0.111773
-0.441709
0.110266
-0.055371
0.205950
0.204225
-0.467914
-0.465732
-0.247576
-0.242012
-0.282934
-0.288698
0.046323
0.134662
0.021529
-0.328009
0.106009
-0.479929
0.151368
0.118582
0.121585
-0.481981
0.131931
0.089024
0.006852
0.083195
0.076918
-0.160220
0.094282
-0.600707
-0.578498
-0.572440
-0.513887
0.213491
0.096349
0.106958
0.094900
0.010915
-0.565397
0.234253
-0.480604
-0.445909
-0.435213
-0.020672
0.006106
-0.012594
0.100618
0.037651
-0.347655
-0.339370
-0.614774
-0.043265
0.035446
0.079163
-0.655821
-0.651401
-0.340233
0.042267
0.099247
0.045864
-0.003440
0.066201
-0.051205
-0.116084
-0.440089
-0.046088
-0.463956
-0.118526
0.081439
0.112586
0.097445
0.072433
0.190725
0.066245
-0.445254
-0.423742
-0.419620
0.253415
0.242147
0.012767
0.086751
-0.381040
-0.391976
-0.394436
0.029309
0.036024
0.030708
0.033758
-0.347854
-0.031511
0.167383
0.100367
-0.393677
-0.362576
-0.577306
-0.141548
0.084971
0.198631
0.188369
-0.429979
-0.446840
-0.550865
0.173761
0.165723
-0.389842
-0.287072
0.000025
-0.009867
-0.464213
-0.007493
-0.199017
-0.338114
0.179757
0.227018
-0.037118
-0.071076
-0.099903
-0.590396
-0.091851
-0.015908
-0.009994
-0.458134
0.299381
-0.552888
0.025754
0.025096
-0.543543
0.159097
0.100209
0.069085
-0.313725
0.076799
0.016180
-0.375053
0.152271
-0.364379
-0.016380
-0.026211
0.020678
-0.293894
0.063923
-0.349745
-0.134369
-0.040962
-0.038253
-0.362134
0.262015
0.137198
-0.418949
-0.416826
-0.071787
-0.001556
-0.640617
-0.671523
-0.665600
-0.380529
-0.451782
0.061552
-0.427618
0.057301
0.140365
0.138178
-0.227837
-0.416889
-0.439426
-0.366182
0.206055
0.191997
0.063258
0.059251
-0.278050
-0.339184
-0.485180
-0.492557
0.072527
-0.440250
-0.154011
-0.162197
-0.442941
-0.520177
0.099506
0.079561
0.107259
0.114237
-0.182402
0.188843
0.152782
-0.095977
-0.407722
-0.420982
0.118360
0.095275
-0.405986
0.094391
-0.081694
-0.463158
0.143401
-0.290606
-0.498090
0.123832
0.128758
-0.298604
-0.294610
-0.417567
-0.457729
0.122273
0.125652
0.129578
-0.071981
0.061851
-0.154433
-0.375955
-0.497003
-0.057693
0.053876
-0.377093
-0.434665
0.061470
0.126501
-0.010876
0.016664
-0.012593
0.184840
0.260573
-0.255396
-0.252305
-0.301154
-0.494205
0.128401
-0.411279
-0.083557
-0.082797
-0.188865
0.032989
-0.433007
0.110835
-0.418880
-0.176400
0.125562
-0.391761
-0.308072
-0.321333
-0.436463
-0.273524
-0.245769
-0.427745
0.119173
-0.367918
-0.224079
-0.057757
-0.122181
-0.050400
-0.273031
-0.267209
0.059304
-0.414811
-0.422095
-0.095692
-0.194293
-0.060695
-0.286842
-0.352639
-0.284666
-0.364230
-0.272623
-0.080664
-0.351103
-0.263045
-0.125181
-0.182398
-0.397984
0.124735
0.060037
-0.247979
-0.396173
-0.381845
-0.099995
0.016188
0.029613
-0.271428
-0.025552
-0.384755
-0.428698
-0.037690
0.068446
0.087292
0.103850
0.141259
-0.433826
0.047914
-0.410885
-0.259138
-0.417675
0.097191
-0.150702
0.073132
-0.442551
0.038548
0.024994
0.019173
-0.467686
-0.024363
-0.294965
-0.344381
-0.207213
-0.156557
-0.438982
-0.008462
0.094678
-0.306848
-0.375985
-0.045892
SCALARS UY float 1
LOOKUP_TABLE default
-0.000008
-0.000008
-1.649996
-1.649998
-0.478162
-1.140069
-0.000001
-0.000003
-0.000002
-0.000002
-0.000002
-0.000002
-0.000002
-0.000002
-0.000002
-0.000002
-0.000002
-0.000002
-0.000002
-0.000002
-0.000003
-0.000002
-0.116327
-0.205037
-0.288402
-0.368507
-0.447217
-0.526751
-0.606550
-0.685114
-0.762734
-0.836240
-0.908127
-0.979966
-1.058408
-1.166058
-1.304482
-1.469100
-1.649998
-1.649997
-1.649998
-1.649997
-1.649998
-1.649998
-1.649998
-1.649998
-1.649998
-1.649998
-1.649998
-1.649997
-1.649997
-1.649997
-1.649997
-1.649997
-1.564943
-1.480409
-1.396614
-1.314169
-1.234564
-1.158533
-1.086662
-1.019014
-0.953556
-0.889097
-0.824068
-0.760386
-0.681997
-0.594414
-0.422668
-0.183543
-0.486171
-0.490250
-0.498783
-0.502835
-0.510271
-0.516285
-0.526446
-0.533064
-0.537314
-0.543487
-0.546836
-0.560507
-0.571085
-0.573855
-0.587279
-0.594916
-0.600181
-0.609144
-0.618554
-0.630607
-0.638646
-0.645271
-0.650436
-0.662254
-0.673073
-0.670956
-0.683867
-0.695794
-0.698888
-0.712263
-0.721031
-0.732782
-0.747258
-0.745739
-0.756843
-0.760254
-0.764082
-0.777128
-0.776088
-0.789059
-0.794062
-0.805696
-0.810253
-0.835761
-0.840753
-0.851523
-0.864331
-0.877324
-0.889024
-0.900221
-0.916578
-0.926691
-0.931053
-0.948414
-0.957684
-0.966709
-1.000222
-1.007605
-1.021339
-1.028416
-1.044414
-1.070631
-1.080680
-1.085276
-1.105197
-1.128442
-0.075184
-0.039211
-0.084451
-1.012987
-1.041519
-1.053252
-0.044383
-0.541666
-0.544419
-0.511374
-0.183526
-0.196760
-0.208583
-0.225084
-0.453399
-0.429936
-0.442474
-0.996196
-0.994148
-1.007186
-0.715289
-0.747164
-0.722778
-0.812059
-0.817368
-0.857172
-1.001439
-0.508168
-0.483596
-1.154887
-1.170802
-1.151182
-1.170173
-1.123412
-1.144066
-1.142516
-0.031994
-0.078675
-0.040443
-1.587501
-1.535910
-1.529617
-0.776572
-0.768811
-1.486588
-0.734109
-0.751316
-0.773324
-0.769863
-0.999719
-0.989265
-1.000205
-0.403585
-0.387104
-0.388408
-0.983243
-0.527691
-0.542854
-0.577072
-0.846007
-0.827824
-0.840001
-0.068794
-0.709739
-0.671859
-0.673694
-0.077612
-0.057555
-0.640717
-0.099423
-0.617926
-0.637384
-0.583506
-0.535491
-0.533921
-0.519233
-0.853832
-0.843887
-0.827989
-0.518707
-0.871412
-0.231888
-0.244991
-0.225401
-0.260196
-0.613622
-0.600395
-0.600992
-0.586310
-0.853950
-0.830946
-0.869646
-0.551943
-0.944837
-0.905177
-0.901550
-0.959337