# vtk DataFile Version 2.0
Test
ASCII
DATASET POLYDATA
POINTS 3011 float
0.000000 0.000000 0.000000
2.000000 0.000000 0.000000
2.000000 4.000000 0.000000
0.000000 4.000000 0.000000
0.000000 0.500000 0.000000
1.500000 2.000000 0.000000
2.000000 2.500000 0.000000
0.285714 0.000000 0.000000
0.571429 0.000000 0.000000
0.857143 0.000000 0.000000
1.142857 0.000000 0.000000
1.428571 0.000000 0.000000
1.714286 0.000000 0.000000
2.000000 0.276366 0.000000
2.000000 0.523709 0.000000
2.000000 0.745076 0.000000
2.000000 0.943195 0.000000
2.000000 1.120508 0.000000
2.000000 1.279199 0.000000
2.000000 1.421225 0.000000
2.000000 1.548336 0.000000
2.000000 1.662097 0.000000
2.000000 1.763911 0.000000
2.000000 1.855033 0.000000
2.000000 1.936585 0.000000
2.000000 2.009573 0.000000
2.000000 2.074896 0.000000
2.000000 2.133358 0.000000
2.000000 2.185681 0.000000
2.000000 2.232509 0.000000
2.000000 2.274419 0.000000
2.000000 2.311927 0.000000
2.000000 2.345497 0.000000
2.000000 2.375541 0.000000
2.000000 2.402430 0.000000
2.000000 2.426495 0.000000
2.000000 2.448033 0.000000
2.000000 2.467309 0.000000
2.000000 2.484560 0.000000
2.000000 2.516256 0.000000
2.000000 2.535859 0.000000
2.000000 2.559499 0.000000
2.000000 2.588006 0.000000
2.000000 2.622383 0.000000
2.000000 2.663839 0.000000
2.000000 2.713831 0.000000
2.000000 2.774116 0.000000
2.000000 2.846815 0.000000
2.000000 2.934483 0.000000
2.000000 3.040202 0.000000
2.000000 3.167691 0.000000
2.000000 3.321430 0.000000
2.000000 3.506825 0.000000
2.000000 3.730395 0.000000
1.714286 4.000000 0.000000
1.428571 4.000000 0.000000
1.142857 4.000000 0.000000
0.857143 4.000000 0.000000
0.571429 4.000000 0.000000
0.285714 4.000000 0.000000
0.000000 3.713462 0.000000
0.000000 3.449209 0.000000
0.000000 3.205508 0.000000
0.000000 2.980761 0.000000
0.000000 2.773493 0.000000
0.000000 2.582346 0.000000
0.000000 2.406065 0.000000
0.000000 2.243495 0.000000
0.000000 2.093568 0.000000
0.000000 1.955302 0.000000
0.000000 1.827789 0.000000
0.000000 1.710194 0.000000
0.000000 1.601745 0.000000
0.000000 1.501730 0.000000
0.000000 1.409494 0.000000
0.000000 1.324431 0.000000
0.000000 1.245984 0.000000
0.000000 1.173639 0.000000
0.000000 1.106920 0.000000
0.000000 1.045390 0.000000
0.000000 0.988645 0.000000
0.000000 0.936314 0.000000
0.000000 0.888053 0.000000
0.000000 0.843545 0.000000
0.000000 0.802499 0.000000
0.000000 0.764646 0.000000
0.000000 0.729736 0.000000
0.000000 0.697541 0.000000
0.000000 0.667851 0.000000
0.000000 0.640469 0.000000
0.000000 0.615217 0.000000
0.000000 0.591929 0.000000
0.000000 0.570453 0.000000
0.000000 0.550646 0.000000
0.000000 0.532380 0.000000
0.000000 0.515535 0.000000
0.000000 0.483768 0.000000
0.000000 0.461535 0.000000
0.000000 0.431083 0.000000
0.000000 0.389372 0.000000
0.000000 0.332241 0.000000
0.000000 0.253989 0.000000
0.000000 0.146807 0.000000
0.010563 0.510563 0.000000
0.021127 0.521127 0.000000
0.031690 0.531690 0.000000
0.042254 0.542254 0.000000
0.052817 0.552817 0.000000
0.063380 0.563380 0.000000
0.073944 0.573944 0.000000
0.084507 0.584507 0.000000
0.095070 0.595070 0.000000
0.105634 0.605634 0.000000
0.116197 0.616197 0.000000
0.126761 0.626761 0.000000
0.137324 0.637324 0.000000
0.147887 0.647887 0.000000
0.158451 0.658451 0.000000
0.169014 0.669014 0.000000
0.179577 0.679577 0.000000
0.190141 0.690141 0.000000
0.200704 0.700704 0.000000
0.211268 0.711268 0.000000
0.221831 0.721831 0.000000
0.232394 0.732394 0.000000
0.242958 0.742958 0.000000
0.253521 0.753521 0.000000
0.264085 0.764085 0.000000
0.274648 0.774648 0.000000
0.285211 0.785211 0.000000
0.295775 0.795775 0.000000
0.306338 0.806338 0.000000
0.316901 0.816901 0.000000
0.327465 0.827465 0.000000
0.338028 0.838028 0.000000
0.348592 0.848592 0.000000
0.359155 0.859155 0.000000
0.369718 0.869718 0.000000
0.380282 0.880282 0.000000
0.390845 0.890845 0.000000
0.401408 0.901408 0.000000
0.411972 0.911972 0.000000
0.422535 0.922535 0.000000
0.433099 0.933099 0.000000
0.443662 0.943662 0.000000
0.454225 0.954225 0.000000
0.464789 0.964789 0.000000
0.475352 0.975352 0.000000
0.485915 0.985915 0.000000
0.496479 0.996479 0.000000
0.507042 1.007042 0.000000
0.517606 1.017606 0.000000
0.528169 1.028169 0.000000
0.538732 1.038732 0.000000
0.549296 1.049296 0.000000
0.559859 1.059859 0.000000
0.570423 1.070423 0.000000
0.580986 1.080986 0.000000
0.591549 1.091549 0.000000
0.602113 1.102113 0.000000
0.612676 1.112676 0.000000
0.623239 1.123239 0.000000
0.633803 1.133803 0.000000
0.644366 1.144366 0.000000
0.654930 1.154930 0.000000
0.665493 1.165493 0.000000
0.676056 1.176056 0.000000
0.686620 1.186620 0.000000
0.697183 1.197183 0.000000
0.707746 1.207746 0.000000
0.718310 1.218310 0.000000
0.728873 1.228873 0.000000
0.739437 1.239437 0.000000
0.750000 1.250000 0.000000
0.760563 1.260563 0.000000
0.771127 1.271127 0.000000
0.781690 1.281690 0.000000
0.792254 1.292254 0.000000
0.802817 1.302817 0.000000
0.813380 1.313380 0.000000
0.823944 1.323944 0.000000
0.834507 1.334507 0.000000
0.845070 1.345070 0.000000
0.855634 1.355634 0.000000
0.866197 1.366197 0.000000
0.876761 1.376761 0.000000
0.887324 1.387324 0.000000
0.897887 1.397887 0.000000
0.908451 1.408451 0.000000
0.919014 1.419014 0.000000
0.929577 1.429577 0.000000
0.940141 1.440141 0.000000
0.950704 1.450704 0.000000
0.961268 1.461268 0.000000
0.971831 1.471831 0.000000
0.982394 1.482394 0.000000
0.992958 1.492958 0.000000
1.003521 1.503521 0.000000
1.014085 1.514085 0.000000
1.024648 1.524648 0.000000
1.035211 1.535211 0.000000
1.045775 1.545775 0.000000
1.056338 1.556338 0.000000
1.066901 1.566901 0.000000
1.077465 1.577465 0.000000
1.088028 1.588028 0.000000
1.098592 1.598592 0.000000
1.109155 1.609155 0.000000
1.119718 1.619718 0.000000
1.130282 1.630282 0.000000
1.140845 1.640845 0.000000
1.151408 1.651408 0.000000
1.161972 1.661972 0.000000
1.172535 1.672535 0.000000
1.183099 1.683099 0.000000
1.193662 1.693662 0.000000
1.204225 1.704225 0.000000
1.214789 1.714789 0.000000
1.225352 1.725352 0.000000
1.235915 1.735915 0.000000
1.246479 1.746479 0.000000
1.257042 1.757042 0.000000
1.267606 1.767606 0.000000
1.278169 1.778169 0.000000
1.288732 1.788732 0.000000
1.299296 1.799296 0.000000
1.309859 1.809859 0.000000
1.320423 1.820423 0.000000
1.330986 1.830986 0.000000
1.341549 1.841549 0.000000
1.352113 1.852113 0.000000
1.362676 1.862676 0.000000
1.373239 1.873239 0.000000
1.383803 1.883803 0.000000
1.394366 1.894366 0.000000
1.404930 1.904930 0.000000
1.415493 1.915493 0.000000
1.426056 1.926056 0.000000
1.436620 1.936620 0.000000
1.447183 1.947183 0.000000
1.457746 1.957746 0.000000
1.468310 1.968310 0.000000
1.478873 1.978873 0.000000
1.489437 1.989437 0.000000
1.510417 2.010417 0.000000
1.520833 2.020833 0.000000
1.531250 2.031250 0.000000
1.541667 2.041667 0.000000
1.552083 2.052083 0.000000
1.562500 2.062500 0.000000
1.572917 2.072917 0.000000
1.583333 2.083333 0.000000
1.593750 2.093750 0.000000
1.604167 2.104167 0.000000
1.614583 2.114583 0.000000
1.625000 2.125000 0.000000
1.635417 2.135417 0.000000
1.645833 2.145833 0.000000
1.656250 2.156250 0.000000
1.666667 2.166667 0.000000
1.677083 2.177083 0.000000
1.687500 2.187500 0.000000
1.697917 2.197917 0.000000
1.708333 2.208333 0.000000
1.718750 2.218750 0.000000
1.729167 2.229167 0.000000
1.739583 2.239583 0.000000
1.750000 2.250000 0.000000
1.760417 2.260417 0.000000
1.770833 2.270833 0.000000
1.781250 2.281250 0.000000
1.791667 2.291667 0.000000
1.802083 2.302083 0.000000
1.812500 2.312500 0.000000
1.822917 2.322917 0.000000
1.833333 2.333333 0.000000
1.843750 2.343750 0.000000
1.854167 2.354167 0.000000
1.864583 2.364583 0.000000
1.875000 2.375000 0.000000
1.885417 2.385417 0.000000
1.895833 2.395833 0.000000
1.906250 2.406250 0.000000
1.916667 2.416667 0.000000
1.927083 2.427083 0.000000
1.937500 2.437500 0.000000
1.947917 2.447917 0.000000
1.958333 2.458333 0.000000
1.968750 2.468750 0.000000
1.979167 2.479167 0.000000
1.989583 2.489583 0.000000
0.206561 0.791563 0.000000
0.205359 0.816165 0.000000
0.186354 0.798211 0.000000
0.221961 0.800924 0.000000
0.280649 1.360489 0.000000
0.304015 1.400469 0.000000
0.229142 1.396096 0.000000
0.275922 1.451476 0.000000
1.869084 2.391788 0.000000
1.857928 2.378421 0.000000
1.238669 2.061899 0.000000
1.278787 2.082276 0.000000
1.238298 2.096047 0.000000
1.277579 2.032995 0.000000
0.402536 1.205823 0.000000
0.415290 1.176040 0.000000
0.428330 1.201952 0.000000
0.387294 1.172617 0.000000
0.146930 1.050586 0.000000
0.109488 1.087198 0.000000
0.102742 1.042403 0.000000
0.157178 1.091184 0.000000
0.588967 1.178581 0.000000
0.593116 1.153718 0.000000
0.608054 1.166752 0.000000
0.612180 1.145944 0.000000
0.860304 1.543784 0.000000
0.868821 1.521840 0.000000
0.878420 1.536650 0.000000
0.845380 1.517623 0.000000
1.129525 1.764330 0.000000
1.142005 1.751560 0.000000
1.145757 1.773681 0.000000
1.159368 1.759106 0.000000
1.968150 2.518865 0.000000
1.986105 2.509269 0.000000
1.986696 2.531115 0.000000
0.668964 1.191005 0.000000
0.683291 1.201259 0.000000
0.557625 1.074830 0.000000
0.569760 1.084377 0.000000
0.557769 1.089278 0.000000
0.707567 1.266174 0.000000
0.719026 1.281845 0.000000
0.700768 1.282275 0.000000
0.722329 1.266956 0.000000
0.468225 2.149688 0.000000
0.419106 2.064198 0.000000
0.523878 2.082648 0.000000
0.838546 1.421191 0.000000
0.823708 1.410355 0.000000
0.840477 1.404206 0.000000
0.818500 1.425973 0.000000
0.953187 1.488222 0.000000
0.959780 1.473222 0.000000
0.967054 1.485637 0.000000
1.047418 1.769126 0.000000
1.080240 1.782403 0.000000
1.047768 1.802712 0.000000
0.971392 1.693320 0.000000
0.949208 1.720793 0.000000
0.940644 1.684781 0.000000
0.381391 2.160909 0.000000
0.944091 1.477800 0.000000
0.530075 1.477351 0.000000
0.521303 1.516669 0.000000
0.474240 1.491166 0.000000
0.489489 1.546185 0.000000
1.537370 2.239326 0.000000
1.555275 2.267640 0.000000
1.532966 2.278201 0.000000
0.962010 1.661716 0.000000
0.986804 1.643200 0.000000
0.986259 1.672729 0.000000
1.049149 1.737940 0.000000
1.075111 1.737123 0.000000
[...]
POINT_DATA 3011
SCALARS UX float 1
LOOKUP_TABLE default
-0.000000
0.000000
-0.234562
-0.311170
-0.070080
-0.150394
-0.170342
-0.000000
-0.000000
-0.000000
-0.000000
0.000000
0.000000
0.023093
0.033591
0.039564
0.042991
0.044715
0.045309
0.045059
0.043842
0.041603
0.038441
0.034458
0.030251
0.025221
0.020583
0.014652
0.006735
-0.006012
-0.020160
-0.039980
-0.061293
-0.085044
-0.106519
-0.124959
-0.140525
-0.152871
-0.162766
-0.176977
-0.183930
-0.191330
-0.197510
-0.204290
-0.210244
-0.214984
-0.219533
-0.223221
-0.226065
-0.228591
-0.230604
-0.232292
-0.233565
-0.234258
-0.248178
-0.260828
-0.272250
-0.282554
-0.292321
-0.301732
-0.310344
-0.308803
-0.306721
-0.304798
-0.303149
-0.301997
-0.301334
-0.301084
-0.301241
-0.301726
-0.302552
-0.303502
-0.304571
-0.305697
-0.306789
-0.307756
-0.308579
-0.309256
-0.309829
-0.310299
-0.310695
-0.311099
-0.311389
-0.311418
-0.311041
-0.310073
-0.308781
-0.306676
-0.303581
-0.300439
-0.296881
-0.293658
-0.292307
-0.282501
-0.158912
-0.195473
-0.053758
-0.045660
-0.035551
-0.031364
-0.026268
-0.020545
-0.013707
-0.067681
-0.058246
-0.078949
-0.066218
-0.065189
-0.064297
-0.062912
-0.114415
-0.135443
-0.124071
-0.093742
-0.094463
-0.086064
-0.089275
-0.082775
-0.084587
-0.080726
-0.077321
-0.079966
-0.102861
-0.112907
-0.094417
-0.116098
-0.134810
-0.121435
-0.120221
-0.120000
-0.186696
-0.183351
-0.173615
-0.183015
-0.185072
-0.186801
-0.137424
-0.137174
-0.137032
-0.135164
-0.132659
-0.132474
-0.130335
-0.129575
-0.129904
-0.130939
-0.131313
-0.129127
-0.130160
-0.135375
-0.131673
-0.131985
-0.127623
-0.115277
-0.115277
-0.117398
-0.112242
-0.113422
-0.116820
-0.113720
-0.113883
-0.118429
-0.137052
-0.145662
-0.143698
-0.144072
-0.144339
-0.139188
-0.124667
-0.124374
-0.121313
-0.131378
-0.121160
-0.121288
-0.125129
-0.120795
-0.122992
-0.127299
-0.130403
-0.131023
-0.129243
-0.129752
-0.132850
-0.131144
-0.128794
-0.132229
-0.130495
-0.131233
-0.131914
-0.130414
-0.127684
-0.124951
-0.147125
-0.147111
-0.146411
-0.145314
-0.145850
-0.143715
-0.149272
-0.148706
-0.147104
-0.148003
-0.146505
-0.148197
-0.145834
-0.143195
-0.143461
-0.140468
-0.137143
-0.132185
-0.135755
-0.137367
-0.137779
-0.138158
-0.137082
-0.140247
-0.142257
-0.139303
-0.140643
-0.140172
-0.139906
-0.144172
-0.145218
-0.144157
-0.144313
-0.143381
-0.147056
-0.146967
-0.145998
-0.147989
-0.148618
-0.151023
-0.151433
-0.152136
-0.152183
-0.152426
-0.153701
-0.152605
-0.150543
-0.147715
-0.145928
-0.148591
-0.155607
-0.153189
-0.148556
-0.149251
-0.149907
-0.150888
-0.151503
-0.152298
-0.153659
-0.154791
-0.155272
-0.155797
-0.155817
-0.156265
-0.156311
-0.156605
-0.157010
-0.157278
-0.157654
-0.157870
-0.157917
-0.158208
-0.158480
-0.158687
-0.158697
-0.158885
-0.158988
-0.159241
-0.159557
-0.159989
-0.160530
-0.161519
-0.162145
-0.162385
-0.162374
-0.162900
-0.163724
-0.164293
-0.164963
-0.165520
-0.165938
-0.166560
-0.166955
-0.167518
-0.168131
-0.168728
-0.169178
-0.169838
-0.170177
-0.286003
-0.292155
-0.293260
-0.283314
-0.297919
-0.296475
-0.299215
-0.296730
-0.174441
-0.172890
-0.240486
-0.236814
-0.240465
-0.236794
-0.294785
-0.294085
-0.293498
-0.295492
-0.305246
-0.306415
-0.306869
-0.304718
-0.276675
-0.268241
-0.266927
-0.241070
-0.266874
-0.265135
-0.264836
-0.267291
-0.246758
-0.243715
-0.244555
-0.241148
-0.188058
-0.179250
-0.186460
-0.224719
-0.206622
-0.202254
-0.191171
-0.237736
-0.259360
-0.260134
-0.267467
-0.251512
-0.281815
-0.284181
-0.279677
-0.259455
-0.260757
-0.253440
-0.264730
-0.222999
-0.180590
-0.191839
-0.255524
-0.253029
-0.255700
-0.261258
-0.262807
-0.263377
-0.285419
-0.220229
-0.286227
-0.286029
-0.288409
-0.286920
-0.217456
-0.217679
-0.221113
-0.261681
-0.259005
-0.259838
-0.254773
-0.252524
-0.253549
-0.213786
-0.252228
-0.225136
-0.193122
-0.199154
-0.218147
-0.231458
-0.227843
-0.230089
-0.224505
-0.228688
-0.227130
-0.284015
-0.284582
-0.282558
-0.287604
-0.284918
-0.285896
-0.282972
-0.283354
-0.299154
-0.297854
-0.299052
-0.298291
-0.255215
-0.257638
-0.254862
-0.259675
-0.287712
-0.288372
-0.285366
-0.212045
-0.211474
-0.216094
-0.290761
-0.302146
-0.303966
-0.303760
-0.280911
-0.279099
-0.278933
-0.277106
-0.305669
-0.296428
-0.293992
-0.298302
-0.198662
-0.189170
-0.191920
-0.259090
-0.257597
-0.255960
-0.293541
-0.292039
-0.253698
-0.273946
-0.273543
-0.275624
-0.272285
-0.205857
-0.211909
-0.212497
-0.269209
-0.269149
-0.270941
-0.203277
-0.248018
-0.207955
-0.228153
-0.286506
-0.285038
-0.283556
-0.307806
-0.307147
-0.282287
-0.268961
-0.269288
-0.266827
-0.308211
-0.266775
-0.255747
-0.252822
-0.304183
-0.303541
-0.302509
-0.247754
-0.224550
-0.218308
-0.258048
-0.272239
-0.170019
-0.165699
-0.177375
-0.243961
-0.246259
-0.246737
-0.248215
-0.246387
-0.249644
-0.231679
-0.243797
-0.245107
-0.250351
-0.271809
-0.282815
-0.279007
-0.265239
-0.268603
-0.266911
-0.265014
-0.266366
-0.306271
-0.305029
-0.307307
-0.269460
-0.277447
-0.191500
-0.250663
-0.170809
-0.181225
-0.181021
-0.267384
-0.263600
-0.248585
-0.255584
-0.214268
-0.216664
-0.220699
-0.266221
-0.273737
-0.261996
-0.241023
-0.240125
-0.238438
-0.243934
-0.171226
-0.169864
-0.206770
-0.242083
-0.244988
-0.243974
-0.201291
-0.189752
-0.196490
-0.250663
-0.249531
-0.255505
-0.254572
-0.177931
-0.173608
-0.193482
-0.246190
-0.277852
-0.281292
-0.283003
-0.284755
-0.228672
-0.211172
-0.211357
-0.204460
-0.227479
-0.229425
-0.225210
-0.230892
-0.223292
-0.220795
-0.219139
-0.170731
-0.166752
-0.261445
-0.256802
-0.258971
-0.259738
-0.258949
-0.254273
-0.257663
-0.250377
-0.231953
-0.233822
-0.230483
-0.201272
-0.202745
-0.217549
-0.196952
-0.190271
-0.199428
-0.168073
-0.167790
-0.265121
-0.267601
-0.271328
-0.273267
-0.273221
-0.271207
-0.270250
-0.267543
-0.263775
-0.261210
-0.258870
-0.261093
-0.255581
-0.262481
-0.235191
-0.231218
-0.228739
-0.236364
-0.261279
-0.254950
-0.260452
-0.273073
-0.272373
-0.271182
-0.253278
-0.193714
-0.200317
-0.197481
-0.203989
-0.245475
-0.242055
-0.263423
-0.264560
-0.262491
-0.172984
-0.183978
-0.208077
-0.236954
-0.241850
-0.231821
-0.244621
-0.250130
-0.249870
-0.239516
-0.255470
-0.171421
-0.173365
-0.231634
-0.205583
-0.239766
-0.240727
-0.244879
-0.248117
-0.228760
-0.232892
-0.235713
-0.236910
-0.253115
-0.247491
-0.252574
-0.223050
-0.225144
-0.204967
-0.202795
-0.212271
-0.209619
-0.222042
-0.223647
-0.229620
-0.230307
-0.307747
-0.308163
-0.309272
-0.305959
-0.281526
-0.265926
-0.251560
-0.283568
-0.284772
-0.292178
-0.184015
-0.292883
-0.294224
-0.295550
-0.296249
-0.250274
-0.247442
-0.246760
-0.243808
-0.274691
-0.272442
-0.271450
-0.270081
-0.186927
-0.178617
-0.183161
-0.174093
-0.197725
-0.206222
-0.299778
-0.301392
-0.302811
-0.295007
-0.297906
-0.290020
-0.300030
-0.305286
-0.304381
-0.254360
-0.257319
-0.255772
-0.227080
-0.232200
-0.288681
-0.288643
-0.291083
-0.290527
-0.292566
-0.267210
-0.267039
-0.269153
-0.268749
-0.288120
-0.291476
-0.289796
-0.284237
-0.274852
-0.271245
-0.302445
-0.300556
-0.299715
-0.301612
-0.303547
-0.283767
-0.292220
-0.280663
-0.255385
-0.259422
-0.294573
-0.287270
-0.290761
-0.297398
-0.292868
-0.268184
-0.267378
-0.268388
-0.247707
-0.297067
-0.294946
-0.291357
-0.303779
-0.298983
-0.216251
-0.214317
-0.211021
-0.221401
-0.220405
-0.213371
-0.298097
-0.299294
-0.299632
-0.297236
-0.295034
-0.294144
-0.297300
-0.231896
-0.226138
-0.229937
-0.234304
-0.256800
-0.257395
-0.289359
-0.287054
-0.291098
-0.287804
-0.230713
-0.252464
-0.221110
-0.152623
-0.174180
-0.247851
-0.187755
-0.196884
-0.198622
-0.183822
-0.295375
-0.293755
-0.243368
-0.242540
-0.245825
-0.247383
-0.243868
-0.259708
-0.264885
-0.261639
-0.268593
-0.276982
-0.276941
-0.275288
-0.301229
-0.303587
-0.304012
-0.299757
-0.212449
-0.241964
-0.297905
-0.299488
-0.300945
-0.283409
-0.267288
-0.299165
-0.201101
-0.197319
-0.191838
-0.286194
-0.285497
-0.292909
-0.299842
-0.272613
-0.266832
-0.186727
-0.179738
-0.189404
-0.177893
-0.185548
-0.243493
-0.240359
-0.301955
-0.301597
-0.300610
-0.196145
-0.235751
-0.232618
-0.232695
-0.292788
-0.290948
-0.289902
-0.291978
-0.289062
-0.288162
-0.280937
-0.279016
-0.304997
-0.304186
-0.309973
-0.308566
-0.308273
-0.307025
-0.289613
-0.182849
-0.291854
-0.269754
-0.277419
-0.246272
-0.237996
-0.216476
-0.222959
-0.283975
-0.297493
-0.286237
-0.177082
-0.288620
-0.213011
-0.211945
-0.218679
-0.295772
-0.296517
-0.289832
-0.267907
-0.263807
-0.264409
-0.260438
-0.260777
-0.298212
-0.297680
-0.301713
-0.302303
-0.230699
-0.235136
-0.290527
-0.284830
-0.284567
-0.278092
-0.289444
-0.288953
-0.290867
-0.288547
-0.290607
-0.292151
-0.290314
-0.289573
-0.291780
-0.256741
-0.277608
-0.206343
-0.206627
-0.296266
-0.295359
-0.297155
-0.297006
-0.298727
-0.163399
-0.166850
-0.178245
-0.285139
-0.286005
-0.295030
-0.296677
-0.284784
-0.282927
-0.248750
-0.252685
-0.251930
-0.249252
-0.189088
-0.284199
-0.267814
-0.269186
-0.264250
-0.195036
-0.172264
-0.182333
-0.181577
-0.190593
-0.265423
-0.265808
-0.262619
-0.262161
-0.259530
-0.259352
-0.224058
-0.218678
-0.203900
-0.206215
-0.260461
-0.257701
-0.205969
-0.205220
-0.181733
-0.293880
-0.297006
-0.267239
-0.237119
-0.228500
-0.269676
-0.280995
-0.236912
-0.193075
-0.306119
-0.234179
-0.251053
-0.253172
-0.173419
-0.180702
-0.196537
-0.306328
-0.301377
-0.301454
-0.303705
-0.251813
-0.253323
-0.254830
-0.252998
-0.190322
-0.303269
-0.302925
-0.301408
-0.299719
-0.238303
-0.239385
-0.242152
-0.240728
-0.171991
-0.308863
-0.308288
-0.306465
-0.278996
-0.302898
-0.287097
-0.290472
-0.284903
-0.288050
-0.294136
-0.251232
-0.282442
-0.253935
-0.256336
-0.258727
-0.251409
-0.266709
-0.270674
-0.258311
-0.258527
-0.272019
-0.179394
-0.257865
-0.265413
-0.263825
-0.297903
-0.300793
-0.294718
-0.307561
-0.305188
-0.278838
-0.271504
-0.276346
-0.273778
-0.298247
-0.217994
-0.246086
-0.240403
-0.276997
-0.278373
-0.275550
-0.300658
-0.300406
-0.302236
-0.275242
-0.275874
-0.285239
-0.285022
-0.275666
-0.274142
-0.273514
-0.271805
-0.271303
-0.247164
-0.250236
-0.257115
-0.263535
-0.264924
-0.262750
-0.252849
-0.244607
-0.251824
-0.254089
-0.255892
-0.257746
-0.297493
-0.291625
-0.292100
-0.286894
-0.257829
-0.268561
-0.279466
-0.293336
-0.178909
-0.299212
-0.299802
-0.301166
-0.300334
-0.282367
-0.284570
-0.280606
-0.282251
-0.280296
-0.308899
-0.297826
-0.296459
-0.307154
-0.167130
-0.172832
-0.284884
-0.300699
-0.168342
-0.220697
-0.288592
-0.292489
-0.289336
-0.246335
-0.293797
-0.303644
-0.306590
-0.309782
-0.306400
-0.183841
-0.302706
-0.265068
-0.275684
-0.266781
-0.271296
-0.296600
-0.176082
-0.224358
-0.241838
-0.254448
-0.238983
-0.217483
-0.222996
-0.222286
-0.172600
-0.180771
-0.170909
-0.231119
-0.259688
-0.267132
-0.282334
-0.218320
-0.245838
-0.248966
-0.252757
-0.256809
-0.296901
-0.297547
-0.278715
-0.278052
-0.283130
-0.279470
-0.231203
-0.272748
-0.309423
-0.287394
-0.288355
-0.286322
-0.256502
-0.284598
-0.282187
-0.283096
-0.295753
-0.291219
-0.289171
-0.288079
-0.285482
-0.294797
-0.280237
-0.282180
-0.281503
-0.242002
-0.235515
-0.238076
-0.270806
-0.293934
-0.294352
-0.292793
-0.305200
-0.302843
-0.292757
-0.302700
-0.284872
-0.249629
-0.288252
-0.292441
-0.286354
-0.284151
-0.306848
-0.303214
-0.281272
-0.280024
-0.289704
-0.249368
-0.196772
-0.206392
-0.304788
-0.287406
-0.271482
-0.308042
-0.300539
-0.298314
-0.270420
-0.239196
-0.294832
-0.229409
-0.230833
-0.234808
-0.277561
-0.271903
-0.306299
-0.281138
-0.292470
-0.294099
-0.295583
-0.233702
-0.265466
-0.267439
-0.265377
-0.234908
-0.266279
-0.283614
-0.290817
-0.287581
-0.286326
-0.296085
-0.296892
-0.291217
-0.298541
-0.187670
-0.177548
-0.283713
-0.281885
-0.284453
-0.192606
-0.271271
-0.270451
-0.197166
-0.214331
-0.235720
-0.259825
-0.263246
-0.297399
-0.300801
-0.255851
-0.254087
-0.263390
-0.257797
-0.280841
-0.284401
-0.289801
-0.282861
-0.288855
-0.224427
-0.227277
-0.254192
-0.250573
-0.290320
-0.303023
-0.301160
-0.287338
-0.288116
-0.286501
-0.299179
-0.304743
-0.293447
-0.275148
-0.276794
-0.292669
-0.294336
-0.295440
-0.226611
-0.278937
-0.278836
-0.280887
-0.246743
-0.214692
-0.295959
-0.293700
-0.281481
-0.277688
-0.271239
-0.278416
-0.260027
-0.180669
-0.297231
-0.280568
-0.279784
-0.291641
-0.294161
-0.296272
-0.284256
-0.286123
-0.286551
-0.240093
-0.269831
-0.275549
-0.275799
-0.263048
-0.268895
-0.265548
-0.228812
-0.205171
-0.245590
-0.245051
-0.242692
-0.256545
-0.277683
-0.294168
-0.292549
-0.295883
-0.295060
-0.192398
-0.184129
-0.208615
-0.282653
-0.280881
-0.213444
-0.285144
-0.285895
-0.283836
-0.287096
-0.248179
-0.174030
-0.172978
-0.251072
-0.220221
-0.252977
-0.245656
-0.253475
-0.218221
-0.217845
-0.289771
-0.285163
-0.288203
-0.278270
-0.218853
-0.222609
-0.270638
-0.258564
-0.260275
-0.290537
-0.261165
-0.242429
-0.210914
-0.247770
-0.221328
-0.218771
-0.290179
-0.262342
-0.260558
-0.262342
-0.259775
-0.192027
-0.214539
-0.243532
-0.219786
-0.228687
-0.267824
-0.225287
-0.230896
-0.229087
-0.232903
-0.228274
-0.232792
-0.236593
-0.283438
-0.269331
-0.291810
-0.292347
-0.294373
-0.294341
-0.262426
-0.265267
-0.289916
-0.299024
-0.290649
-0.281042
-0.275473
-0.229164
-0.246038
-0.248869
-0.281195
-0.288566
-0.293348
-0.305022
-0.175360
-0.268670
-0.298658
-0.301321
-0.296852
-0.270193
-0.272964
-0.256520
-0.266898
-0.268557
-0.270118
-0.272312
-0.277656
-0.267412
-0.268707
-0.263549
-0.266639
-0.265524
-0.284234
-0.301572
-0.171370
-0.168334
-0.242351
-0.286626
-0.278592
-0.280013
-0.281271
-0.244047
-0.248567
-0.265381
-0.266982
-0.267018
-0.265644
-0.202753
-0.192639
-0.263867
-0.255905
-0.210731
-0.241809
-0.264610
-0.256463
-0.281663
-0.234783
-0.234031
-0.287903
-0.277378
-0.274424
-0.275729
-0.182010
-0.239657
-0.236327
-0.238097
-0.297638
-0.298649
-0.227123
-0.285473
-0.276908
-0.287353
-0.233539
-0.246122
-0.236082
-0.217555
-0.271784
-0.291883
-0.282152
-0.210117
-0.237491
-0.241249
-0.239421
-0.207699
-0.202985
-0.208779
-0.212829
-0.205237
-0.242875
-0.178792
-0.184215
-0.259909
-0.256165
-0.255822
-0.261557
-0.213924
-0.208471
-0.227181
-0.229351
-0.274611
-0.283648
-0.277641
-0.292358
-0.290882
-0.275297
-0.275513
-0.277214
-0.180317
-0.188245
-0.281071
-0.271416
-0.282485
-0.239425
-0.217496
-0.214016
-0.213803
-0.226825
-0.228951
-0.215579
-0.292671
-0.253211
-0.227814
-0.265142
-0.268450
-0.274919
-0.249902
-0.272513
-0.245595
-0.250644
-0.246257
-0.250825
-0.256782
-0.252297
-0.208619
-0.270224
-0.229964
-0.259563
-0.226945
-0.205362
-0.271522
-0.224534
-0.225373
-0.205463
-0.190151
-0.184037
-0.282283
-0.260409
-0.070714
-0.188870
-0.263100
-0.228018
-0.252325
-0.195414
-0.297296
-0.221891
-0.287480
-0.249224
-0.272423
-0.277078
-0.294608
-0.239295
-0.238832
-0.243541
-0.233494
-0.236556
-0.231035
-0.234541
-0.254513
-0.205656
-0.243061
-0.269217
-0.233497
-0.229581
-0.258183
-0.216031
-0.274326
-0.275313
-0.278407
-0.276629
-0.280629
-0.278817
-0.278627
-0.276289
-0.272757
-0.271408
-0.249978
-0.238629
-0.229274
-0.199622
-0.189547
-0.285791
-0.239270
-0.208423
-0.187811
-0.244156
-0.257616
-0.270639
-0.246712
-0.239705
-0.252035
-0.234736
-0.237328
-0.240060
-0.242633
-0.200334
-0.192891
-0.199268
-0.189892
-0.277576
-0.306861
-0.247338
-0.249287
-0.251323
-0.247717
-0.283064
-0.237851
-0.233853
-0.235106
-0.261880
-0.259874
-0.244608
-0.239879
-0.232702
-0.235570
-0.233341
-0.255070
-0.259673
-0.251121
-0.255347
-0.255776
-0.270393
-0.249823
-0.196254
-0.190379
-0.259054
-0.254844
-0.257632
-0.199080
-0.202833
-0.195116
-0.204929
-0.276018
-0.235957
-0.189552
-0.276068
-0.272800
-0.274430
-0.219592
-0.216150
-0.216064
-0.281000
-0.249620
-0.218751
-0.266811
-0.277122
-0.280638
-0.214972
-0.223627
-0.247880
-0.251070
-0.233673
-0.212419
-0.245416
-0.194644
-0.180306
-0.192685
-0.253588
-0.241862
-0.255477
-0.248579
-0.272864
-0.268910
-0.269255
-0.198583
-0.208125
-0.279728
-0.288317
-0.270189
-0.217948
-0.190747
-0.244073
-0.214026
-0.303678
-0.264335
-0.275445
-0.275013
-0.263230
-0.219784
-0.278854
-0.271290
-0.281393
-0.279763
-0.188527
-0.243913
-0.298660
-0.211298
-0.166730
-0.175704
-0.222854
-0.216015
-0.218207
-0.206942
-0.234910
-0.238807
-0.241777
-0.246548
-0.247129
-0.223099
-0.178789
-0.183702
-0.243449
-0.214275
-0.244185
-0.272408
-0.266591
-0.216494
-0.204307
-0.242173
-0.239654
-0.243313
-0.231691
-0.236399
-0.226237
-0.227030
-0.174184
-0.194975
-0.205280
-0.187334
-0.193259
-0.177005
-0.201235
-0.238167
-0.216921
-0.236252
-0.233127
-0.223077
-0.191968
-0.214604
-0.226399
-0.243344
-0.268263
-0.274521
-0.273248
-0.251357
-0.253150
-0.205435
-0.203600
-0.237975
-0.227194
-0.221642
-0.235080
-0.217699
-0.198993
-0.208671
-0.206034
-0.237331
-0.238407
-0.217689
-0.211553
-0.208790
-0.187079
-0.180458
-0.201440
-0.280208
-0.191746
-0.177220
-0.182038
-0.169250
-0.197602
-0.165516
-0.167241
-0.230587
-0.210080
-0.233908
-0.208307
-0.201249
-0.266276
-0.166066
-0.230587
-0.225898
-0.241579
-0.194408
-0.299440
-0.294389
-0.186094
-0.286776
-0.302769
-0.254463
-0.286346
-0.258798
-0.265513
-0.248943
-0.266838
-0.215579
-0.276945
-0.235888
-0.232278
-0.249262
-0.243971
-0.179360
-0.189912
-0.201506
-0.201635
-0.210240
-0.229594
-0.191422
-0.189911
-0.277516
-0.216020
-0.213349
-0.225158
-0.227920
-0.177670
-0.169856
-0.166598
-0.164339
-0.184001
-0.178667
-0.170447
-0.226331
-0.213825
-0.272195
-0.181810
-0.214848
-0.209951
-0.211038
-0.221171
-0.178732
-0.180832
-0.276207
-0.272969
-0.269671
-0.271820
-0.265997
-0.267766
-0.245957
-0.248426
-0.248412
-0.223922
-0.271604
-0.263902
-0.277830
-0.197199
-0.204013
-0.233096
-0.234388
-0.236937
-0.244910
-0.274370
-0.275353
-0.278764
-0.187985
-0.238760
-0.241700
-0.241264
-0.190613
-0.184652
-0.191544
-0.295652
-0.235989
-0.199059
-0.254820
-0.252623
-0.260774
-0.219879
-0.215712
-0.278704
-0.304518
-0.269169
-0.192904
-0.221830
-0.263892
-0.261188
-0.243393
-0.253502
-0.265047
-0.257662
-0.243184
-0.225737
-0.216269
-0.260629
-0.267865
-0.218816
-0.245664
-0.242253
-0.219673
-0.267083
-0.248436
-0.220133
-0.197015
-0.275813
-0.191226
-0.183809
-0.182587
-0.261406
-0.210662
-0.242698
-0.237873
-0.225255
-0.265944
-0.248694
-0.247707
-0.276201
-0.198538
-0.260142
-0.193987
-0.190872
-0.220818
-0.228815
-0.226648
-0.224749
-0.229871
-0.297475
-0.296280
-0.273093
-0.278506
-0.224948
-0.185146
-0.257390
-0.265833
-0.205570
-0.263350
-0.206501
-0.211678
-0.259486
-0.214150
-0.211678
-0.206969
-0.209031
-0.184540
-0.202980
-0.262485
-0.247070
-0.211889
-0.211837
-0.201149
-0.188308
-0.183828
-0.176410
-0.260469
-0.246211
-0.247682
-0.215665
-0.300228
-0.168122
-0.252331
-0.223726
-0.273675
-0.221811
-0.193902
-0.223010
-0.207829
-0.201359
-0.259862
-0.189678
-0.168206
-0.274970
-0.250836
-0.264434
-0.271620
-0.246047
-0.251713
-0.260144
-0.245592
-0.207690
-0.217920
-0.208080
-0.231615
-0.221861
-0.240909
-0.243728
-0.241065
-0.249726
-0.223391
-0.264087
-0.215383
-0.219538
-0.171928
-0.195368
-0.248130
-0.185225
-0.181409
-0.180464
-0.178197
-0.227504
-0.270026
-0.179244
-0.212943
-0.237969
-0.230959
-0.167834
-0.218537
-0.189285
-0.186946
-0.291348
-0.198096
-0.262682
-0.183488
-0.170608
-0.180671
-0.239440
-0.189870
-0.189796
-0.248577
-0.231332
-0.181447
-0.249833
-0.251065
-0.249970
-0.240431
-0.234566
-0.232163
-0.229240
-0.229533
-0.250114
-0.226719
-0.181265
-0.215762
-0.217593
-0.224676
-0.210906
-0.228833
-0.238565
-0.222195
-0.257295
-0.192382
-0.238333
-0.222051
-0.239459
-0.221046
-0.262768
-0.251362
-0.254027
-0.180013
-0.166364
-0.253549
-0.213498
-0.216111
-0.180075
-0.238324
-0.229296
-0.228146
-0.282042
-0.270321
-0.212564
-0.233897
-0.191874
-0.199826
-0.202582
-0.264574
-0.234688
-0.239106
-0.035351
-0.027361
-0.028273
-0.056505
-0.039246
-0.049947
-0.053403
-0.061645
-0.039567
0.014345
0.005660
0.012829
-0.052708
-0.068019
-0.032171
0.000772
0.021456
-0.000212
-0.000228
-0.002589
0.022779
0.027812
0.029231
-0.022602
-0.031909
-0.019818
-0.022478
-0.021343
-0.008539
-0.041732
-0.031535
-0.039134
-0.030356
-0.025900
-0.020474
-0.018970
-0.009203
-0.009200
-0.011681
-0.026296
-0.014748
-0.027397
-0.018006
-0.029732
-0.016072
-0.006693
-0.018480
-0.021433
-0.016452
-0.003948
-0.001830
0.011696
0.009264
0.012076
0.008251
-0.026787
-0.025299
-0.033670
-0.033013
-0.033694
-0.064750