# vtk DataFile Version 2.0
Test
ASCII
DATASET POLYDATA
POINTS 1818 float
0.000000 0.000000 0.000000
1.000000 0.000000 0.000000
1.000000 1.000000 0.000000
0.000000 1.000000 0.000000
0.300000 0.330000 0.000000
0.700000 0.680000 0.000000
0.058824 0.000000 0.000000
0.117647 0.000000 0.000000
0.176471 0.000000 0.000000
0.235294 0.000000 0.000000
0.294118 0.000000 0.000000
0.352941 0.000000 0.000000
0.411765 0.000000 0.000000
0.470588 0.000000 0.000000
0.529412 0.000000 0.000000
0.588235 0.000000 0.000000
0.647059 0.000000 0.000000
0.705882 0.000000 0.000000
0.764706 0.000000 0.000000
0.823529 0.000000 0.000000
0.882353 0.000000 0.000000
0.941176 0.000000 0.000000
1.000000 0.058824 0.000000
1.000000 0.117647 0.000000
1.000000 0.176471 0.000000
1.000000 0.235294 0.000000
1.000000 0.294118 0.000000
1.000000 0.352941 0.000000
1.000000 0.411765 0.000000
1.000000 0.470588 0.000000
1.000000 0.529412 0.000000
1.000000 0.588235 0.000000
1.000000 0.647059 0.000000
1.000000 0.705882 0.000000
1.000000 0.764706 0.000000
1.000000 0.823529 0.000000
1.000000 0.882353 0.000000
1.000000 0.941176 0.000000
0.941176 1.000000 0.000000
0.882353 1.000000 0.000000
0.823529 1.000000 0.000000
0.764706 1.000000 0.000000
0.705882 1.000000 0.000000
0.647059 1.000000 0.000000
0.588235 1.000000 0.000000
0.529412 1.000000 0.000000
0.470588 1.000000 0.000000
0.411765 1.000000 0.000000
0.352941 1.000000 0.000000
0.294118 1.000000 0.000000
0.235294 1.000000 0.000000
0.176471 1.000000 0.000000
0.117647 1.000000 0.000000
0.058824 1.000000 0.000000
0.000000 0.941176 0.000000
0.000000 0.882353 0.000000
0.000000 0.823529 0.000000
0.000000 0.764706 0.000000
0.000000 0.705882 0.000000
0.000000 0.647059 0.000000
0.000000 0.588235 0.000000
0.000000 0.529412 0.000000
0.000000 0.470588 0.000000
0.000000 0.411765 0.000000
0.000000 0.352941 0.000000
0.000000 0.294118 0.000000
0.000000 0.235294 0.000000
0.000000 0.176471 0.000000
0.000000 0.117647 0.000000
0.000000 0.058824 0.000000
0.305970 0.335224 0.000000
0.311940 0.340448 0.000000
0.317910 0.345672 0.000000
0.323881 0.350896 0.000000
0.329851 0.356119 0.000000
0.335821 0.361343 0.000000
0.341791 0.366567 0.000000
0.347761 0.371791 0.000000
0.353731 0.377015 0.000000
0.359701 0.382239 0.000000
0.365672 0.387463 0.000000
0.371642 0.392687 0.000000
0.377612 0.397910 0.000000
0.383582 0.403134 0.000000
0.389552 0.408358 0.000000
0.395522 0.413582 0.000000
0.401493 0.418806 0.000000
0.407463 0.424030 0.000000
0.413433 0.429254 0.000000
0.419403 0.434478 0.000000
0.425373 0.439701 0.000000
0.431343 0.444925 0.000000
0.437313 0.450149 0.000000
0.443284 0.455373 0.000000
0.449254 0.460597 0.000000
0.455224 0.465821 0.000000
0.461194 0.471045 0.000000
0.467164 0.476269 0.000000
0.473134 0.481493 0.000000
0.479104 0.486716 0.000000
0.485075 0.491940 0.000000
0.491045 0.497164 0.000000
0.497015 0.502388 0.000000
0.502985 0.507612 0.000000
0.508955 0.512836 0.000000
0.514925 0.518060 0.000000
0.520896 0.523284 0.000000
0.526866 0.528507 0.000000
0.532836 0.533731 0.000000
0.538806 0.538955 0.000000
0.544776 0.544179 0.000000
0.550746 0.549403 0.000000
0.556716 0.554627 0.000000
0.562687 0.559851 0.000000
0.568657 0.565075 0.000000
0.574627 0.570299 0.000000
0.580597 0.575522 0.000000
0.586567 0.580746 0.000000
0.592537 0.585970 0.000000
0.598507 0.591194 0.000000
0.604478 0.596418 0.000000
0.610448 0.601642 0.000000
0.616418 0.606866 0.000000
0.622388 0.612090 0.000000
0.628358 0.617313 0.000000
0.634328 0.622537 0.000000
0.640299 0.627761 0.000000
0.646269 0.632985 0.000000
0.652239 0.638209 0.000000
0.658209 0.643433 0.000000
0.664179 0.648657 0.000000
0.670149 0.653881 0.000000
0.676119 0.659104 0.000000
0.682090 0.664328 0.000000
0.688060 0.669552 0.000000
0.694030 0.674776 0.000000
0.516135 0.080917 0.000000
0.549338 0.042552 0.000000
0.567302 0.088709 0.000000
0.555658 0.563778 0.000000
0.559301 0.571359 0.000000
0.552318 0.570919 0.000000
0.603235 0.047100 0.000000
0.446553 0.448087 0.000000
0.438652 0.443189 0.000000
0.445116 0.440368 0.000000
0.437254 0.190586 0.000000
0.465954 0.201747 0.000000
0.439184 0.213838 0.000000
0.453137 0.228102 0.000000
0.522423 0.410182 0.000000
0.522098 0.390982 0.000000
0.537289 0.398500 0.000000
0.453388 0.527105 0.000000
0.462022 0.524948 0.000000
0.461218 0.533993 0.000000
0.324300 0.374550 0.000000
0.319287 0.386214 0.000000
0.314834 0.375138 0.000000
0.668809 0.628853 0.000000
0.677366 0.632907 0.000000
0.668274 0.639611 0.000000
0.469934 0.529282 0.000000
0.439703 0.436699 0.000000
0.446608 0.432083 0.000000
0.542854 0.633425 0.000000
0.535117 0.647070 0.000000
0.524302 0.633157 0.000000
0.519372 0.648877 0.000000
0.586338 0.611293 0.000000
0.591638 0.624149 0.000000
0.575478 0.621479 0.000000
0.437962 0.035513 0.000000
0.421505 0.085456 0.000000
0.394924 0.044162 0.000000
0.445207 0.955749 0.000000
0.429168 0.919510 0.000000
0.464409 0.914226 0.000000
0.317150 0.400904 0.000000
0.328626 0.395860 0.000000
0.439616 0.884412 0.000000
0.330406 0.381773 0.000000
0.676842 0.602700 0.000000
0.674982 0.614185 0.000000
0.665930 0.611798 0.000000
0.414707 0.535036 0.000000
0.420123 0.526072 0.000000
0.425338 0.533771 0.000000
0.398407 0.375558 0.000000
0.393804 0.363255 0.000000
0.407284 0.365452 0.000000
0.407758 0.523337 0.000000
0.899969 0.377867 0.000000
0.945915 0.378245 0.000000
0.914158 0.409130 0.000000
0.358219 0.436142 0.000000
0.361390 0.425428 0.000000
0.369309 0.432300 0.000000
0.465999 0.075074 0.000000
0.269944 0.367761 0.000000
0.266521 0.352125 0.000000
0.283474 0.357667 0.000000
0.385889 0.083020 0.000000
0.359482 0.060981 0.000000
0.279658 0.346766 0.000000
0.363604 0.104040 0.000000
0.511115 0.503731 0.000000
0.503243 0.499914 0.000000
0.509146 0.494910 0.000000
0.513188 0.475753 0.000000
0.504957 0.474656 0.000000
0.511959 0.464784 0.000000
0.311863 0.447505 0.000000
0.293019 0.442078 0.000000
0.305555 0.431691 0.000000
0.499204 0.464990 0.000000
0.293855 0.459576 0.000000
0.396676 0.236328 0.000000
0.371014 0.247362 0.000000
0.373003 0.229199 0.000000
0.384478 0.261522 0.000000
0.555704 0.523331 0.000000
0.551313 0.515879 0.000000
0.562752 0.515269 0.000000
0.554954 0.506854 0.000000
0.804236 0.611103 0.000000
0.819351 0.593503 0.000000
0.832061 0.615776 0.000000
0.509908 0.485173 0.000000
0.129738 0.481190 0.000000
0.110722 0.443736 0.000000
0.154857 0.452634 0.000000
0.089738 0.485299 0.000000
0.396427 0.153886 0.000000
0.393058 0.115469 0.000000
0.420333 0.126587 0.000000
0.442628 0.413512 0.000000
0.434815 0.404283 0.000000
0.446816 0.400259 0.000000
0.499770 0.482873 0.000000
0.353883 0.235057 0.000000
0.351360 0.254011 0.000000
0.332147 0.240870 0.000000
0.112307 0.405527 0.000000
0.140355 0.392788 0.000000
0.142004 0.423465 0.000000
0.334868 0.263052 0.000000
0.551239 0.594093 0.000000
0.560217 0.601969 0.000000
0.546711 0.604614 0.000000
0.398510 0.570197 0.000000
0.387124 0.557316 0.000000
0.399978 0.555748 0.000000
0.705281 0.743146 0.000000
0.722930 0.758853 0.000000
0.697202 0.758074 0.000000
0.380190 0.572638 0.000000
0.278345 0.431947 0.000000
0.292575 0.428097 0.000000
0.470820 0.540616 0.000000
0.478213 0.533042 0.000000
0.480161 0.543190 0.000000
0.415268 0.299334 0.000000
0.412465 0.313515 0.000000
0.400419 0.297680 0.000000
0.396495 0.317117 0.000000
0.718655 0.732879 0.000000
0.709319 0.677587 0.000000
0.715709 0.670111 0.000000
0.719283 0.682820 0.000000
0.212992 0.453899 0.000000
0.184619 0.470046 0.000000
0.186665 0.440862 0.000000
0.452307 0.386568 0.000000
0.460371 0.397715 0.000000
0.478664 0.456068 0.000000
0.476179 0.462123 0.000000
0.471250 0.456445 0.000000
0.464654 0.388544 0.000000
0.483415 0.461045 0.000000
0.357146 0.449596 0.000000
0.344653 0.443966 0.000000
0.554562 0.459423 0.000000
0.543333 0.457517 0.000000
0.553850 0.449505 0.000000
0.543131 0.445036 0.000000
0.347312 0.459318 0.000000
0.781088 0.538918 0.000000
0.810909 0.534152 0.000000
0.799399 0.553968 0.000000
0.402869 0.534333 0.000000
0.408011 0.546121 0.000000
0.703844 0.670118 0.000000
0.552234 0.794299 0.000000
0.528593 0.795589 0.000000
0.539188 0.770312 0.000000
0.596088 0.518714 0.000000
0.593029 0.508081 0.000000
0.604120 0.510731 0.000000
0.384880 0.468703 0.000000
0.382270 0.455963 0.000000
0.394062 0.458803 0.000000
0.374729 0.466839 0.000000
0.340939 0.294790 0.000000
0.324530 0.290188 0.000000
0.338473 0.279923 0.000000
0.465367 0.336545 0.000000
0.477337 0.352846 0.000000
0.459495 0.350024 0.000000
0.584947 0.516440 0.000000
0.326802 0.302636 0.000000
0.945343 0.420397 0.000000
0.779746 0.749037 0.000000
0.771533 0.774140 0.000000
0.758291 0.749848 0.000000
0.743435 0.765852 0.000000
0.751942 0.297541 0.000000
0.784264 0.292048 0.000000
0.772562 0.330207 0.000000
0.812744 0.305799 0.000000
0.655547 0.494535 0.000000
0.649767 0.472522 0.000000
0.671966 0.480244 0.000000
0.612062 0.502007 0.000000
0.616789 0.515227 0.000000
0.403059 0.898561 0.000000
0.391512 0.946883 0.000000
0.625780 0.504699 0.000000
0.635988 0.491275 0.000000
0.596252 0.650380 0.000000
0.583401 0.655132 0.000000
0.583737 0.644777 0.000000
0.713099 0.416502 0.000000
0.708474 0.388943 0.000000
0.733625 0.389568 0.000000
0.684835 0.406222 0.000000
0.656936 0.416423 0.000000
0.633624 0.425116 0.000000
0.634362 0.400237 0.000000
0.646884 0.740682 0.000000
0.654954 0.726002 0.000000
0.663305 0.741855 0.000000
0.732481 0.441235 0.000000
0.751303 0.460839 0.000000
0.721338 0.462235 0.000000
0.759622 0.437863 0.000000
0.462761 0.363156 0.000000
0.373644 0.622389 0.000000
0.346217 0.613642 0.000000
0.370315 0.594521 0.000000
0.351411 0.640635 0.000000
0.695337 0.690220 0.000000
0.705202 0.700133 0.000000
0.692303 0.700990 0.000000
0.521365 0.516400 0.000000
0.522992 0.510597 0.000000
0.527633 0.513574 0.000000
0.291567 0.329512 0.000000
0.294927 0.318154 0.000000
0.365771 0.366553 0.000000
0.366135 0.358691 0.000000
0.374180 0.368122 0.000000
0.408232 0.327056 0.000000
0.423479 0.328280 0.000000
0.411272 0.339740 0.000000
0.664110 0.670607 0.000000
0.667245 0.662649 0.000000
[...]
POINT_DATA 1818
SCALARS UX float 1
LOOKUP_TABLE default
-0.000001
0.000001
0.056581
-0.317387
-0.091522
-0.007142
0.000000
-0.000000
-0.000000
-0.000000
-0.000000
-0.000000
-0.000000
-0.000000
-0.000000
0.000000
0.000000
0.000000
0.000000
0.000000
0.000000
-0.000000
0.043957
0.066413
0.082396
0.096712
0.108553
0.118819
0.127680
0.134473
0.139671
0.142894
0.143570
0.143057
0.139391
0.126206
0.099410
0.074685
0.012663
-0.017483
-0.037415
-0.054230
-0.070497
-0.087008
-0.104326
-0.122505
-0.142096
-0.163338
-0.185637
-0.208536
-0.231526
-0.254139
-0.276119
-0.296929
-0.312929
-0.307456
-0.301182
-0.294663
-0.287868
-0.280979
-0.273921
-0.266250
-0.257370
-0.247263
-0.236042
-0.222369
-0.205132
-0.181181
-0.133625
-0.079870
-0.088766
-0.087281
-0.088643
-0.085843
-0.085673
-0.083791
-0.082270
-0.081875
-0.081093
-0.079523
-0.079749
-0.077998
-0.080475
-0.081626
-0.078522
-0.079359
-0.079565
-0.079828
-0.078841
-0.077132
-0.076339
-0.075556
-0.074999
-0.073611
-0.072581
-0.071818
-0.070115
-0.068428
-0.067918
-0.066350
-0.066622
-0.067753
-0.063966
-0.064844
-0.059619
-0.058232
-0.056905
-0.055784
-0.052009
-0.050009
-0.047943
-0.045772
-0.044436
-0.043102
-0.042736
-0.041543
-0.040990
-0.039283
-0.038034
-0.036883
-0.037142
-0.034584
-0.034725
-0.032507
-0.031513
-0.032193
-0.028209
-0.027958
-0.026392
-0.024852
-0.021606
-0.016500
-0.014643
-0.010738
-0.010872
-0.008384
-0.001707
-0.000320
0.000279
-0.096958
-0.099645
-0.106967
0.000846
-0.034275
-0.040638
-0.026870
-0.011965
-0.009395
-0.013426
-0.012400
0.000087
-0.000969
0.002639
-0.144706
-0.142076
-0.142502
-0.144831
-0.155716
-0.150886
0.034343
0.037082
0.026260
-0.139722
-0.029366
-0.019556
-0.113886
-0.115583
-0.120002
-0.120884
-0.097517
-0.096182
-0.103331
-0.001799
-0.005162
-0.002974
-0.148765
-0.153302
-0.140500
-0.162500
-0.156778
-0.148932
-0.146561
0.048889
0.046001
0.042951
-0.155174
-0.153644
-0.152301
-0.029267
-0.029525
-0.026057
-0.156839
0.098629
0.110301
0.106931
-0.159650
-0.155738
-0.155250
-0.003182
-0.166120
-0.158592
-0.153073
-0.006146
-0.004945
-0.145857
-0.009000
-0.015478
-0.026412
-0.009242
0.001253
-0.001514
0.001031
-0.174783
-0.179204
-0.173743
-0.002834
-0.181671
-0.021454
-0.027004
-0.024227
-0.026091
0.011980
0.011350
0.016289
0.013640
0.093074
0.097776
0.101489
-0.001682
-0.230014
-0.229349
-0.219980
-0.240101
-0.012373
-0.008784
-0.008291
-0.017734
-0.019993
-0.016514
-0.007235
-0.028032
-0.031563
-0.032617
-0.222421
-0.213428
-0.218676
-0.036513
-0.113049
-0.109633
-0.114579
-0.160396
-0.163502
-0.159650
-0.044830
-0.038532
-0.051583
-0.166124
-0.181570
-0.176677
-0.139765
-0.137108
-0.137013
-0.022448
-0.023533
-0.025373
-0.027089
-0.032390
0.017753
0.036756
0.024037
-0.204412
-0.214301
-0.209987
-0.015554
-0.013415
-0.009851
-0.013553
-0.013932
-0.012841
-0.008602
-0.162650
-0.164925
0.010624
0.007953
0.009698
0.006942
-0.166703
0.082955
0.092255
0.089934
-0.158384
-0.157171
0.022139
-0.107027
-0.115820
-0.111695
0.025936
0.024279
0.027420
-0.158780
-0.157467
-0.154519
-0.161089
-0.040564
-0.045255
-0.038991
-0.013606
-0.011165
-0.014720
0.022752
-0.046855
0.116144
0.016538
-0.009733
-0.006330
-0.027464
0.043383
0.050716
0.054775
0.061394
0.040449
0.036937
0.044264
0.028788
0.031110
-0.162443
-0.168043
0.032713
0.034461
-0.093791
-0.098231
-0.098835
0.050551
0.045758
0.053123
0.041029
0.034029
0.028190
0.026269
-0.069668
-0.065457
-0.063557
0.059291
0.067179
0.057995
0.067155
-0.013931
-0.169955
-0.178627
-0.170092
-0.177909
-0.028238
-0.024343
-0.038157
-0.024506
-0.011852
-0.009081
-0.109720
-0.080420
-0.042581
-0.038101
-0.036303
-0.024879
-0.021756
-0.024566
-0.051652
-0.040674
-0.037826
-0.162834
-0.167221
-0.168015
-0.171987
-0.061350
-0.068439
-0.076389
-0.020167
0.001630
0.006111
0.004004
-0.053698
-0.057331
-0.048865
-0.035063
-0.045270
-0.046982
-0.131283
-0.134995
-0.135747
-0.044948
-0.058820
-0.056775
-0.020428
-0.044566
-0.034741
-0.049925
-0.042014
-0.027070
-0.034183
-0.129335
-0.120718
-0.117394
-0.129738
-0.183573
-0.175380
-0.180745
-0.154586
-0.160871
-0.153361
-0.046232
-0.045413
-0.119041
0.021564
0.022320
-0.181621
-0.176943
-0.176074
-0.073556
-0.245010
-0.230124
-0.231549
-0.220458
-0.147400
-0.129358
-0.131895
-0.131585
-0.128283
-0.123887
-0.117968
0.047751
0.045917
0.037245
0.053457
-0.178402
-0.174075
-0.169508
-0.085197
-0.106054
-0.078891
-0.064754
-0.056167
-0.041557
-0.024054
-0.078377
-0.102982
-0.123133
0.047526
0.031383
-0.116767
-0.136018
-0.133553
-0.075149
-0.088511
-0.087650
-0.133835
-0.122909
-0.118805
-0.113188
-0.104452
-0.108258
-0.124645
-0.134634
-0.028540
-0.028261
-0.041985
-0.039846
-0.036609
-0.044078
0.015138
0.012537
0.009799
-0.269024
-0.263450
-0.255707
-0.253446
-0.245730
-0.255638
-0.242572
-0.061219
-0.071086
-0.081295
-0.083585
-0.121748
-0.126182
-0.122176
-0.127512
-0.116982
-0.120416
-0.116084
-0.150651
-0.153829
-0.148811
-0.151269
-0.151345
-0.154012
-0.153246
-0.142311
-0.030870
-0.041595
-0.041574
0.009354
0.004580
0.007524
0.005456
0.078565
0.067868
0.072755
0.086686
0.088100
-0.119862
-0.123033
-0.132076
0.012684
0.014548
-0.005378
-0.144055
-0.141617
-0.145867
-0.081263
-0.069265
-0.136620
-0.073676
-0.084293
-0.088483
-0.010372
-0.008581
-0.011465
0.013981
0.016239
0.016621
-0.035028
-0.034429
-0.087412
0.019262
-0.226892
-0.218040
-0.234348
-0.221602
-0.229073
0.000311
0.001970
0.006250
0.008599
0.005842
0.009652
0.009429
-0.238960
-0.089503
-0.081360
-0.091034
-0.080760
-0.157716
-0.171896
-0.151131
0.017970
0.022780
0.029965
-0.030429
0.006277
-0.022048
0.010535
0.011594
-0.062305
-0.054943
-0.059314
-0.164625
-0.159500
-0.159866
-0.095063
-0.100678
-0.257352
0.016170
0.019097
0.016227
-0.019276
-0.018111
-0.129196
-0.122007
-0.119736
-0.015689
0.020048
-0.180393
-0.185575
-0.184151
-0.147526
-0.141297
-0.142304
-0.014427
0.002227
-0.010235
-0.000758
-0.024714
0.019278
0.015628
-0.126533
-0.105267
-0.111826
-0.030651
-0.027342
-0.191492
-0.186380
-0.187489
-0.027134
-0.002711
-0.005587
-0.005596
-0.195111
-0.202391
-0.197151
-0.072754
-0.090033
-0.061707
-0.039589
-0.043426
-0.049140
-0.237225
-0.213134
0.008831
-0.170514
-0.182537
0.004926
0.013061
0.016914
-0.223554
0.012410
0.005113
-0.128018
-0.127053
0.063468
0.070219
0.067505
-0.131796
0.003056
0.003752
0.041507
-0.147428
-0.146816
-0.145495
-0.103348
-0.099822
-0.045667
-0.149772
-0.014126
-0.011815
-0.148404
-0.105888
-0.109357
-0.102803
-0.112336
0.095533
0.084809
0.087435
0.017373
0.004477
-0.002194
-0.145497
-0.137273
-0.133836
-0.030350
-0.025577
-0.007390
-0.025660
-0.021405
-0.013921
-0.001221
-0.164443
-0.161626
-0.043580
-0.042245
-0.143112
0.050933
0.069765
0.050001
0.123445
0.076410
0.010529
0.013691
0.014775
-0.160527
-0.011915
-0.022116
-0.019582
-0.019790
-0.098566
-0.121997
-0.105832
-0.100795
0.022623
-0.135287
-0.118890
-0.170358
-0.174657
-0.170076
-0.143830
-0.140623
-0.142983
-0.139187
0.058058
0.054075
0.062235
-0.139376
-0.008456
0.100593
0.037664
0.035360
-0.009473
0.007478
-0.011283
0.010318
0.001731
0.015365
-0.032929
-0.130347
-0.070020
-0.137810
-0.140891
-0.211508
-0.219203
-0.015485
-0.012076
-0.059931
-0.072003
0.003413
-0.068016
-0.245231
-0.074734
-0.201167
-0.203253
-0.193655
-0.075205
0.061986
0.057084
0.054769
0.051921
-0.017071
-0.018749
-0.097532
-0.092994
-0.090732
0.051436
0.051135
0.047728
0.046118
0.073460
0.076603
-0.208310
-0.205888
0.093834
-0.285711
-0.263391
-0.281252
0.071157
0.068636
0.062209
-0.117035
-0.121830
-0.108806
0.076112
0.098436
0.058471
0.039290
0.050276
0.029917
-0.130028
0.005803
0.002205
0.001210
0.069348
0.079463
0.080915
-0.240221
-0.256639
-0.258094
0.090109
-0.122496
-0.115088
-0.134666
-0.148982
-0.149585
-0.184289
0.009984
0.006521
0.018379
0.125545
0.124203
0.135448
0.113687
0.110323
0.129031
0.129614
-0.096780
-0.098290
-0.219846
-0.206414
-0.205851
-0.106483
0.012401
-0.017442
-0.215243
-0.214249
-0.224544
-0.188586
-0.185602
-0.235555
0.009536
-0.013864
-0.191120
-0.009627
-0.178570
-0.166343
-0.168103
0.125484
0.132829
-0.069109
-0.069603
-0.056138
-0.015070
-0.030078
-0.001665
-0.039935
-0.057857
-0.023289
-0.029809
-0.030805
-0.123193
-0.152565
-0.159850
-0.129686
-0.188412
-0.194406
-0.190355
-0.250155
-0.243741
-0.008811
-0.013697
-0.007255
-0.013720
-0.015266
-0.072751
-0.066615
-0.071665
-0.232280
-0.003984
-0.006232
-0.089726
-0.098163
-0.097907
0.130310
0.119304
-0.197847
0.079608
0.073942
0.073388
0.081034
-0.227836
-0.222128
-0.217829
0.088196
-0.003767
0.111843
-0.050546
-0.003303
-0.015005
-0.017007
-0.101818
0.002271
-0.006117
-0.087521
-0.080650
-0.081860
0.046408
0.017119
-0.035636
-0.155336
-0.157507
-0.074154
-0.103941
0.029022
0.035804
0.027251
0.040361
-0.167933
-0.169354
-0.172642
-0.128285
-0.006787
-0.014189
0.009224
0.006432
0.004429
-0.010375
-0.026529
-0.230181
-0.222532
-0.233312
-0.220560
-0.114125
-0.222541
-0.225399
-0.232974
-0.216531
-0.213649
-0.122016
-0.116293
-0.165341
-0.156149
-0.118821
-0.044294
-0.036426
-0.101077
-0.090746
-0.257148
-0.270815
-0.243345
-0.003662
-0.005868
-0.003409
-0.132044
-0.137219
-0.022571
-0.024448
-0.204968
-0.208591
-0.200355
-0.170781
-0.166174
-0.165651
-0.077270
-0.089465
-0.214560
-0.001049
0.007090
0.003377
-0.170550
-0.185385
-0.183080
-0.192011
-0.174602
-0.212434
0.043884
0.035019
-0.196634
-0.201657
-0.205277
-0.210411
0.002906
-0.001380
-0.163414
0.082873
-0.044356
-0.032870
0.000607
-0.001695
-0.005598
-0.100479
-0.006868
-0.176646
-0.141805
-0.141369
-0.146711
-0.151343
-0.188524
-0.195004
-0.195549
-0.017118
-0.020214
-0.204145
0.004741
0.043264
0.040985
-0.251825
-0.238288
-0.245863
-0.103972
-0.111602
-0.108488
-0.178818
0.113076
0.120737
0.110379
0.103699
0.101880
-0.193711
-0.191585
-0.187602
-0.187171
-0.194363
-0.046202
0.040007
0.008763
0.075415
-0.213184
-0.221419
-0.198259
-0.200095
-0.187885
-0.180543
-0.202813
-0.192755
-0.003245
-0.004865
-0.000904
-0.138018
-0.133037
-0.142947
0.059429
0.061860
0.065743
-0.116201
0.097973
0.092711
-0.210080
-0.103542
-0.022969
-0.272056
-0.287642
-0.117819
-0.128504
0.032930
0.030547
0.029342
-0.037172
-0.033956
0.036675
-0.031984
0.039619
-0.183824
-0.195247
0.061919
0.067408
0.044005
0.011585
-0.033410
0.084374
0.066993
0.101297
0.059231
-0.077720
-0.079556
-0.073386
-0.075100
0.005974
-0.099228
-0.108018
0.003859
-0.225281
-0.203684
-0.212522
-0.126906
-0.123086
0.000558
0.005520
-0.124333
-0.128338
-0.126939
-0.002260
-0.004102
-0.001374
-0.144940
-0.139906
-0.140465
-0.180438
0.071424
0.076376
0.079010
-0.175713
-0.183097
-0.188625
-0.014532
-0.017323
-0.019808
-0.190890
-0.143121
-0.023062
-0.137759
-0.099855
-0.204482
-0.202512
0.108163
-0.005522
0.064556
0.055114
-0.141391
-0.144699
-0.065422
-0.071928
-0.012757
-0.235268
-0.065753
-0.162633
-0.195216
-0.187417
-0.157483
-0.159374
-0.160151
0.049417
0.046564
0.047585
0.056772
0.013627
0.017447
0.012620
0.019558
-0.169484
-0.132830
-0.132252
-0.175146
-0.114395
-0.024767
-0.027911
-0.039845
0.104464
0.074308
0.048664
-0.003600
-0.043185
-0.089811
-0.175413
-0.172526
-0.167899
-0.196533
-0.066303
-0.027071
-0.050979
-0.084928
-0.054546
-0.002930
-0.003888
-0.005913
-0.022150
-0.018023
-0.019412
0.052459
0.014332
0.010040
0.007959
-0.049801
0.018631
-0.029225
-0.022690
0.094085
-0.174317
-0.184071
-0.174445
-0.182998
-0.196584
0.084984
0.059964
0.065607
0.052676
0.048411
0.045031
-0.188636
-0.023064
0.002553
0.005873
0.004635
-0.013223
-0.010266
-0.011006
0.115067
0.123903
0.075490
-0.178417
-0.172930
-0.083610
-0.085797
0.035099
0.069773
0.059992
0.061905
-0.156842
-0.155272
-0.059532
-0.064479
-0.078079
-0.177178
-0.172365
-0.059957
-0.182228
0.019749
0.018965
0.016000
-0.058714
-0.053127
0.053098
0.042381
-0.165995
-0.167173
-0.158681
-0.159141
-0.165546
-0.172146
0.015378
0.011066
-0.205036
0.015724
0.018569
0.023109
0.101826
0.101677
0.011161
-0.056549
-0.056357
-0.065821
-0.079427
-0.126417
-0.043099
-0.050338
-0.055189
-0.161890
-0.160946
0.067700
0.024765
0.018853
0.018005
-0.028023
-0.080767
-0.096030
-0.101035
0.027683
0.024824
0.018046
-0.150068
-0.149466
-0.137565
-0.083090
-0.033291
-0.026923
-0.024976
-0.058608
-0.037768
-0.033702
-0.025601
-0.098927
-0.054273
-0.017738
0.068901
0.076130
0.075225
0.048902
0.068588
0.092515
-0.158394
-0.108527
-0.128356
-0.138929
-0.132648
-0.131367
-0.141737
-0.117119
0.007802
0.036390
-0.040348
-0.080867
-0.078526
0.053485
0.053836
0.033328
0.025226
0.020913
-0.121618
-0.137981
-0.046764
0.009059
-0.167714
0.057266
0.056966
0.043832
0.039571
-0.164203
-0.202981
-0.167767
0.050639
0.047480
0.020763
0.014579
0.018320
0.022024
0.049535
0.115897
-0.049383
0.028975
0.007028
0.017648
-0.021937
-0.108674
-0.096587
0.105399
-0.002774
-0.104523
0.033298
0.042100
-0.094335
-0.104892
-0.119692
-0.125002
-0.118103
-0.158819
0.027916
0.024226
-0.050242
-0.063915
-0.059717
-0.156608
-0.120927
-0.226479
0.029593
0.030560
0.025492
0.031289
0.035500
-0.155436
0.022249
-0.139671
-0.065332
-0.135257
-0.161020
-0.106025
-0.095685
-0.094297
-0.124264
-0.026562
-0.147738
-0.202228
-0.035937
-0.051610
-0.061790
-0.141647
-0.136607
-0.112807
0.033209
-0.010022
-0.008838
-0.121657
-0.086082
0.016086
0.033689
-0.161164
-0.168738
-0.162662
-0.000900
-0.129109
0.050299
0.044722
-0.010111
-0.108753
-0.113030
-0.114364
-0.136921
-0.136990
-0.045034
-0.051306
0.097843
0.104551
0.002405
-0.047334
0.001414
-0.041222
-0.044336
0.017749
-0.037335
-0.046825
0.086729
-0.065257
-0.150103
-0.149582
0.038009
-0.008563
-0.005549
0.106132
-0.003645
-0.021940
-0.038996
-0.209989
-0.211586
-0.070666
-0.076222
-0.147900
-0.153632
-0.148812
0.111149
-0.153444
-0.107580
-0.124229
0.053994
-0.092374
-0.053660
-0.050331
-0.130207
-0.029090
-0.034277
0.000275
-0.109322
-0.117107
0.020087
0.023550
0.027587
0.028741
0.024604
-0.011262
-0.243892
-0.104006
-0.119702
-0.112166
-0.051010
-0.091840
-0.092536
0.002123
0.005477
-0.083184
-0.050943
-0.015601
-0.006282
0.015444
-0.028296
-0.025353
-0.025334
-0.022393
-0.118840
-0.139629
-0.129054
0.034125
0.033778
0.038076
-0.121265
-0.122220
-0.026441
-0.147087
-0.147654
0.000273
0.002812
0.043953
-0.002412
-0.151670
-0.166503
-0.157074
-0.147646
-0.020692
-0.126638
-0.029227
-0.031747
-0.192780
-0.195761
-0.006635
-0.045320
-0.021620
-0.124612
-0.007680
-0.001206
-0.008442
-0.166021
-0.167704
0.009306
-0.134562
-0.156995
-0.188000
-0.191663
-0.165870
-0.124958
-0.113329
-0.108201
0.016687
0.019957
0.019901
-0.154859
-0.153540
-0.033192
-0.032764
-0.156016
-0.157573
-0.162110
-0.088401
-0.086402
-0.124214
-0.152808
0.041490
0.039602
-0.015790
-0.152048
-0.153107
-0.154707
-0.148810
-0.147616
-0.029725
-0.027675
0.015790
-0.005006
-0.148911
-0.147724
-0.130347
-0.051190
-0.043228
-0.007450
-0.015369
-0.150511
0.004082
0.004036
-0.090557
-0.110304
-0.019983
-0.023242
-0.125808
-0.118252
-0.034517
0.000598
-0.000488
0.029249
-0.146405
0.029533
-0.041264
0.076029
0.075035
-0.160417
-0.158536
-0.068102
-0.067929
-0.082256
-0.086295
0.010716
0.040004
-0.006272
-0.102380
0.033158
-0.161392
0.051598
0.037460
0.039111
-0.161403
0.043946
0.026052
-0.018302
0.011815
0.008952
-0.044227
0.028556
-0.254844
-0.242250
-0.247616
-0.178219
0.079361
0.023146
0.027502
0.021042
0.000102
-0.208431
0.087919
-0.164288
-0.150438
-0.146031
-0.013884
-0.006532
-0.011833
0.019432
-0.002168
-0.111727
-0.109370
-0.276116
-0.016844
0.023739
0.046524
-0.294769
-0.296237
-0.108704
0.010338
0.034024
0.013564
0.004657
0.043682
-0.003869
-0.027616
-0.145088
-0.004151
-0.154266
-0.056101
0.010630
0.025977
0.019868
0.007082
0.068660
0.028036
-0.150071
-0.148175
-0.148807
0.099658
0.092074
0.001339
0.042620
-0.140412
-0.145122
-0.148623
-0.009302
-0.006528
-0.008278
-0.006479
-0.112626
-0.016564
0.055188
0.030369
-0.132277
-0.139421
-0.218475
-0.057514
0.045457
0.086184
0.078805
-0.178289
-0.187681
-0.202303
0.060456
0.056874
-0.148818
-0.082908
-0.005163
-0.008548
-0.163423
-0.008279
-0.073924
-0.107041
0.063007
0.083035
-0.003568
-0.021705
-0.031866
-0.187813
-0.041186
-0.011339
-0.009894
-0.154961
0.115573
-0.240217
-0.008975
-0.010193
-0.194089
0.055897
0.022291
0.008989
-0.113288
0.012642
-0.006473
-0.135753
0.051246
-0.129873
-0.025022
-0.029813
0.004795
-0.109745
0.017505
-0.121958
-0.048209
-0.019921
-0.018802
-0.125690
0.093500
0.045776
-0.139428
-0.139635
-0.035879
0.009861
-0.265163
-0.280637
-0.272293
-0.124238
-0.153333
0.021564
-0.173075
0.004379
0.045738
0.043914
-0.058808
-0.175832
-0.186019
-0.126214
0.076405
0.070315
0.001391
0.000896
-0.097700
-0.109828
-0.175993
-0.181256
0.006544
-0.146147
-0.065474
-0.067974
-0.155182
-0.212467
0.029355
0.023022
0.026219
0.035859
-0.072344
0.068628
0.052160
-0.048889
-0.133848
-0.139304
0.037029
0.026804
-0.133851
0.016070
-0.018234
-0.156670
0.053958
-0.100832
-0.168775
0.030976
0.039942
-0.090546
-0.090184
-0.143732
-0.152690
0.030681
0.032018
0.034122
-0.036915
0.006837
-0.057562
-0.127737
-0.173089
-0.005406
0.001816
-0.128314
-0.146095
0.018816
0.035173
-0.025699
-0.014658
-0.022409
0.066983
0.099193
-0.075387
-0.073432
-0.103087
-0.184140
0.041584
-0.137742
-0.041581
-0.040258
-0.044691
-0.007614
-0.151580
0.025491
-0.141074
-0.072115
0.035996
-0.133150
-0.110666
-0.120603
-0.150899
-0.078973
-0.068879
-0.147402
0.029427
-0.130940
-0.056544
-0.037725
-0.057864
-0.035990
-0.083652
-0.080168
0.004368
-0.138298
-0.141545
-0.047007
-0.052492
-0.037485
-0.104643
-0.113834
-0.099753
-0.120828
-0.095948
-0.045126
-0.114548
-0.096636
-0.058307
-0.042893
-0.130491
0.040359
0.031759
-0.068239
-0.138444
-0.135329
-0.050911
-0.013819
-0.006094
-0.098486
-0.031322
-0.127822
-0.141302
-0.034774
0.004797
0.014110
0.021144
0.040512
-0.148279
-0.000510
-0.136552
-0.098581
-0.139776
0.026874
-0.063662
0.006461
-0.152612
-0.005837
-0.010822
-0.013123
-0.156730
-0.027766
-0.103510
-0.113832
-0.050927
-0.066353
-0.149479
-0.022333
0.017490
-0.092994
-0.122485
-0.033488
SCALARS UY float 1
LOOKUP_TABLE default
-0.000001
-0.000001
-0.504999
-0.505000
-0.125032
-0.323606
-0.000000
-0.000001
-0.000000
-0.000000
-0.000000
-0.000000
-0.000000
-0.000000
-0.000000
-0.000000
-0.000000
-0.000000
-0.000000
-0.000000
-0.000001
-0.000000
-0.043844
-0.075189
-0.098889
-0.121610
-0.142873
-0.163989
-0.184753
-0.204619
-0.224302
-0.243458
-0.262784
-0.282400
-0.304580
-0.338427
-0.385842
-0.445143
-0.504999
-0.504999
-0.505000
-0.505000
-0.505000
-0.505000
-0.505000
-0.505000
-0.505000
-0.505000
-0.505000
-0.505000
-0.505000
-0.505000
-0.505000
-0.505000
-0.476741
-0.448639
-0.421229
-0.394596
-0.368764
-0.344718
-0.322180
-0.301197
-0.281528
-0.262797
-0.244395
-0.226018
-0.205385
-0.177783
-0.133052
-0.084327
-0.126728
-0.128405
-0.129310
-0.133264
-0.135631
-0.138279
-0.140856
-0.142262
-0.143226
-0.145154
-0.145667
-0.149126
-0.150256
-0.154210
-0.159120
-0.159826
-0.162957
-0.164586
-0.168020
-0.171324
-0.173730
-0.175728
-0.177358
-0.180654
-0.183744
-0.183602
-0.187515
-0.191091
-0.192631
-0.196388
-0.199859
-0.201841
-0.208301
-0.206356
-0.212329
-0.214935
-0.216333
-0.217032
-0.221172
-0.222893
-0.225443
-0.228852
-0.231002
-0.235738
-0.240168
-0.243761
-0.246961
-0.251367
-0.255229
-0.259203
-0.265232
-0.269985
-0.270383
-0.274753
-0.277809
-0.280552
-0.288948
-0.291455
-0.294430
-0.297800
-0.301636
-0.308431
-0.312184
-0.317975
-0.318886
-0.322791
-0.015155
-0.007755
-0.017182
-0.281750
-0.290137
-0.293138
-0.008839
-0.144923
-0.146176
-0.134792
-0.040113
-0.043334
-0.046598
-0.050873
-0.115257
-0.108048
-0.111749
-0.274641
-0.274008
-0.278232
-0.194069
-0.206026
-0.200242
-0.242805
-0.245552
-0.254476
-0.276325
-0.134049
-0.125050
-0.328899
-0.334740
-0.327214
-0.334422
-0.319341
-0.327356
-0.325655
-0.006267
-0.015834
-0.007953
-0.483682
-0.465591
-0.464491
-0.214730
-0.210512
-0.448812
-0.199032
-0.222310
-0.228926
-0.227729
-0.276120
-0.272409
-0.276037
-0.102366
-0.097822
-0.097584
-0.270768
-0.154001
-0.162851
-0.168961
-0.232341
-0.226275
-0.229377
-0.013804
-0.197733
-0.186480
-0.186851
-0.015638
-0.011431
-0.178396
-0.020258
-0.166162
-0.173328
-0.156303
-0.140604
-0.140273
-0.135526
-0.238125
-0.236733
-0.231054
-0.135562
-0.244674
-0.053077
-0.056841
-0.051339
-0.061209
-0.166582
-0.161760