# vtk DataFile Version 2.0
Test
ASCII
DATASET POLYDATA
POINTS 1818 float
0.000000 0.000000 0.000000
1.000000 0.000000 0.000000
1.000000 1.000000 0.000000
0.000000 1.000000 0.000000
0.300000 0.330000 0.000000
0.700000 0.680000 0.000000
0.058824 0.000000 0.000000
0.117647 0.000000 0.000000
0.176471 0.000000 0.000000
0.235294 0.000000 0.000000
0.294118 0.000000 0.000000
0.352941 0.000000 0.000000
0.411765 0.000000 0.000000
0.470588 0.000000 0.000000
0.529412 0.000000 0.000000
0.588235 0.000000 0.000000
0.647059 0.000000 0.000000
0.705882 0.000000 0.000000
0.764706 0.000000 0.000000
0.823529 0.000000 0.000000
0.882353 0.000000 0.000000
0.941176 0.000000 0.000000
1.000000 0.058824 0.000000
1.000000 0.117647 0.000000
1.000000 0.176471 0.000000
1.000000 0.235294 0.000000
1.000000 0.294118 0.000000
1.000000 0.352941 0.000000
1.000000 0.411765 0.000000
1.000000 0.470588 0.000000
1.000000 0.529412 0.000000
1.000000 0.588235 0.000000
1.000000 0.647059 0.000000
1.000000 0.705882 0.000000
1.000000 0.764706 0.000000
1.000000 0.823529 0.000000
1.000000 0.882353 0.000000
1.000000 0.941176 0.000000
0.941176 1.000000 0.000000
0.882353 1.000000 0.000000
0.823529 1.000000 0.000000
0.764706 1.000000 0.000000
0.705882 1.000000 0.000000
0.647059 1.000000 0.000000
0.588235 1.000000 0.000000
0.529412 1.000000 0.000000
0.470588 1.000000 0.000000
0.411765 1.000000 0.000000
0.352941 1.000000 0.000000
0.294118 1.000000 0.000000
0.235294 1.000000 0.000000
0.176471 1.000000 0.000000
0.117647 1.000000 0.000000
0.058824 1.000000 0.000000
0.000000 0.941176 0.000000
0.000000 0.882353 0.000000
0.000000 0.823529 0.000000
0.000000 0.764706 0.000000
0.000000 0.705882 0.000000
0.000000 0.647059 0.000000
0.000000 0.588235 0.000000
0.000000 0.529412 0.000000
0.000000 0.470588 0.000000
0.000000 0.411765 0.000000
0.000000 0.352941 0.000000
0.000000 0.294118 0.000000
0.000000 0.235294 0.000000
0.000000 0.176471 0.000000
0.000000 0.117647 0.000000
0.000000 0.058824 0.000000
0.305970 0.335224 0.000000
0.311940 0.340448 0.000000
0.317910 0.345672 0.000000
0.323881 0.350896 0.000000
0.329851 0.356119 0.000000
0.335821 0.361343 0.000000
0.341791 0.366567 0.000000
0.347761 0.371791 0.000000
0.353731 0.377015 0.000000
0.359701 0.382239 0.000000
0.365672 0.387463 0.000000
0.371642 0.392687 0.000000
0.377612 0.397910 0.000000
0.383582 0.403134 0.000000
0.389552 0.408358 0.000000
0.395522 0.413582 0.000000
0.401493 0.418806 0.000000
0.407463 0.424030 0.000000
0.413433 0.429254 0.000000
0.419403 0.434478 0.000000
0.425373 0.439701 0.000000
0.431343 0.444925 0.000000
0.437313 0.450149 0.000000
0.443284 0.455373 0.000000
0.449254 0.460597 0.000000
0.455224 0.465821 0.000000
0.461194 0.471045 0.000000
0.467164 0.476269 0.000000
0.473134 0.481493 0.000000
0.479104 0.486716 0.000000
0.485075 0.491940 0.000000
0.491045 0.497164 0.000000
0.497015 0.502388 0.000000
0.502985 0.507612 0.000000
0.508955 0.512836 0.000000
0.514925 0.518060 0.000000
0.520896 0.523284 0.000000
0.526866 0.528507 0.000000
0.532836 0.533731 0.000000
0.538806 0.538955 0.000000
0.544776 0.544179 0.000000
0.550746 0.549403 0.000000
0.556716 0.554627 0.000000
0.562687 0.559851 0.000000
0.568657 0.565075 0.000000
0.574627 0.570299 0.000000
0.580597 0.575522 0.000000
0.586567 0.580746 0.000000
0.592537 0.585970 0.000000
0.598507 0.591194 0.000000
0.604478 0.596418 0.000000
0.610448 0.601642 0.000000
0.616418 0.606866 0.000000
0.622388 0.612090 0.000000
0.628358 0.617313 0.000000
0.634328 0.622537 0.000000
0.640299 0.627761 0.000000
0.646269 0.632985 0.000000
0.652239 0.638209 0.000000
0.658209 0.643433 0.000000
0.664179 0.648657 0.000000
0.670149 0.653881 0.000000
0.676119 0.659104 0.000000
0.682090 0.664328 0.000000
0.688060 0.669552 0.000000
0.694030 0.674776 0.000000
0.516135 0.080917 0.000000
0.549338 0.042552 0.000000
0.567302 0.088709 0.000000
0.555658 0.563778 0.000000
0.559301 0.571359 0.000000
0.552318 0.570919 0.000000
0.603235 0.047100 0.000000
0.446553 0.448087 0.000000
0.438652 0.443189 0.000000
0.445116 0.440368 0.000000
0.437254 0.190586 0.000000
0.465954 0.201747 0.000000
0.439184 0.213838 0.000000
0.453137 0.228102 0.000000
0.522423 0.410182 0.000000
0.522098 0.390982 0.000000
0.537289 0.398500 0.000000
0.453388 0.527105 0.000000
0.462022 0.524948 0.000000
0.461218 0.533993 0.000000
0.324300 0.374550 0.000000
0.319287 0.386214 0.000000
0.314834 0.375138 0.000000
0.668809 0.628853 0.000000
0.677366 0.632907 0.000000
0.668274 0.639611 0.000000
0.469934 0.529282 0.000000
0.439703 0.436699 0.000000
0.446608 0.432083 0.000000
0.542854 0.633425 0.000000
0.535117 0.647070 0.000000
0.524302 0.633157 0.000000
0.519372 0.648877 0.000000
0.586338 0.611293 0.000000
0.591638 0.624149 0.000000
0.575478 0.621479 0.000000
0.437962 0.035513 0.000000
0.421505 0.085456 0.000000
0.394924 0.044162 0.000000
0.445207 0.955749 0.000000
0.429168 0.919510 0.000000
0.464409 0.914226 0.000000
0.317150 0.400904 0.000000
0.328626 0.395860 0.000000
0.439616 0.884412 0.000000
0.330406 0.381773 0.000000
0.676842 0.602700 0.000000
0.674982 0.614185 0.000000
0.665930 0.611798 0.000000
0.414707 0.535036 0.000000
0.420123 0.526072 0.000000
0.425338 0.533771 0.000000
0.398407 0.375558 0.000000
0.393804 0.363255 0.000000
0.407284 0.365452 0.000000
0.407758 0.523337 0.000000
0.899969 0.377867 0.000000
0.945915 0.378245 0.000000
0.914158 0.409130 0.000000
0.358219 0.436142 0.000000
0.361390 0.425428 0.000000
0.369309 0.432300 0.000000
0.465999 0.075074 0.000000
0.269944 0.367761 0.000000
0.266521 0.352125 0.000000
0.283474 0.357667 0.000000
0.385889 0.083020 0.000000
0.359482 0.060981 0.000000
0.279658 0.346766 0.000000
0.363604 0.104040 0.000000
0.511115 0.503731 0.000000
0.503243 0.499914 0.000000
0.509146 0.494910 0.000000
0.513188 0.475753 0.000000
0.504957 0.474656 0.000000
0.511959 0.464784 0.000000
0.311863 0.447505 0.000000
0.293019 0.442078 0.000000
0.305555 0.431691 0.000000
0.499204 0.464990 0.000000
0.293855 0.459576 0.000000
0.396676 0.236328 0.000000
0.371014 0.247362 0.000000
0.373003 0.229199 0.000000
0.384478 0.261522 0.000000
0.555704 0.523331 0.000000
0.551313 0.515879 0.000000
0.562752 0.515269 0.000000
0.554954 0.506854 0.000000
0.804236 0.611103 0.000000
0.819351 0.593503 0.000000
0.832061 0.615776 0.000000
0.509908 0.485173 0.000000
0.129738 0.481190 0.000000
0.110722 0.443736 0.000000
0.154857 0.452634 0.000000
0.089738 0.485299 0.000000
0.396427 0.153886 0.000000
0.393058 0.115469 0.000000
0.420333 0.126587 0.000000
0.442628 0.413512 0.000000
0.434815 0.404283 0.000000
0.446816 0.400259 0.000000
0.499770 0.482873 0.000000
0.353883 0.235057 0.000000
0.351360 0.254011 0.000000
0.332147 0.240870 0.000000
0.112307 0.405527 0.000000
0.140355 0.392788 0.000000
0.142004 0.423465 0.000000
0.334868 0.263052 0.000000
0.551239 0.594093 0.000000
0.560217 0.601969 0.000000
0.546711 0.604614 0.000000
0.398510 0.570197 0.000000
0.387124 0.557316 0.000000
0.399978 0.555748 0.000000
0.705281 0.743146 0.000000
0.722930 0.758853 0.000000
0.697202 0.758074 0.000000
0.380190 0.572638 0.000000
0.278345 0.431947 0.000000
0.292575 0.428097 0.000000
0.470820 0.540616 0.000000
0.478213 0.533042 0.000000
0.480161 0.543190 0.000000
0.415268 0.299334 0.000000
0.412465 0.313515 0.000000
0.400419 0.297680 0.000000
0.396495 0.317117 0.000000
0.718655 0.732879 0.000000
0.709319 0.677587 0.000000
0.715709 0.670111 0.000000
0.719283 0.682820 0.000000
0.212992 0.453899 0.000000
0.184619 0.470046 0.000000
0.186665 0.440862 0.000000
0.452307 0.386568 0.000000
0.460371 0.397715 0.000000
0.478664 0.456068 0.000000
0.476179 0.462123 0.000000
0.471250 0.456445 0.000000
0.464654 0.388544 0.000000
0.483415 0.461045 0.000000
0.357146 0.449596 0.000000
0.344653 0.443966 0.000000
0.554562 0.459423 0.000000
0.543333 0.457517 0.000000
0.553850 0.449505 0.000000
0.543131 0.445036 0.000000
0.347312 0.459318 0.000000
0.781088 0.538918 0.000000
0.810909 0.534152 0.000000
0.799399 0.553968 0.000000
0.402869 0.534333 0.000000
0.408011 0.546121 0.000000
0.703844 0.670118 0.000000
0.552234 0.794299 0.000000
0.528593 0.795589 0.000000
0.539188 0.770312 0.000000
0.596088 0.518714 0.000000
0.593029 0.508081 0.000000
0.604120 0.510731 0.000000
0.384880 0.468703 0.000000
0.382270 0.455963 0.000000
0.394062 0.458803 0.000000
0.374729 0.466839 0.000000
0.340939 0.294790 0.000000
0.324530 0.290188 0.000000
0.338473 0.279923 0.000000
0.465367 0.336545 0.000000
0.477337 0.352846 0.000000
0.459495 0.350024 0.000000
0.584947 0.516440 0.000000
0.326802 0.302636 0.000000
0.945343 0.420397 0.000000
0.779746 0.749037 0.000000
0.771533 0.774140 0.000000
0.758291 0.749848 0.000000
0.743435 0.765852 0.000000
0.751942 0.297541 0.000000
0.784264 0.292048 0.000000
0.772562 0.330207 0.000000
0.812744 0.305799 0.000000
0.655547 0.494535 0.000000
0.649767 0.472522 0.000000
0.671966 0.480244 0.000000
0.612062 0.502007 0.000000
0.616789 0.515227 0.000000
0.403059 0.898561 0.000000
0.391512 0.946883 0.000000
0.625780 0.504699 0.000000
0.635988 0.491275 0.000000
0.596252 0.650380 0.000000
0.583401 0.655132 0.000000
0.583737 0.644777 0.000000
0.713099 0.416502 0.000000
0.708474 0.388943 0.000000
0.733625 0.389568 0.000000
0.684835 0.406222 0.000000
0.656936 0.416423 0.000000
0.633624 0.425116 0.000000
0.634362 0.400237 0.000000
0.646884 0.740682 0.000000
0.654954 0.726002 0.000000
0.663305 0.741855 0.000000
0.732481 0.441235 0.000000
0.751303 0.460839 0.000000
0.721338 0.462235 0.000000
0.759622 0.437863 0.000000
0.462761 0.363156 0.000000
0.373644 0.622389 0.000000
0.346217 0.613642 0.000000
0.370315 0.594521 0.000000
0.351411 0.640635 0.000000
0.695337 0.690220 0.000000
0.705202 0.700133 0.000000
0.692303 0.700990 0.000000
0.521365 0.516400 0.000000
0.522992 0.510597 0.000000
0.527633 0.513574 0.000000
0.291567 0.329512 0.000000
0.294927 0.318154 0.000000
0.365771 0.366553 0.000000
0.366135 0.358691 0.000000
0.374180 0.368122 0.000000
0.408232 0.327056 0.000000
0.423479 0.328280 0.000000
0.411272 0.339740 0.000000
0.664110 0.670607 0.000000
0.667245 0.662649 0.000000
[...]
POINT_DATA 1818
SCALARS UX float 1
LOOKUP_TABLE default
-0.000006
0.000004
0.537469
-1.673629
-0.180539
0.194403
0.000001
-0.000001
-0.000000
-0.000000
-0.000000
-0.000000
-0.000000
-0.000000
-0.000000
0.000000
0.000000
0.000000
0.000000
0.000000
0.000001
-0.000000
0.102035
0.192147
0.277533
0.361405
0.424797
0.476310
0.519060
0.543920
0.567994
0.600448
0.636612
0.672711
0.700095
0.695987
0.663415
0.604857
0.436400
0.318233
0.213829
0.115021
0.018922
-0.079761
-0.187096
-0.298468
-0.424329
-0.575133
-0.741545
-0.926887
-1.115663
-1.289755
-1.452640
-1.566561
-1.610074
-1.530976
-1.404074
-1.297226
-1.166688
-1.059649
-0.961485
-0.875662
-0.796721
-0.719150
-0.643469
-0.565688
-0.486916
-0.402808
-0.264994
-0.130452
-0.182008
-0.181348
-0.183674
-0.184353
-0.183719
-0.186139
-0.188819
-0.190622
-0.190810
-0.190818
-0.191395
-0.190001
-0.189896
-0.190549
-0.191123
-0.191901
-0.195095
-0.195473
-0.194415
-0.193494
-0.193474
-0.193871
-0.193852
-0.193625
-0.194349
-0.193474
-0.192519
-0.188530
-0.185585
-0.218453
-0.213017
-0.209710
-0.201831
-0.196066
-0.190954
-0.181382
-0.175399
-0.166987
-0.159466
-0.150180
-0.139153
-0.128862
-0.117546
-0.107801
-0.094486
-0.082286
-0.068037
-0.051991
-0.035436
-0.018994
-0.040278
-0.017562
-0.001372
0.014666
0.031855
0.046799
0.060316
0.076284
0.090937
0.104003
0.116994
0.132327
0.148062
0.162357
0.175363
0.180471
-0.005870
-0.002421
-0.006376
-0.185448
-0.191511
-0.216579
-0.003172
-0.155488
-0.159219
-0.145747
-0.026819
-0.029474
-0.034021
-0.038370
-0.081974
-0.079409
-0.072604
-0.398563
-0.384028
-0.390933
-0.305517
-0.321162
-0.299226
0.205869
0.170157
0.172032
-0.373911
-0.148279
-0.131854
-0.256994
-0.268837
-0.296845
-0.302834
-0.146935
-0.133784
-0.181637
-0.001356
-0.006228
-0.001746
-0.463400
-0.486958
-0.405653
-0.347969
-0.335498
-0.461928
-0.317696
0.240641
0.240597
0.215612
-0.449573
-0.438502
-0.436357
-0.113245
-0.108569
-0.106584
-0.450246
0.360197
0.428890
0.404748
-0.393298
-0.370528
-0.381358
-0.005413
-0.330999
-0.302933
-0.286466
-0.005053
-0.002290
-0.267927
-0.006454
-0.133508
-0.146340
-0.121261
-0.095156
-0.105127
-0.093273
-0.436772
-0.445484
-0.409326
-0.107096
-0.473414
-0.043589
-0.048874
-0.040886
-0.055604
-0.055424
-0.057813
-0.033592
-0.045534
0.421805
0.430049
0.458891
-0.105725
-0.676471
-0.646139
-0.610699
-0.723203
-0.017244
-0.009666
-0.012431
-0.122867
-0.121515
-0.113285
-0.119720
-0.043283
-0.052040
-0.045830
-0.592627
-0.544436
-0.584516
-0.055910
-0.244657
-0.223093
-0.256874
-0.491768
-0.497625
-0.479809
0.131958
0.163065
0.104920
-0.520477
-0.446212
-0.421089
-0.379826
-0.362182
-0.366340
-0.073749
-0.081663
-0.074272
-0.085248
0.171910
0.230895
0.257240
0.250635
-0.551898
-0.604655
-0.560707
-0.105745
-0.107375
-0.124061
-0.129116
-0.130902
-0.102098
-0.122501
-0.412583
-0.410817
-0.056908
-0.066541
-0.059054
-0.068509
-0.430515
0.343118
0.381259
0.380447
-0.462749
-0.463966
0.224910
-0.201312
-0.257737
-0.231074
0.015935
0.005481
0.022263
-0.421966
-0.403806
-0.397470
-0.424632
-0.079759
-0.080140
-0.068707
-0.083243
-0.085813
-0.091305
-0.001400
-0.091116
0.454656
0.322877
0.269068
0.258360
0.207377
0.050922
0.081381
0.105254
0.141050
0.089672
0.059942
0.104192
0.027570
0.044435
-0.550168
-0.597662
0.049653
0.054177
-0.119587
-0.150202
-0.152970
0.106554
0.075008
0.110482
0.057387
0.029947
0.009125
-0.002379
0.004486
0.028449
0.040590
0.171261
0.213013
0.173403
0.214556
-0.093640
-0.571821
-0.604293
-0.546300
-0.618946
0.152008
0.170272
0.131401
-0.141949
-0.122939
-0.116428
-0.200223
-0.155947
-0.121174
-0.114815
-0.115731
-0.089183
-0.088215
-0.094918
0.067657
0.074532
0.096237
-0.439279
-0.466231
-0.456644
-0.482937
0.013211
0.009804
-0.022717
-0.130963
-0.043668
-0.036566
-0.044645
-0.127076
-0.130608
-0.110577
-0.134433
-0.151756
-0.151317
-0.354988
-0.378204
-0.376086
-0.133920
-0.159852
-0.156090
-0.078992
0.147787
0.192620
0.125876
0.167213
-0.036445
-0.108309
-0.320090
-0.290876
-0.281519
-0.319210
-0.415580
-0.377914
-0.410402
-0.289066
-0.319898
-0.286159
-0.141638
-0.145800
-0.290457
-0.008453
-0.005244
-0.532452
-0.500719
-0.511583
-0.152026
-1.079393
-0.968506
-1.014640
-0.922920
-0.267964
-0.331829
-0.347914
-0.342235
-0.330821
-0.246552
-0.240801
0.220366
0.234750
0.195400
0.254609
-0.471392
-0.449526
-0.420588
-0.156969
-0.192159
-0.139084
-0.074929
-0.054830
-0.031245
-0.003662
-0.106025
-0.168260
-0.220663
0.288338
0.282600
-0.214029
-0.351730
-0.341632
-0.053520
-0.093158
-0.099775
-0.346390
-0.250671
-0.244161
-0.246155
-0.187016
-0.211903
-0.264052
-0.284590
-0.079385
-0.072294
-0.094866
-0.086760
-0.087347
-0.091446
-0.038580
-0.047149
-0.054620
-0.973796
-0.893948
-0.872231
-1.001219
-0.985841
-1.059256
-0.923986
0.035939
0.004109
-0.154739
-0.149221
-0.290865
-0.314246
-0.290654
-0.317419
-0.267101
-0.283722
-0.259221
-0.405529
-0.407147
-0.384796
-0.400156
-0.404205
-0.413264
-0.415166
-0.394440
-0.148317
-0.159944
-0.159793
-0.042973
-0.050148
-0.042875
-0.053266
0.251009
0.187843
0.211952
0.285772
0.312549
-0.217722
-0.226390
-0.250172
-0.037696
-0.022480
-0.064844
-0.378524
-0.367629
-0.393746
-0.050488
-0.013518
-0.335532
-0.032177
-0.065842
-0.084340
-0.100625
-0.101656
-0.107285
-0.044372
-0.034211
-0.032298
-0.069057
-0.060592
-0.081988
-0.020256
-0.916220
-0.881873
-0.928713
-0.858438
-0.871404
-0.054460
-0.057418
-0.073862
-0.066640
-0.077008
-0.061476
-0.057270
-0.696791
-0.092984
-0.043768
-0.097925
-0.043695
-0.302278
-0.354051
-0.288873
0.049936
0.050064
0.083154
-0.059529
-0.064905
0.246269
-0.059290
-0.054119
0.037924
0.071968
0.056227
-0.391790
-0.365854
-0.383104
-0.131323
-0.167082
-0.922580
-0.034416
-0.022753
-0.034078
-0.113256
-0.104848
-0.352889
-0.307174
-0.288034
-0.100931
-0.017782
-0.494747
-0.521405
-0.500776
-0.368297
-0.329900
-0.338670
-0.121075
-0.087228
-0.105641
-0.096128
-0.146048
0.176020
0.162888
-0.302450
-0.246338
-0.270567
-0.105453
-0.101510
-0.576360
-0.547933
-0.571777
-0.094056
-0.023428
-0.029615
-0.022935
-0.609637
-0.644300
-0.604442
-0.136271
-0.170064
-0.107548
-0.051497
-0.068180
-0.073018
-1.147389
-0.953082
-0.067908
-0.352963
-0.399374
-0.076964
-0.047435
-0.031186
-1.020962
-0.049152
-0.075831
-0.334487
-0.332468
0.225483
0.259818
0.239356
-0.352916
-0.083930
-0.084153
0.079138
-0.412438
-0.404323
-0.408104
-0.167359
-0.152222
-0.031172
-0.414719
-0.113519
-0.113710
-0.403220
-0.202173
-0.226540
-0.181255
-0.245930
0.363805
0.320662
0.324371
0.080766
0.067751
0.048151
-0.452393
-0.403209
-0.374738
-0.067946
-0.063293
-0.114254
-0.147108
-0.140473
-0.129697
-0.012627
-0.377618
-0.360319
-0.160923
-0.161695
-0.248700
0.358806
0.411939
0.382947
0.492273
0.445013
-0.023755
-0.016060
-0.018897
-0.315820
-0.127294
-0.095460
-0.091070
-0.096430
-0.244492
-0.295821
-0.202109
-0.165714
0.102192
-0.232653
-0.214137
-0.449996
-0.465715
-0.437797
-0.406092
-0.392380
-0.406749
-0.317120
0.292379
0.269885
0.293597
-0.390835
-0.022735
0.379572
0.080692
0.072385
-0.093558
-0.058562
-0.088268
-0.057956
-0.063714
-0.029634
-0.120500
-0.289409
-0.059518
-0.309851
-0.263202
-0.799766
-0.823673
-0.080525
-0.075268
-0.126347
-0.154612
-0.087799
0.018719
-0.841415
-0.019411
-0.742720
-0.771233
-0.722142
-0.023277
0.253308
0.233717
0.209017
0.205560
-0.091271
-0.083509
-0.144771
-0.118315
-0.105165
0.169287
0.175419
0.150628
0.147770
0.221275
0.233981
-0.845000
-0.812877
0.342486
-1.345609
-1.233567
-1.386786
0.344879
0.349051
0.322362
-0.261847
-0.295089
-0.212493
0.377842
0.357397
0.134951
0.049189
0.104681
0.032355
-0.343762
-0.060424
-0.070183
-0.067927
0.392365
0.407473
0.434145
-1.149281
-1.292881
-1.257342
0.451858
-0.266179
-0.255115
-0.310149
-0.295376
-0.294712
-0.405915
0.001060
0.001546
0.005263
0.581572
0.550319
0.604528
0.530642
0.579492
0.614238
0.642981
-0.136561
-0.150612
-0.554634
-0.488940
-0.487753
-0.195099
-0.034269
-0.073227
-0.537810
-0.541147
-0.593837
-0.507661
-0.478044
-0.652144
-0.035729
-0.067904
-0.772955
-0.018389
-0.664777
-0.586741
-0.595361
0.502196
0.545749
0.033661
0.027373
0.106420
0.314026
0.241633
0.342326
0.201393
0.097381
0.286978
-0.093543
-0.087048
-0.222944
-0.299505
-0.321130
-0.239460
-0.546625
-0.576279
-0.535889
-0.768737
-0.711041
-0.002875
-0.009994
0.001836
-0.004796
-0.001145
-0.012730
0.019764
-0.004860
-0.645201
-0.000960
0.003045
-0.133882
-0.156741
-0.162544
0.556354
0.515499
-0.573158
0.354068
0.340811
0.323833
0.369442
-0.696370
-0.645955
-0.646566
0.392345
-0.007872
0.500475
0.114762
-0.016417
-0.046182
-0.043046
-0.190885
-0.005019
-0.016580
-0.085426
-0.050032
-0.053443
0.398828
0.300237
-0.078456
-0.513118
-0.522402
-0.005125
-0.187458
0.005487
0.024133
-0.000770
0.037865
-0.380020
-0.401908
-0.622154
-0.327312
0.009617
0.000573
-0.019897
-0.026883
-0.023198
0.013641
-0.005362
-0.803345
-0.787225
-0.856533
-0.753482
-0.254999
-0.697124
-0.743847
-0.753245
-0.688571
-0.645365
-0.306483
-0.271133
-0.583048
-0.523957
-0.284242
-0.056729
-0.044171
-0.171971
-0.100619
-0.974958
-1.024184
-0.875269
-0.096801
-0.099527
-0.091368
-0.366493
-0.393786
-0.101647
-0.100097
-0.601996
-0.596403
-0.558708
-0.493906
-0.472452
-0.483350
-0.110309
-0.147258
-0.739937
-0.089366
-0.029653
-0.033438
-0.513032
-0.659999
-0.663760
-0.695804
-0.519323
-0.559688
0.055521
0.021648
-0.678160
-0.724045
-0.724550
-0.767964
-0.038460
-0.040474
-0.453776
0.271089
-0.162742
-0.138355
-0.035130
-0.048806
-0.045188
-0.178531
-0.055365
-0.623823
-0.428660
-0.433849
-0.460857
-0.492757
-0.610496
-0.652269
-0.635434
-0.097446
-0.102909
-0.691202
-0.001866
0.117872
0.111539
-0.810953
-0.741197
-0.806739
-0.185703
-0.236463
-0.217865
-0.377933
0.448148
0.494348
0.450350
0.410543
0.415933
-0.448355
-0.435495
-0.659421
-0.620139
-0.694019
0.163562
0.411578
0.327376
0.477104
-0.759144
-0.811646
-0.800536
-0.805164
-0.724356
-0.390642
-0.479235
-0.748946
-0.080561
-0.088512
-0.075183
-0.353437
-0.325024
-0.383861
0.276866
0.283716
0.307644
-0.213833
0.411333
0.398936
-0.533747
-0.184977
-0.115490
-1.182134
-1.293534
-0.264770
-0.329903
0.062757
0.048557
0.037166
-0.094523
-0.089022
0.088893
-0.079962
0.115666
-0.405388
-0.460698
0.310724
0.320264
0.144165
-0.027123
-0.095031
0.415241
0.367602
0.435766
0.326372
-0.038500
-0.044633
-0.014611
-0.019184
-0.062953
-0.147453
-0.201033
-0.072972
-1.010235
-0.855887
-0.897910
-0.334838
-0.309580
-0.064815
-0.057404
-0.324190
-0.348958
-0.338374
-0.099282
-0.101388
-0.093924
-0.428075
-0.399897
-0.408154
-0.544063
0.339618
0.356492
0.375172
-0.389174
-0.436025
-0.452307
-0.024995
-0.023119
-0.033204
-0.477277
-0.429772
-0.033529
-0.389186
-0.150553
-0.514222
-0.521884
0.470247
-0.108025
0.171826
0.113253
-0.418820
-0.432799
0.043647
0.008920
-0.013361
-0.804286
0.036990
-0.463090
-0.471976
-0.424176
-0.438429
-0.454120
-0.445178
0.175770
0.168746
0.188909
0.205051
-0.008714
-0.008153
-0.014469
-0.009496
-0.342183
-0.379093
-0.371482
-0.370184
-0.198493
0.136632
0.143984
0.105904
0.630491
0.575889
0.476324
-0.055168
0.111025
-0.100886
-0.401245
-0.390965
-0.358248
-0.499164
-0.088551
-0.022457
-0.090314
-0.058629
-0.102918
-0.075646
-0.071949
-0.011784
-0.064080
-0.055026
-0.067821
0.285930
-0.001564
-0.006492
-0.003505
0.095141
-0.003081
-0.034078
-0.027487
0.377323
-0.627969
-0.683359
-0.622050
-0.687882
-0.752132
0.340040
0.259004
0.288364
0.230677
0.217243
0.214375
-0.478487
-0.108765
-0.005663
-0.008748
-0.017260
-0.098098
-0.090321
-0.096289
0.483717
0.518756
0.284237
-0.577177
-0.545140
-0.070237
-0.078719
0.086925
0.230527
0.164232
0.165113
-0.426215
-0.429973
-0.109209
-0.126628
-0.026928
-0.490062
-0.469842
0.061917
-0.519765
-0.022861
-0.024897
-0.035266
0.064098
0.085809
0.276637
0.239643
-0.582211
-0.579557
-0.538555
-0.532327
-0.583760
-0.623740
-0.031632
-0.043907
-0.497774
-0.024552
-0.027803
-0.011603
0.480782
0.508125
-0.049748
0.087652
0.099630
0.045972
-0.047960
-0.329157
-0.046902
-0.065860
-0.070312
-0.481080
-0.467294
0.308299
-0.008862
-0.015586
-0.023812
0.128344
-0.047887
-0.134346
-0.165789
0.183010
0.202586
0.188857
-0.330461
-0.323956
-0.291562
-0.050598
-0.030800
-0.018951
-0.023675
0.072887
-0.033010
-0.022200
-0.006781
-0.154447
0.089083
-0.017958
0.279970
0.303437
0.316993
0.260154
0.292891
0.486970
-0.399327
-0.205725
-0.352602
-0.422583
-0.382113
-0.371046
-0.438727
-0.270126
-0.018750
0.209096
0.187552
-0.035528
-0.023554
0.245148
0.242724
0.023166
0.006117
-0.012985
-0.224590
-0.260748
0.043097
-0.012647
-0.444665
0.265500
0.254359
0.201683
0.187518
-0.425219
-0.475157
-0.346916
0.145670
0.136882
-0.021277
-0.039475
-0.028325
-0.017632
0.125925
0.626791
0.015362
0.143729
0.098401
0.097613
-0.053074
-0.218583
-0.136104
0.526881
-0.064598
-0.194316
0.147273
0.144218
-0.124804
-0.192317
-0.292240
-0.330599
-0.282530
-0.544128
0.032402
0.008673
-0.137013
-0.163621
-0.153334
-0.532045
-0.293533
-0.596427
0.028420
0.029658
0.009853
0.029145
0.043673
-0.437072
0.131585
-0.244779
-0.064859
-0.368370
-0.413780
-0.223747
-0.198765
-0.189427
-0.221358
-0.143426
-0.262013
-0.492953
-0.130353
0.074334
0.038991
-0.259004
-0.280162
-0.232473
0.172259
-0.078811
-0.071009
-0.255674
-0.107370
0.205063
0.227649
-0.532048
-0.575525
-0.527442
-0.101494
-0.276957
0.210786
0.194711
-0.064156
-0.221560
-0.241816
-0.250271
-0.396752
-0.402159
-0.110403
0.081866
0.360676
0.403295
-0.016245
-0.099479
0.099520
-0.116856
-0.122257
0.019894
-0.108408
-0.047896
0.399710
0.026204
-0.364831
-0.352339
0.118469
-0.125477
-0.113991
0.446411
-0.106731
-0.140608
-0.170176
-0.668914
-0.704074
0.003536
-0.020257
-0.371318
-0.389149
-0.369448
0.427455
-0.387351
-0.250756
-0.300258
0.175778
-0.106915
-0.117096
-0.099761
-0.328800
-0.114097
-0.117884
-0.083643
-0.228677
-0.264683
-0.003676
0.020381
0.035712
0.049823
0.015320
-0.078949
-0.909057
-0.243181
-0.273808
-0.236032
-0.128845
-0.104054
-0.106758
-0.080404
-0.070887
-0.167150
-0.085445
-0.125324
0.021547
0.065650
-0.115049
-0.112015
-0.116743
-0.112483
-0.277339
-0.342127
-0.297817
0.101245
0.110837
0.135324
-0.289924
-0.299130
-0.112560
-0.387539
-0.387238
-0.031290
-0.025917
0.169309
-0.032424
-0.285052
-0.328765
-0.401491
-0.456225
-0.108713
-0.298209
-0.099084
-0.100586
-0.515213
-0.513955
-0.073693
-0.166517
-0.141328
-0.316084
-0.096005
-0.001095
-0.093541
-0.499636
-0.516589
-0.051161
-0.360819
-0.350806
-0.420594
-0.436568
-0.341927
-0.314497
-0.272794
-0.267368
-0.032464
-0.010721
-0.014545
-0.489933
-0.496382
-0.115656
-0.110412
-0.478118
-0.496026
-0.511841
-0.097366
-0.081339
-0.303343
-0.467625
0.165046
0.161500
-0.062417
-0.421895
-0.431999
-0.357957
-0.343584
-0.331209
-0.118666
-0.123553
-0.009538
-0.054620
-0.483901
-0.472845
-0.353256
0.098376
0.123114
-0.080550
-0.122067
-0.423989
-0.000575
0.000197
-0.126516
-0.264574
-0.130825
-0.134357
-0.306619
-0.275469
-0.102352
-0.090518
-0.096132
0.098368
-0.316195
0.116116
-0.160408
0.265730
0.265155
-0.437816
-0.425038
0.011541
0.011622
-0.052499
-0.077719
0.195414
0.177638
-0.085070
-0.176177
0.187937
-0.334678
0.084926
0.031635
0.042916
-0.326976
0.243673
0.010174
-0.135333
-0.053820
-0.066476
0.129621
0.021534
-1.111452
-1.016057
-1.137652
-0.379961
0.284945
-0.009578
0.010255
-0.015997
-0.019249
-0.639497
0.318282
-0.434666
-0.408673
-0.385609
-0.052775
-0.063491
-0.058405
-0.018778
-0.085233
-0.239426
-0.226248
-1.412154
-0.003367
0.436784
0.518018
-1.509770
-1.559695
-0.219919
0.002677
0.052428
0.013038
0.401417
0.522700
0.220006
0.169766
-0.355589
0.237321
-0.350176
-0.153023
-0.059019
0.042532
0.010898
-0.073456
0.266159
0.164829
-0.401959
-0.440507
-0.451908
0.536022
0.506775
-0.018870
0.250709
-0.431226
-0.459520
-0.482889
-0.119679
-0.113843
-0.113492
-0.105642
-0.247280
-0.033878
0.233090
0.010572
-0.269548
-0.422100
-0.724893
-0.087624
0.444127
0.553398
0.510681
-0.662006
-0.729824
-0.617403
0.209810
0.179482
-0.483969
-0.053797
-0.037074
-0.035891
-0.329138
-0.042171
-0.001892
-0.206099
0.242269
0.360379
0.313975
0.264303
0.217559
-0.422362
-0.046652
-0.043495
-0.049765
-0.413942
0.560239
-1.108969
-0.107034
-0.114808
-0.538487
0.114731
-0.008929
-0.060263
-0.246176
-0.047479
0.005053
-0.400828
0.122813
-0.362774
-0.125806
-0.145442
-0.006352
-0.196171
0.003703
-0.310029
0.145055
-0.008098
-0.013108
-0.333844
0.439962
0.069334
-0.321706
-0.322363
-0.023902
0.361287
-1.076640
-1.181080
-1.081545
-0.306756
-0.423791
0.151226
-0.630034
0.008793
0.086021
0.084077
0.052738
-0.650570
-0.723823
-0.239363
0.251104
0.216556
-0.095312
-0.096335
-0.209177
-0.239054
-0.538241
-0.569837
-0.077335
-0.317313
-0.154043
-0.154347
-0.463808
-0.830158
0.004944
-0.001409
0.007515
0.025983
-0.117361
0.175211
0.084239
-0.046598
-0.336199
-0.365881
0.034516
-0.002329
-0.351841
-0.036760
0.216357
-0.414687
0.341557
-0.236163
-0.356572
0.056923
0.057938
-0.102173
-0.102579
-0.415727
-0.387221
0.069501
0.071269
0.090352
-0.100677
-0.065391
0.093900
-0.253738
-0.356881
0.205132
-0.084674
-0.250405
-0.368206
0.134494
0.130308
-0.146782
-0.132432
-0.117968
0.173384
0.368676
-0.098266
-0.084420
-0.235895
-0.596245
0.042908
-0.377935
-0.109313
-0.099586
0.060039
-0.050014
-0.452804
0.047897
-0.344462
-0.157919
0.151483
-0.307752
-0.251060
-0.237945
-0.441781
-0.061369
-0.033609
-0.429057
0.071325
-0.248985
0.052083
-0.119066
-0.157565
-0.167417
-0.137098
-0.118685
-0.076115
-0.339336
-0.351969
-0.125503
0.004335
-0.121394
-0.243555
-0.257158
-0.218564
-0.288341
-0.247999
-0.136067
-0.259278
-0.214367
-0.158968
0.060654
-0.332748
0.221904
0.305140
-0.022744
-0.260902
-0.244961
-0.147141
-0.123285
-0.095524
-0.252252
-0.153313
-0.266830
-0.319084
-0.158735
-0.082987
-0.043557
-0.006558
0.144917
-0.425800
-0.033441
-0.367944
-0.170074
-0.384246
-0.000903
-0.139723
-0.076117
-0.443817
-0.117071
-0.120738
-0.124557
-0.313400
-0.151508
-0.243336
-0.268663
0.046625
-0.160815
-0.425490
-0.127630
-0.028545
-0.122951
-0.291321
-0.116904
SCALARS UY float 1
LOOKUP_TABLE default
-0.000007
-0.000007
-1.489996
-1.489998
-0.150571
-0.827756
-0.000001
-0.000002
-0.000002
-0.000002
-0.000002
-0.000002
-0.000002
-0.000002
-0.000002
-0.000002
-0.000002
-0.000002
-0.000002
-0.000002
-0.000002
-0.000001
-0.099187
-0.208697
-0.309890
-0.409818
-0.488890
-0.572673
-0.646288
-0.712854
-0.776084
-0.833303
-0.887446
-0.942539
-1.008710
-1.088589
-1.200132
-1.341391
-1.489998
-1.489998
-1.489998
-1.489998
-1.489998
-1.489998
-1.489998
-1.489998
-1.489998
-1.489998
-1.489998
-1.489998
-1.489998
-1.489998
-1.489998
-1.489998
-1.435467
-1.353385
-1.263693
-1.135132
-1.020879
-0.930735
-0.852956
-0.782834
-0.718709
-0.654680
-0.591074
-0.526772
-0.457156
-0.359000
-0.228714
-0.105424
-0.150385
-0.153174
-0.154471
-0.155826
-0.157904
-0.159834
-0.159258
-0.160147
-0.161903
-0.164099
-0.166158
-0.171461
-0.175094
-0.177379
-0.179180
-0.180845
-0.182987
-0.185558
-0.189826
-0.193621
-0.196638
-0.198700
-0.201104
-0.205746
-0.207575
-0.209886
-0.215853
-0.222256
-0.226289
-0.262553
-0.268602
-0.272435
-0.281342
-0.288447
-0.292744
-0.302301
-0.307530
-0.315656
-0.322706
-0.332500
-0.344354
-0.355515
-0.367825
-0.379684
-0.394724
-0.408820
-0.423758
-0.441747
-0.460609
-0.478977
-0.525925
-0.550638
-0.567710
-0.587223
-0.608580
-0.627032
-0.644307
-0.664490
-0.683482
-0.700560
-0.717725
-0.736107
-0.754655
-0.771145
-0.785979
-0.810711
-0.008199
-0.000902
-0.011333
-0.446923
-0.472647
-0.480000
-0.004536
-0.169959
-0.170054
-0.159668
-0.032969
-0.035805
-0.039520
-0.044099
-0.119399
-0.108523
-0.112585
-0.433195
-0.426826
-0.441603
-0.262440
-0.269885
-0.250195
-0.608018
-0.669725
-0.660929
-0.430777
-0.159100
-0.145570
-0.638995
-0.663992
-0.624382
-0.656381
-0.612190
-0.656435
-0.637412
-0.001656
-0.011847
-0.006867
-1.376210
-1.275570
-1.283376
-0.288413
-0.285701
-1.196168
-0.268572
-0.536072
-0.559806
-0.548437
-0.449997
-0.438464
-0.446845
-0.107319
-0.098062
-0.101625
-0.438694
-0.492455
-0.544242
-0.555959
-0.342778
-0.328002
-0.337305
-0.009649
-0.280027
-0.258384
-0.239749
-0.012822
-0.009614
-0.226298
-0.015874
-0.233524
-0.236677
-0.212688
-0.173684
-0.173596
-0.160394
-0.350181
-0.358451
-0.326799
-0.162333
-0.383129
-0.045027
-0.046984