# vtk DataFile Version 2.0
Test
ASCII
DATASET POLYDATA
POINTS 1818 float
0.000000 0.000000 0.000000
1.000000 0.000000 0.000000
1.000000 1.000000 0.000000
0.000000 1.000000 0.000000
0.300000 0.330000 0.000000
0.700000 0.680000 0.000000
0.058824 0.000000 0.000000
0.117647 0.000000 0.000000
0.176471 0.000000 0.000000
0.235294 0.000000 0.000000
0.294118 0.000000 0.000000
0.352941 0.000000 0.000000
0.411765 0.000000 0.000000
0.470588 0.000000 0.000000
0.529412 0.000000 0.000000
0.588235 0.000000 0.000000
0.647059 0.000000 0.000000
0.705882 0.000000 0.000000
0.764706 0.000000 0.000000
0.823529 0.000000 0.000000
0.882353 0.000000 0.000000
0.941176 0.000000 0.000000
1.000000 0.058824 0.000000
1.000000 0.117647 0.000000
1.000000 0.176471 0.000000
1.000000 0.235294 0.000000
1.000000 0.294118 0.000000
1.000000 0.352941 0.000000
1.000000 0.411765 0.000000
1.000000 0.470588 0.000000
1.000000 0.529412 0.000000
1.000000 0.588235 0.000000
1.000000 0.647059 0.000000
1.000000 0.705882 0.000000
1.000000 0.764706 0.000000
1.000000 0.823529 0.000000
1.000000 0.882353 0.000000
1.000000 0.941176 0.000000
0.941176 1.000000 0.000000
0.882353 1.000000 0.000000
0.823529 1.000000 0.000000
0.764706 1.000000 0.000000
0.705882 1.000000 0.000000
0.647059 1.000000 0.000000
0.588235 1.000000 0.000000
0.529412 1.000000 0.000000
0.470588 1.000000 0.000000
0.411765 1.000000 0.000000
0.352941 1.000000 0.000000
0.294118 1.000000 0.000000
0.235294 1.000000 0.000000
0.176471 1.000000 0.000000
0.117647 1.000000 0.000000
0.058824 1.000000 0.000000
0.000000 0.941176 0.000000
0.000000 0.882353 0.000000
0.000000 0.823529 0.000000
0.000000 0.764706 0.000000
0.000000 0.705882 0.000000
0.000000 0.647059 0.000000
0.000000 0.588235 0.000000
0.000000 0.529412 0.000000
0.000000 0.470588 0.000000
0.000000 0.411765 0.000000
0.000000 0.352941 0.000000
0.000000 0.294118 0.000000
0.000000 0.235294 0.000000
0.000000 0.176471 0.000000
0.000000 0.117647 0.000000
0.000000 0.058824 0.000000
0.305970 0.335224 0.000000
0.311940 0.340448 0.000000
0.317910 0.345672 0.000000
0.323881 0.350896 0.000000
0.329851 0.356119 0.000000
0.335821 0.361343 0.000000
0.341791 0.366567 0.000000
0.347761 0.371791 0.000000
0.353731 0.377015 0.000000
0.359701 0.382239 0.000000
0.365672 0.387463 0.000000
0.371642 0.392687 0.000000
0.377612 0.397910 0.000000
0.383582 0.403134 0.000000
0.389552 0.408358 0.000000
0.395522 0.413582 0.000000
0.401493 0.418806 0.000000
0.407463 0.424030 0.000000
0.413433 0.429254 0.000000
0.419403 0.434478 0.000000
0.425373 0.439701 0.000000
0.431343 0.444925 0.000000
0.437313 0.450149 0.000000
0.443284 0.455373 0.000000
0.449254 0.460597 0.000000
0.455224 0.465821 0.000000
0.461194 0.471045 0.000000
0.467164 0.476269 0.000000
0.473134 0.481493 0.000000
0.479104 0.486716 0.000000
0.485075 0.491940 0.000000
0.491045 0.497164 0.000000
0.497015 0.502388 0.000000
0.502985 0.507612 0.000000
0.508955 0.512836 0.000000
0.514925 0.518060 0.000000
0.520896 0.523284 0.000000
0.526866 0.528507 0.000000
0.532836 0.533731 0.000000
0.538806 0.538955 0.000000
0.544776 0.544179 0.000000
0.550746 0.549403 0.000000
0.556716 0.554627 0.000000
0.562687 0.559851 0.000000
0.568657 0.565075 0.000000
0.574627 0.570299 0.000000
0.580597 0.575522 0.000000
0.586567 0.580746 0.000000
0.592537 0.585970 0.000000
0.598507 0.591194 0.000000
0.604478 0.596418 0.000000
0.610448 0.601642 0.000000
0.616418 0.606866 0.000000
0.622388 0.612090 0.000000
0.628358 0.617313 0.000000
0.634328 0.622537 0.000000
0.640299 0.627761 0.000000
0.646269 0.632985 0.000000
0.652239 0.638209 0.000000
0.658209 0.643433 0.000000
0.664179 0.648657 0.000000
0.670149 0.653881 0.000000
0.676119 0.659104 0.000000
0.682090 0.664328 0.000000
0.688060 0.669552 0.000000
0.694030 0.674776 0.000000
0.516135 0.080917 0.000000
0.549338 0.042552 0.000000
0.567302 0.088709 0.000000
0.555658 0.563778 0.000000
0.559301 0.571359 0.000000
0.552318 0.570919 0.000000
0.603235 0.047100 0.000000
0.446553 0.448087 0.000000
0.438652 0.443189 0.000000
0.445116 0.440368 0.000000
0.437254 0.190586 0.000000
0.465954 0.201747 0.000000
0.439184 0.213838 0.000000
0.453137 0.228102 0.000000
0.522423 0.410182 0.000000
0.522098 0.390982 0.000000
0.537289 0.398500 0.000000
0.453388 0.527105 0.000000
0.462022 0.524948 0.000000
0.461218 0.533993 0.000000
0.324300 0.374550 0.000000
0.319287 0.386214 0.000000
0.314834 0.375138 0.000000
0.668809 0.628853 0.000000
0.677366 0.632907 0.000000
0.668274 0.639611 0.000000
0.469934 0.529282 0.000000
0.439703 0.436699 0.000000
0.446608 0.432083 0.000000
0.542854 0.633425 0.000000
0.535117 0.647070 0.000000
0.524302 0.633157 0.000000
0.519372 0.648877 0.000000
0.586338 0.611293 0.000000
0.591638 0.624149 0.000000
0.575478 0.621479 0.000000
0.437962 0.035513 0.000000
0.421505 0.085456 0.000000
0.394924 0.044162 0.000000
0.445207 0.955749 0.000000
0.429168 0.919510 0.000000
0.464409 0.914226 0.000000
0.317150 0.400904 0.000000
0.328626 0.395860 0.000000
0.439616 0.884412 0.000000
0.330406 0.381773 0.000000
0.676842 0.602700 0.000000
0.674982 0.614185 0.000000
0.665930 0.611798 0.000000
0.414707 0.535036 0.000000
0.420123 0.526072 0.000000
0.425338 0.533771 0.000000
0.398407 0.375558 0.000000
0.393804 0.363255 0.000000
0.407284 0.365452 0.000000
0.407758 0.523337 0.000000
0.899969 0.377867 0.000000
0.945915 0.378245 0.000000
0.914158 0.409130 0.000000
0.358219 0.436142 0.000000
0.361390 0.425428 0.000000
0.369309 0.432300 0.000000
0.465999 0.075074 0.000000
0.269944 0.367761 0.000000
0.266521 0.352125 0.000000
0.283474 0.357667 0.000000
0.385889 0.083020 0.000000
0.359482 0.060981 0.000000
0.279658 0.346766 0.000000
0.363604 0.104040 0.000000
0.511115 0.503731 0.000000
0.503243 0.499914 0.000000
0.509146 0.494910 0.000000
0.513188 0.475753 0.000000
0.504957 0.474656 0.000000
0.511959 0.464784 0.000000
0.311863 0.447505 0.000000
0.293019 0.442078 0.000000
0.305555 0.431691 0.000000
0.499204 0.464990 0.000000
0.293855 0.459576 0.000000
0.396676 0.236328 0.000000
0.371014 0.247362 0.000000
0.373003 0.229199 0.000000
0.384478 0.261522 0.000000
0.555704 0.523331 0.000000
0.551313 0.515879 0.000000
0.562752 0.515269 0.000000
0.554954 0.506854 0.000000
0.804236 0.611103 0.000000
0.819351 0.593503 0.000000
0.832061 0.615776 0.000000
0.509908 0.485173 0.000000
0.129738 0.481190 0.000000
0.110722 0.443736 0.000000
0.154857 0.452634 0.000000
0.089738 0.485299 0.000000
0.396427 0.153886 0.000000
0.393058 0.115469 0.000000
0.420333 0.126587 0.000000
0.442628 0.413512 0.000000
0.434815 0.404283 0.000000
0.446816 0.400259 0.000000
0.499770 0.482873 0.000000
0.353883 0.235057 0.000000
0.351360 0.254011 0.000000
0.332147 0.240870 0.000000
0.112307 0.405527 0.000000
0.140355 0.392788 0.000000
0.142004 0.423465 0.000000
0.334868 0.263052 0.000000
0.551239 0.594093 0.000000
0.560217 0.601969 0.000000
0.546711 0.604614 0.000000
0.398510 0.570197 0.000000
0.387124 0.557316 0.000000
0.399978 0.555748 0.000000
0.705281 0.743146 0.000000
0.722930 0.758853 0.000000
0.697202 0.758074 0.000000
0.380190 0.572638 0.000000
0.278345 0.431947 0.000000
0.292575 0.428097 0.000000
0.470820 0.540616 0.000000
0.478213 0.533042 0.000000
0.480161 0.543190 0.000000
0.415268 0.299334 0.000000
0.412465 0.313515 0.000000
0.400419 0.297680 0.000000
0.396495 0.317117 0.000000
0.718655 0.732879 0.000000
0.709319 0.677587 0.000000
0.715709 0.670111 0.000000
0.719283 0.682820 0.000000
0.212992 0.453899 0.000000
0.184619 0.470046 0.000000
0.186665 0.440862 0.000000
0.452307 0.386568 0.000000
0.460371 0.397715 0.000000
0.478664 0.456068 0.000000
0.476179 0.462123 0.000000
0.471250 0.456445 0.000000
0.464654 0.388544 0.000000
0.483415 0.461045 0.000000
0.357146 0.449596 0.000000
0.344653 0.443966 0.000000
0.554562 0.459423 0.000000
0.543333 0.457517 0.000000
0.553850 0.449505 0.000000
0.543131 0.445036 0.000000
0.347312 0.459318 0.000000
0.781088 0.538918 0.000000
0.810909 0.534152 0.000000
0.799399 0.553968 0.000000
0.402869 0.534333 0.000000
0.408011 0.546121 0.000000
0.703844 0.670118 0.000000
0.552234 0.794299 0.000000
0.528593 0.795589 0.000000
0.539188 0.770312 0.000000
0.596088 0.518714 0.000000
0.593029 0.508081 0.000000
0.604120 0.510731 0.000000
0.384880 0.468703 0.000000
0.382270 0.455963 0.000000
0.394062 0.458803 0.000000
0.374729 0.466839 0.000000
0.340939 0.294790 0.000000
0.324530 0.290188 0.000000
0.338473 0.279923 0.000000
0.465367 0.336545 0.000000
0.477337 0.352846 0.000000
0.459495 0.350024 0.000000
0.584947 0.516440 0.000000
0.326802 0.302636 0.000000
0.945343 0.420397 0.000000
0.779746 0.749037 0.000000
0.771533 0.774140 0.000000
0.758291 0.749848 0.000000
0.743435 0.765852 0.000000
0.751942 0.297541 0.000000
0.784264 0.292048 0.000000
0.772562 0.330207 0.000000
0.812744 0.305799 0.000000
0.655547 0.494535 0.000000
0.649767 0.472522 0.000000
0.671966 0.480244 0.000000
0.612062 0.502007 0.000000
0.616789 0.515227 0.000000
0.403059 0.898561 0.000000
0.391512 0.946883 0.000000
0.625780 0.504699 0.000000
0.635988 0.491275 0.000000
0.596252 0.650380 0.000000
0.583401 0.655132 0.000000
0.583737 0.644777 0.000000
0.713099 0.416502 0.000000
0.708474 0.388943 0.000000
0.733625 0.389568 0.000000
0.684835 0.406222 0.000000
0.656936 0.416423 0.000000
0.633624 0.425116 0.000000
0.634362 0.400237 0.000000
0.646884 0.740682 0.000000
0.654954 0.726002 0.000000
0.663305 0.741855 0.000000
0.732481 0.441235 0.000000
0.751303 0.460839 0.000000
0.721338 0.462235 0.000000
0.759622 0.437863 0.000000
0.462761 0.363156 0.000000
0.373644 0.622389 0.000000
0.346217 0.613642 0.000000
0.370315 0.594521 0.000000
0.351411 0.640635 0.000000
0.695337 0.690220 0.000000
0.705202 0.700133 0.000000
0.692303 0.700990 0.000000
0.521365 0.516400 0.000000
0.522992 0.510597 0.000000
0.527633 0.513574 0.000000
0.291567 0.329512 0.000000
0.294927 0.318154 0.000000
0.365771 0.366553 0.000000
0.366135 0.358691 0.000000
0.374180 0.368122 0.000000
0.408232 0.327056 0.000000
0.423479 0.328280 0.000000
0.411272 0.339740 0.000000
0.664110 0.670607 0.000000
0.667245 0.662649 0.000000
[...]
POINT_DATA 1818
SCALARS UX float 1
LOOKUP_TABLE default
-0.000001
0.000001
0.022340
-0.421825
-0.119702
-0.047804
0.000000
-0.000000
-0.000000
-0.000000
-0.000000
-0.000000
-0.000000
-0.000000
-0.000000
0.000000
0.000000
0.000000
0.000000
0.000000
0.000000
-0.000000
0.045785
0.069414
0.086415
0.101689
0.114476
0.125726
0.135701
0.143805
0.150441
0.155057
0.157017
0.158096
0.156616
0.139693
0.095933
0.053508
-0.046383
-0.088921
-0.113000
-0.132243
-0.150860
-0.169497
-0.188923
-0.209205
-0.231123
-0.255055
-0.280158
-0.305738
-0.331099
-0.355667
-0.379261
-0.400816
-0.416891
-0.410291
-0.402072
-0.393346
-0.383949
-0.374453
-0.365153
-0.355919
-0.346568
-0.336818
-0.326290
-0.311595
-0.291677
-0.258349
-0.181693
-0.101601
-0.117897
-0.110575
-0.107721
-0.107459
-0.108366
-0.106769
-0.104840
-0.104600
-0.103926
-0.102310
-0.102035
-0.101164
-0.104572
-0.106633
-0.104383
-0.104764
-0.106139
-0.106857
-0.105694
-0.104368
-0.105826
-0.105489
-0.107327
-0.105070
-0.104079
-0.104661
-0.105431
-0.103417
-0.104142
-0.100361
-0.103912
-0.104383
-0.097976
-0.102008
-0.095198
-0.093940
-0.093903
-0.092888
-0.089278
-0.086675
-0.085266
-0.083155
-0.082985
-0.078918
-0.084871
-0.084378
-0.083064
-0.082077
-0.081886
-0.080594
-0.080387
-0.083993
-0.082755
-0.081705
-0.080781
-0.081221
-0.075436
-0.075008
-0.070915
-0.072716
-0.068625
-0.061795
-0.058202
-0.053604
-0.053677
-0.049053
-0.001324
-0.000078
0.000954
-0.152778
-0.158251
-0.169854
0.001248
-0.050638
-0.059344
-0.040063
-0.011341
-0.008290
-0.012648
-0.011306
-0.001715
-0.001879
0.001843
-0.220074
-0.216258
-0.217663
-0.209836
-0.231789
-0.222611
0.017467
0.021803
0.001290
-0.213360
-0.042462
-0.028528
-0.189106
-0.192711
-0.197002
-0.199534
-0.162236
-0.163197
-0.172777
-0.001888
-0.005265
-0.003139
-0.238466
-0.243428
-0.229052
-0.239278
-0.232626
-0.238396
-0.213892
0.043939
0.038634
0.034627
-0.234386
-0.231875
-0.230583
-0.034414
-0.033593
-0.029467
-0.235865
0.104177
0.116593
0.113113
-0.236086
-0.229300
-0.230359
-0.003095
-0.237942
-0.229824
-0.220300
-0.006348
-0.005071
-0.209475
-0.009270
-0.032906
-0.047073
-0.022894
-0.005810
-0.009510
-0.005013
-0.254592
-0.259149
-0.252858
-0.009836
-0.262728
-0.021567
-0.027911
-0.024831
-0.026837
0.003150
0.003209
0.009723
0.007201
0.098308
0.103963
0.108384
-0.010725
-0.314691
-0.313756
-0.303320
-0.325879
-0.012446
-0.008977
-0.008229
-0.023578
-0.025492
-0.020761
-0.018857
-0.029171
-0.033106
-0.034492
-0.306659
-0.296152
-0.301647
-0.038717
-0.182849
-0.179217
-0.186535
-0.242828
-0.245901
-0.241142
-0.109395
-0.101949
-0.120521
-0.249773
-0.260793
-0.255694
-0.214597
-0.210099
-0.211199
-0.022498
-0.023985
-0.025852
-0.028233
-0.089973
-0.013230
0.014774
-0.004468
-0.286534
-0.297711
-0.292189
-0.018469
-0.016847
-0.018137
-0.023434
-0.023663
-0.015464
-0.017055
-0.240617
-0.242864
0.007472
0.004337
0.007041
0.004001
-0.245772
0.087567
0.097879
0.095132
-0.238409
-0.237531
-0.005522
-0.190534
-0.200650
-0.195473
0.021264
0.020459
0.023902
-0.236225
-0.234012
-0.230050
-0.239157
-0.044895
-0.049597
-0.042065
-0.013527
-0.011489
-0.015311
0.017805
-0.052836
0.123110
-0.020218
-0.061571
-0.053699
-0.086531
0.046391
0.053946
0.058326
0.065088
0.040676
0.037620
0.045659
0.026312
0.028203
-0.253535
-0.260126
0.030926
0.033843
-0.164327
-0.171001
-0.170262
0.053917
0.048986
0.056739
0.043855
0.036156
0.029547
0.028062
-0.142768
-0.135661
-0.135010
0.063096
0.071449
0.061453
0.071500
-0.015080
-0.256241
-0.265591
-0.255316
-0.265653
-0.077135
-0.073797
-0.093125
-0.049023
-0.028030
-0.026373
-0.141145
-0.097686
-0.051589
-0.044454
-0.042951
-0.025968
-0.022377
-0.026119
-0.106871
-0.090800
-0.087424
-0.241811
-0.247854
-0.248333
-0.253725
-0.116781
-0.126667
-0.138465
-0.039954
0.003682
0.008247
0.006055
-0.065044
-0.071388
-0.058019
-0.046203
-0.061793
-0.062781
-0.208098
-0.213709
-0.213360
-0.057591
-0.076616
-0.073546
-0.020394
-0.113178
-0.100265
-0.122624
-0.112914
-0.028403
-0.038862
-0.198557
-0.184450
-0.179996
-0.197556
-0.259295
-0.249100
-0.255827
-0.226444
-0.231863
-0.223905
-0.060611
-0.060475
-0.198591
0.017348
0.018873
-0.265678
-0.259586
-0.259253
-0.091474
-0.342570
-0.325860
-0.328639
-0.315829
-0.209343
-0.202601
-0.206588
-0.205162
-0.202187
-0.167822
-0.160554
0.040512
0.038348
0.021778
0.047829
-0.259472
-0.254267
-0.248428
-0.104270
-0.137582
-0.096894
-0.076114
-0.063996
-0.044795
-0.022556
-0.095027
-0.132999
-0.163622
0.030379
0.005846
-0.155344
-0.207452
-0.204475
-0.130639
-0.151105
-0.149620
-0.206084
-0.164917
-0.160410
-0.195476
-0.184697
-0.190161
-0.173827
-0.191812
-0.029749
-0.029336
-0.047761
-0.044674
-0.040312
-0.050228
0.015389
0.012000
0.009690
-0.360772
-0.353069
-0.345035
-0.348175
-0.340681
-0.352012
-0.335939
-0.118732
-0.134078
-0.134921
-0.138465
-0.191294
-0.198058
-0.190956
-0.198879
-0.184078
-0.190092
-0.183676
-0.224247
-0.229246
-0.220527
-0.225443
-0.226147
-0.229968
-0.229409
-0.218351
-0.042924
-0.058907
-0.058256
0.011294
0.006444
0.009571
0.007054
0.083145
0.071985
0.076974
0.091523
0.093167
-0.146790
-0.158057
-0.185386
-0.003056
0.001050
-0.021952
-0.216512
-0.213253
-0.219905
-0.144691
-0.126961
-0.205801
-0.132563
-0.146856
-0.155760
-0.013062
-0.011850
-0.015226
0.008731
0.011865
0.011392
-0.037713
-0.036582
-0.156684
0.015263
-0.321208
-0.312190
-0.328406
-0.314542
-0.321620
0.002105
0.003547
0.001670
0.003650
0.000193
0.005724
0.008376
-0.324851
-0.171339
-0.162256
-0.173461
-0.160882
-0.226893
-0.243040
-0.220319
-0.000484
0.008445
0.018252
-0.032003
0.005450
-0.083208
0.005421
0.007479
-0.127421
-0.116483
-0.125201
-0.242370
-0.236521
-0.236714
-0.168616
-0.175460
-0.348590
0.014925
0.017831
0.014197
-0.023243
-0.020655
-0.215067
-0.206166
-0.204575
-0.017666
0.018189
-0.262545
-0.268773
-0.266398
-0.217880
-0.205926
-0.208615
-0.032950
-0.010038
-0.027925
-0.013874
-0.045083
-0.010394
-0.015250
-0.188794
-0.154407
-0.162845
-0.034347
-0.030006
-0.276752
-0.270874
-0.273044
-0.028934
-0.001334
-0.004115
-0.004454
-0.281382
-0.289293
-0.282989
-0.086633
-0.112438
-0.070645
-0.042399
-0.046840
-0.054106
-0.337064
-0.310526
0.000446
-0.241375
-0.256702
-0.006622
0.009912
0.014065
-0.321614
0.010196
0.001334
-0.203121
-0.202860
0.067228
0.074540
0.071383
-0.207640
-0.001617
-0.001949
0.043170
-0.223876
-0.222220
-0.222150
-0.133591
-0.128451
-0.051104
-0.225851
-0.018689
-0.016828
-0.223315
-0.181656
-0.184458
-0.176191
-0.189924
0.101372
0.090084
0.092776
-0.002235
-0.024603
-0.033297
-0.233946
-0.224489
-0.221123
-0.031959
-0.026150
-0.020668
-0.048800
-0.033791
-0.024435
-0.000354
-0.241997
-0.238226
-0.066676
-0.064053
-0.198790
0.034446
0.065025
0.032126
0.131302
0.072691
0.012574
0.015677
0.016914
-0.230390
-0.026444
-0.023475
-0.020221
-0.021097
-0.145562
-0.180653
-0.178287
-0.171520
0.004797
-0.185003
-0.156558
-0.250453
-0.255513
-0.249566
-0.221202
-0.217642
-0.221192
-0.199737
0.053539
0.043652
0.059383
-0.217130
-0.007630
0.106089
0.036611
0.033104
-0.028009
-0.004360
-0.031023
0.000263
-0.012230
0.004447
-0.041738
-0.190030
-0.125585
-0.197784
-0.204710
-0.303251
-0.311007
-0.015108
-0.011360
-0.072439
-0.089634
-0.003632
-0.142349
-0.334269
-0.150498
-0.291744
-0.294838
-0.284406
-0.149616
0.063782
0.057479
0.055452
0.051166
-0.017479
-0.018777
-0.175011
-0.167901
-0.166799
0.052647
0.051682
0.048083
0.045602
0.077067
0.080586
-0.302421
-0.299049
0.098809
-0.386467
-0.363021
-0.383101
0.069066
0.064848
0.055030
-0.202559
-0.207735
-0.192960
0.075552
0.104099
0.061433
0.041363
0.052683
0.031404
-0.217124
0.006400
0.002127
0.001758
0.065485
0.079484
0.079569
-0.339748
-0.358062
-0.358671
0.093660
-0.174473
-0.162907
-0.195030
-0.206039
-0.207565
-0.262935
0.010809
0.006978
0.019493
0.138064
0.135571
0.148468
0.123935
0.119407
0.142835
0.144007
-0.178805
-0.181124
-0.308784
-0.293845
-0.292852
-0.190614
0.014563
-0.016913
-0.301749
-0.298440
-0.310660
-0.270832
-0.266451
-0.323621
0.011710
-0.012921
-0.285967
-0.009234
-0.270153
-0.256740
-0.259123
0.133998
0.143147
-0.148954
-0.148965
-0.133658
-0.082154
-0.101635
-0.059220
-0.115410
-0.136183
-0.094902
-0.031971
-0.032705
-0.164797
-0.216616
-0.226479
-0.179287
-0.272557
-0.279275
-0.273895
-0.337411
-0.331180
-0.008889
-0.014226
-0.006776
-0.013808
-0.014602
-0.143723
-0.135450
-0.143675
-0.318235
-0.003909
-0.005159
-0.149582
-0.162343
-0.160835
0.141490
0.129097
-0.282111
0.082454
0.075165
0.075653
0.083548
-0.313261
-0.306342
-0.302492
0.092581
-0.003276
0.120908
-0.120661
-0.002297
-0.014020
-0.016420
-0.164034
0.002786
-0.005419
-0.166327
-0.157225
-0.160107
0.024655
-0.017295
-0.038748
-0.244967
-0.247721
-0.151766
-0.170922
0.031366
0.038486
0.029700
0.043087
-0.245887
-0.247952
-0.264617
-0.215310
-0.004829
-0.012734
0.011054
0.008321
0.005993
-0.007422
-0.026093
-0.319766
-0.312487
-0.324710
-0.309232
-0.193858
-0.308585
-0.313171
-0.319983
-0.303076
-0.298835
-0.197758
-0.190586
-0.255185
-0.245370
-0.192324
-0.049160
-0.039777
-0.183227
-0.170899
-0.350500
-0.364287
-0.334122
-0.007307
-0.009338
-0.005918
-0.211067
-0.217397
-0.024806
-0.026636
-0.289576
-0.292348
-0.283473
-0.252980
-0.246988
-0.247089
-0.094525
-0.114506
-0.303479
-0.004022
0.009171
0.005313
-0.253653
-0.274361
-0.272759
-0.281893
-0.258102
-0.294600
0.047028
0.037790
-0.285349
-0.291399
-0.294701
-0.300942
0.004954
0.000585
-0.243024
0.087349
-0.061248
-0.044147
0.002533
0.000241
-0.003789
-0.163056
-0.005176
-0.265147
-0.224633
-0.225296
-0.230969
-0.237054
-0.275200
-0.282757
-0.282572
-0.018497
-0.022463
-0.292453
-0.007882
0.042996
0.039479
-0.339444
-0.324402
-0.333621
-0.182619
-0.192208
-0.186755
-0.252117
0.120417
0.129367
0.117909
0.110272
0.108507
-0.271094
-0.269149
-0.275926
-0.274569
-0.283782
-0.122319
0.012563
-0.034889
0.069834
-0.302919
-0.312445
-0.292470
-0.293961
-0.280660
-0.255568
-0.286457
-0.285297
-0.003843
-0.006456
-0.001035
-0.209193
-0.199776
-0.216621
0.056885
0.061253
0.064709
-0.153581
0.104252
0.098168
-0.291811
-0.180320
-0.047188
-0.370604
-0.386978
-0.203644
-0.215734
0.029335
0.026143
0.025339
-0.041021
-0.036718
0.033589
-0.034046
0.036487
-0.258211
-0.273301
0.056191
0.064551
0.042178
0.013781
-0.036343
0.087004
0.062934
0.108110
0.047304
-0.150021
-0.151106
-0.142906
-0.143730
0.005941
-0.182579
-0.192593
0.002281
-0.322799
-0.299294
-0.307993
-0.203757
-0.197806
0.001657
0.006680
-0.203251
-0.208400
-0.205165
-0.007169
-0.008740
-0.005390
-0.225892
-0.219166
-0.220957
-0.265024
0.070736
0.077404
0.080313
-0.250308
-0.260734
-0.266593
-0.014379
-0.017738
-0.020011
-0.270174
-0.231677
-0.023758
-0.225881
-0.183514
-0.285299
-0.283526
0.116164
-0.011157
0.068649
0.058798
-0.223098
-0.226570
-0.141519
-0.150186
-0.013166
-0.324133
-0.140621
-0.242618
-0.274176
-0.263575
-0.235528
-0.238473
-0.238909
0.048915
0.044558
0.045085
0.058629
0.015234
0.019303
0.014407
0.021687
-0.243232
-0.214802
-0.212711
-0.248996
-0.150867
-0.070858
-0.075135
-0.091639
0.109060
0.059756
0.021557
-0.001910
-0.098063
-0.171178
-0.253159
-0.250786
-0.245026
-0.276618
-0.081972
-0.025136
-0.057028
-0.164814
-0.063147
-0.002716
-0.003126
-0.005640
-0.022051
-0.017322
-0.018950
0.038469
0.015602
0.011281
0.008820
-0.110512
0.020334
-0.031416
-0.023823
0.099915
-0.263847
-0.274732
-0.263409
-0.274274
-0.288469
0.090103
0.060238
0.066860
0.050005
0.044551
0.038852
-0.268692
-0.026443
0.003394
0.006914
0.005861
-0.015123
-0.011310
-0.012933
0.123598
0.133626
0.080076
-0.264550
-0.257478
-0.157950
-0.158763
0.030489
0.074253
0.063943
0.065964
-0.234126
-0.232468
-0.067973
-0.077193
-0.142893
-0.259247
-0.253504
-0.131702
-0.265603
0.020437
0.019132
0.015525
-0.126857
-0.117204
0.039578
0.031702
-0.254487
-0.255073
-0.245981
-0.245657
-0.254527
-0.262174
0.017485
0.012752
-0.286409
0.018006
0.019733
0.024264
0.108922
0.108682
0.011824
-0.130652
-0.132205
-0.143322
-0.153972
-0.212577
-0.049156
-0.058172
-0.064925
-0.243105
-0.241112
0.068316
0.027258
0.021143
0.020293
-0.075092
-0.150928
-0.174788
-0.181686
0.003083
-0.000477
-0.004542
-0.222521
-0.216501
-0.197869
-0.164517
-0.036859
-0.028975
-0.026934
-0.131652
-0.042033
-0.036315
-0.026310
-0.175072
-0.122436
-0.018636
0.072027
0.080332
0.078644
0.042899
0.070940
0.096548
-0.235160
-0.193417
-0.212546
-0.224474
-0.216689
-0.216761
-0.228337
-0.188362
0.009383
0.019500
-0.113745
-0.162273
-0.159809
0.049678
0.048672
0.035800
0.023710
0.018163
-0.157016
-0.197164
-0.096925
0.010489
-0.247505
0.054972
0.055590
0.037832
0.030639
-0.242910
-0.288843
-0.240985
0.052696
0.048499
0.022581
0.016035
0.020306
0.024359
0.052041
0.125739
-0.101397
0.013256
-0.022504
-0.004771
-0.021947
-0.175729
-0.165882
0.113321
-0.001392
-0.170577
0.021703
0.038695
-0.174300
-0.186974
-0.202357
-0.207663
-0.199529
-0.247664
0.022616
0.017761
-0.061162
-0.080056
-0.073580
-0.244472
-0.193790
-0.314556
0.028208
0.030113
0.022860
0.031714
0.036998
-0.233254
0.000431
-0.196630
-0.117463
-0.211560
-0.238903
-0.167892
-0.151281
-0.150719
-0.160730
-0.037492
-0.211397
-0.282265
-0.046868
-0.108076
-0.122839
-0.196994
-0.189690
-0.149583
0.018792
-0.009601
-0.007829
-0.168014
-0.144914
-0.015982
0.011495
-0.246875
-0.255845
-0.247470
-0.010753
-0.183750
0.047960
0.040542
-0.008843
-0.173250
-0.179095
-0.182425
-0.218012
-0.219109
-0.051979
-0.109317
0.103647
0.110948
-0.013126
-0.055540
-0.031804
-0.048149
-0.053354
0.002177
-0.042436
-0.052232
0.090422
-0.126429
-0.221619
-0.221027
0.032925
-0.017957
-0.012806
0.113494
-0.009593
-0.035029
-0.059735
-0.296770
-0.299502
-0.136196
-0.142805
-0.217731
-0.228186
-0.219490
0.117821
-0.228544
-0.164110
-0.191095
0.056067
-0.159420
-0.065162
-0.058765
-0.200968
-0.035334
-0.042440
-0.013419
-0.172990
-0.185943
0.009309
0.013818
0.020948
0.021634
0.016865
-0.037329
-0.336124
-0.150104
-0.172637
-0.152157
-0.061034
-0.174800
-0.175388
-0.000405
0.003211
-0.134946
-0.056256
-0.030436
-0.021416
-0.004413
-0.035073
-0.030371
-0.031402
-0.026789
-0.189503
-0.208453
-0.187327
0.027048
0.024560
0.031460
-0.192493
-0.194820
-0.031037
-0.219960
-0.219913
0.002000
0.004539
0.040397
-0.000662
-0.217910
-0.237975
-0.233482
-0.231010
-0.023993
-0.185923
-0.031856
-0.034938
-0.274646
-0.276884
-0.005735
-0.068660
-0.034470
-0.198939
-0.010032
-0.001147
-0.010135
-0.248234
-0.250887
0.010449
-0.209733
-0.232951
-0.269444
-0.274004
-0.235406
-0.198302
-0.166641
-0.159677
0.007937
0.011942
0.013556
-0.238871
-0.238667
-0.039115
-0.037696
-0.238336
-0.241178
-0.245799
-0.165516
-0.163873
-0.188151
-0.235230
0.036498
0.033124
-0.014850
-0.228689
-0.230669
-0.229473
-0.220532
-0.218982
-0.037776
-0.035639
0.001638
-0.020194
-0.236495
-0.235822
-0.207807
-0.115938
-0.102676
-0.007383
-0.021566
-0.227614
0.004549
0.004397
-0.150914
-0.167616
-0.027830
-0.031793
-0.194910
-0.182778
-0.038402
-0.003949
-0.005948
0.016993
-0.211228
0.017002
-0.059501
0.080870
0.079771
-0.238895
-0.236175
-0.134291
-0.135947
-0.150384
-0.157166
-0.023351
0.032413
-0.007011
-0.169710
0.017113
-0.237548
0.054555
0.039797
0.041375
-0.236013
0.034421
0.027852
-0.027834
0.006447
0.002573
-0.106617
0.030276
-0.352464
-0.338257
-0.346417
-0.252227
0.084277
0.023762
0.028107
0.020734
0.001470
-0.294185
0.093136
-0.243334
-0.225809
-0.219073
-0.012688
-0.005140
-0.010500
0.014305
-0.003842
-0.183839
-0.183085
-0.378664
-0.015765
-0.021477
0.011800
-0.397977
-0.400115
-0.180722
0.010877
0.035531
0.014133
-0.055668
0.003938
-0.045471
-0.080595
-0.213988
-0.046884
-0.228504
-0.070146
0.004083
0.016353
0.006812
0.000905
0.072383
0.004179
-0.224582
-0.229159
-0.231131
0.105209
0.095464
0.002442
0.027400
-0.225250
-0.230377
-0.234914
-0.016647
-0.013400
-0.014163
-0.011145
-0.186134
-0.016256
0.054413
0.032564
-0.182777
-0.226291
-0.306171
-0.066501
0.018975
0.082758
0.073507
-0.270395
-0.281086
-0.287974
0.063477
0.059893
-0.235734
-0.149274
-0.003430
-0.007104
-0.231753
-0.006668
-0.153274
-0.176998
0.065711
0.087029
-0.057572
-0.087592
-0.100197
-0.267777
-0.046364
-0.009974
-0.008346
-0.231208
0.126210
-0.338960
-0.013205
-0.015869
-0.277191
0.058878
0.021271
0.006984
-0.196593
0.011296
-0.023704
-0.219404
0.054362
-0.212460
-0.032728
-0.040568
0.005496
-0.145350
0.018774
-0.203093
-0.122833
-0.020488
-0.019788
-0.206236
0.098623
0.049059
-0.202024
-0.203829
-0.038135
-0.038765
-0.361161
-0.378101
-0.367563
-0.196143
-0.230060
-0.005576
-0.263711
-0.012483
0.048576
0.046273
-0.120474
-0.268584
-0.279732
-0.165582
0.081029
0.074757
-0.008773
-0.010896
-0.153217
-0.172848
-0.260319
-0.266826
-0.001662
-0.215178
-0.079478
-0.084112
-0.236112
-0.305346
0.031964
0.025071
0.025904
0.038736
-0.089083
0.072500
0.055314
-0.053793
-0.203111
-0.211780
0.039887
0.029165
-0.207339
0.008288
-0.069913
-0.233383
0.039518
-0.155438
-0.244490
0.025918
0.042318
-0.161982
-0.163004
-0.223209
-0.226569
0.022726
0.025954
0.027938
-0.041068
0.005277
-0.134384
-0.170696
-0.245203
-0.047094
-0.001804
-0.170417
-0.215763
-0.006506
0.026106
-0.040059
-0.023383
-0.027887
0.070621
0.104689
-0.129812
-0.127558
-0.159559
-0.270626
0.044215
-0.213961
-0.047559
-0.045229
-0.096422
-0.027285
-0.232537
0.013004
-0.210825
-0.088589
0.026915
-0.193961
-0.158304
-0.162289
-0.230492
-0.138139
-0.124708
-0.226798
0.019376
-0.193629
-0.113171
-0.046798
-0.074305
-0.059248
-0.139100
-0.135938
0.001359
-0.208129
-0.211588
-0.056122
-0.105255
-0.045310
-0.149841
-0.178204
-0.155754
-0.182197
-0.147198
-0.056391
-0.178127
-0.150577
-0.073817
-0.094418
-0.202693
0.029073
0.005244
-0.124293
-0.208943
-0.190670
-0.064209
-0.020533
-0.008706
-0.150015
-0.046621
-0.176951
-0.205621
-0.051908
-0.002934
0.010050
0.011357
0.035721
-0.226568
-0.015025
-0.211454
-0.129368
-0.215648
0.029025
-0.080484
-0.002471
-0.231816
-0.015532
-0.017704
-0.020499
-0.232405
-0.049047
-0.157621
-0.174778
-0.104136
-0.081792
-0.227135
-0.029657
0.013906
-0.156371
-0.190460
-0.040617
SCALARS UY float 1
LOOKUP_TABLE default
-0.000002
-0.000002
-0.604999
-0.604999
-0.147152
-0.378516
-0.000001
-0.000001
-0.000001
-0.000001
-0.000000
-0.000000
-0.000000
-0.000000
-0.000000
-0.000000
-0.000001
-0.000001
-0.000001
-0.000001
-0.000001
-0.000000
-0.045570
-0.078150
-0.102798
-0.126408
-0.148655
-0.170921
-0.193117
-0.214740
-0.236222
-0.256945
-0.277139
-0.297275
-0.320133
-0.362127
-0.427924
-0.516005
-0.604999
-0.604999
-0.604999
-0.604999
-0.604999
-0.604999
-0.604999
-0.604999
-0.604999
-0.604999
-0.604999
-0.604999
-0.604999
-0.604999
-0.604999
-0.604999
-0.576527
-0.548071
-0.520156
-0.492994
-0.466320
-0.441004
-0.416613
-0.393006
-0.369961
-0.347697
-0.326647
-0.307376
-0.284497
-0.247128
-0.175160
-0.099906
-0.149972
-0.159793
-0.165177
-0.165216
-0.163810
-0.165773
-0.168879
-0.170051
-0.170555
-0.172587
-0.173633
-0.176739
-0.178308
-0.183393
-0.187891
-0.191015
-0.192794
-0.194198
-0.198195
-0.201638
-0.205700
-0.207783
-0.209818
-0.214832
-0.218687
-0.217257
-0.224276
-0.229246
-0.230620
-0.238147
-0.236356
-0.238813
-0.249547
-0.243115
-0.251150
-0.255470
-0.255483
-0.256178
-0.260350
-0.262865
-0.265438
-0.269614
-0.271390
-0.285311
-0.287206
-0.290285
-0.295009
-0.298244
-0.304667
-0.309476
-0.316749
-0.323047
-0.327313
-0.328860
-0.331491
-0.333920
-0.342599
-0.344327
-0.349697
-0.351288
-0.355419
-0.363649
-0.368282
-0.373516
-0.373960
-0.378489
-0.015781
-0.008067
-0.017941
-0.342438
-0.354298
-0.359594
-0.009207
-0.165454
-0.168229
-0.151871
-0.041909
-0.045551
-0.048969
-0.053704
-0.122386
-0.114374
-0.117874
-0.348982
-0.347199
-0.352477
-0.261137
-0.284556
-0.273723
-0.268083
-0.269984
-0.287667
-0.349078
-0.150942
-0.138471
-0.406343
-0.414068
-0.405917
-0.414810
-0.389003
-0.398526
-0.399025
-0.006350
-0.016045
-0.007909
-0.581542
-0.561645
-0.560495
-0.294451
-0.288342
-0.543251
-0.265371
-0.238285
-0.246765
-0.247043
-0.354007
-0.349263
-0.353113
-0.113828
-0.108483
-0.107499
-0.348340
-0.159445
-0.169148
-0.175246
-0.309258
-0.302144
-0.304003
-0.014228
-0.281503
-0.266344
-0.268590
-0.015531
-0.011176
-0.244459
-0.019869
-0.187334
-0.197831
-0.174041
-0.152222
-0.152254
-0.146022
-0.319894
-0.320095
-0.313080
-0.147182
-0.328235
-0.055682
-0.059500