# vtk DataFile Version 2.0
Test
ASCII
DATASET POLYDATA
POINTS 3011 float
0.000000 0.000000 0.000000
2.000000 0.000000 0.000000
2.000000 4.000000 0.000000
0.000000 4.000000 0.000000
0.000000 0.500000 0.000000
1.500000 2.000000 0.000000
2.000000 2.500000 0.000000
0.285714 0.000000 0.000000
0.571429 0.000000 0.000000
0.857143 0.000000 0.000000
1.142857 0.000000 0.000000
1.428571 0.000000 0.000000
1.714286 0.000000 0.000000
2.000000 0.276366 0.000000
2.000000 0.523709 0.000000
2.000000 0.745076 0.000000
2.000000 0.943195 0.000000
2.000000 1.120508 0.000000
2.000000 1.279199 0.000000
2.000000 1.421225 0.000000
2.000000 1.548336 0.000000
2.000000 1.662097 0.000000
2.000000 1.763911 0.000000
2.000000 1.855033 0.000000
2.000000 1.936585 0.000000
2.000000 2.009573 0.000000
2.000000 2.074896 0.000000
2.000000 2.133358 0.000000
2.000000 2.185681 0.000000
2.000000 2.232509 0.000000
2.000000 2.274419 0.000000
2.000000 2.311927 0.000000
2.000000 2.345497 0.000000
2.000000 2.375541 0.000000
2.000000 2.402430 0.000000
2.000000 2.426495 0.000000
2.000000 2.448033 0.000000
2.000000 2.467309 0.000000
2.000000 2.484560 0.000000
2.000000 2.516256 0.000000
2.000000 2.535859 0.000000
2.000000 2.559499 0.000000
2.000000 2.588006 0.000000
2.000000 2.622383 0.000000
2.000000 2.663839 0.000000
2.000000 2.713831 0.000000
2.000000 2.774116 0.000000
2.000000 2.846815 0.000000
2.000000 2.934483 0.000000
2.000000 3.040202 0.000000
2.000000 3.167691 0.000000
2.000000 3.321430 0.000000
2.000000 3.506825 0.000000
2.000000 3.730395 0.000000
1.714286 4.000000 0.000000
1.428571 4.000000 0.000000
1.142857 4.000000 0.000000
0.857143 4.000000 0.000000
0.571429 4.000000 0.000000
0.285714 4.000000 0.000000
0.000000 3.713462 0.000000
0.000000 3.449209 0.000000
0.000000 3.205508 0.000000
0.000000 2.980761 0.000000
0.000000 2.773493 0.000000
0.000000 2.582346 0.000000
0.000000 2.406065 0.000000
0.000000 2.243495 0.000000
0.000000 2.093568 0.000000
0.000000 1.955302 0.000000
0.000000 1.827789 0.000000
0.000000 1.710194 0.000000
0.000000 1.601745 0.000000
0.000000 1.501730 0.000000
0.000000 1.409494 0.000000
0.000000 1.324431 0.000000
0.000000 1.245984 0.000000
0.000000 1.173639 0.000000
0.000000 1.106920 0.000000
0.000000 1.045390 0.000000
0.000000 0.988645 0.000000
0.000000 0.936314 0.000000
0.000000 0.888053 0.000000
0.000000 0.843545 0.000000
0.000000 0.802499 0.000000
0.000000 0.764646 0.000000
0.000000 0.729736 0.000000
0.000000 0.697541 0.000000
0.000000 0.667851 0.000000
0.000000 0.640469 0.000000
0.000000 0.615217 0.000000
0.000000 0.591929 0.000000
0.000000 0.570453 0.000000
0.000000 0.550646 0.000000
0.000000 0.532380 0.000000
0.000000 0.515535 0.000000
0.000000 0.483768 0.000000
0.000000 0.461535 0.000000
0.000000 0.431083 0.000000
0.000000 0.389372 0.000000
0.000000 0.332241 0.000000
0.000000 0.253989 0.000000
0.000000 0.146807 0.000000
0.010563 0.510563 0.000000
0.021127 0.521127 0.000000
0.031690 0.531690 0.000000
0.042254 0.542254 0.000000
0.052817 0.552817 0.000000
0.063380 0.563380 0.000000
0.073944 0.573944 0.000000
0.084507 0.584507 0.000000
0.095070 0.595070 0.000000
0.105634 0.605634 0.000000
0.116197 0.616197 0.000000
0.126761 0.626761 0.000000
0.137324 0.637324 0.000000
0.147887 0.647887 0.000000
0.158451 0.658451 0.000000
0.169014 0.669014 0.000000
0.179577 0.679577 0.000000
0.190141 0.690141 0.000000
0.200704 0.700704 0.000000
0.211268 0.711268 0.000000
0.221831 0.721831 0.000000
0.232394 0.732394 0.000000
0.242958 0.742958 0.000000
0.253521 0.753521 0.000000
0.264085 0.764085 0.000000
0.274648 0.774648 0.000000
0.285211 0.785211 0.000000
0.295775 0.795775 0.000000
0.306338 0.806338 0.000000
0.316901 0.816901 0.000000
0.327465 0.827465 0.000000
0.338028 0.838028 0.000000
0.348592 0.848592 0.000000
0.359155 0.859155 0.000000
0.369718 0.869718 0.000000
0.380282 0.880282 0.000000
0.390845 0.890845 0.000000
0.401408 0.901408 0.000000
0.411972 0.911972 0.000000
0.422535 0.922535 0.000000
0.433099 0.933099 0.000000
0.443662 0.943662 0.000000
0.454225 0.954225 0.000000
0.464789 0.964789 0.000000
0.475352 0.975352 0.000000
0.485915 0.985915 0.000000
0.496479 0.996479 0.000000
0.507042 1.007042 0.000000
0.517606 1.017606 0.000000
0.528169 1.028169 0.000000
0.538732 1.038732 0.000000
0.549296 1.049296 0.000000
0.559859 1.059859 0.000000
0.570423 1.070423 0.000000
0.580986 1.080986 0.000000
0.591549 1.091549 0.000000
0.602113 1.102113 0.000000
0.612676 1.112676 0.000000
0.623239 1.123239 0.000000
0.633803 1.133803 0.000000
0.644366 1.144366 0.000000
0.654930 1.154930 0.000000
0.665493 1.165493 0.000000
0.676056 1.176056 0.000000
0.686620 1.186620 0.000000
0.697183 1.197183 0.000000
0.707746 1.207746 0.000000
0.718310 1.218310 0.000000
0.728873 1.228873 0.000000
0.739437 1.239437 0.000000
0.750000 1.250000 0.000000
0.760563 1.260563 0.000000
0.771127 1.271127 0.000000
0.781690 1.281690 0.000000
0.792254 1.292254 0.000000
0.802817 1.302817 0.000000
0.813380 1.313380 0.000000
0.823944 1.323944 0.000000
0.834507 1.334507 0.000000
0.845070 1.345070 0.000000
0.855634 1.355634 0.000000
0.866197 1.366197 0.000000
0.876761 1.376761 0.000000
0.887324 1.387324 0.000000
0.897887 1.397887 0.000000
0.908451 1.408451 0.000000
0.919014 1.419014 0.000000
0.929577 1.429577 0.000000
0.940141 1.440141 0.000000
0.950704 1.450704 0.000000
0.961268 1.461268 0.000000
0.971831 1.471831 0.000000
0.982394 1.482394 0.000000
0.992958 1.492958 0.000000
1.003521 1.503521 0.000000
1.014085 1.514085 0.000000
1.024648 1.524648 0.000000
1.035211 1.535211 0.000000
1.045775 1.545775 0.000000
1.056338 1.556338 0.000000
1.066901 1.566901 0.000000
1.077465 1.577465 0.000000
1.088028 1.588028 0.000000
1.098592 1.598592 0.000000
1.109155 1.609155 0.000000
1.119718 1.619718 0.000000
1.130282 1.630282 0.000000
1.140845 1.640845 0.000000
1.151408 1.651408 0.000000
1.161972 1.661972 0.000000
1.172535 1.672535 0.000000
1.183099 1.683099 0.000000
1.193662 1.693662 0.000000
1.204225 1.704225 0.000000
1.214789 1.714789 0.000000
1.225352 1.725352 0.000000
1.235915 1.735915 0.000000
1.246479 1.746479 0.000000
1.257042 1.757042 0.000000
1.267606 1.767606 0.000000
1.278169 1.778169 0.000000
1.288732 1.788732 0.000000
1.299296 1.799296 0.000000
1.309859 1.809859 0.000000
1.320423 1.820423 0.000000
1.330986 1.830986 0.000000
1.341549 1.841549 0.000000
1.352113 1.852113 0.000000
1.362676 1.862676 0.000000
1.373239 1.873239 0.000000
1.383803 1.883803 0.000000
1.394366 1.894366 0.000000
1.404930 1.904930 0.000000
1.415493 1.915493 0.000000
1.426056 1.926056 0.000000
1.436620 1.936620 0.000000
1.447183 1.947183 0.000000
1.457746 1.957746 0.000000
1.468310 1.968310 0.000000
1.478873 1.978873 0.000000
1.489437 1.989437 0.000000
1.510417 2.010417 0.000000
1.520833 2.020833 0.000000
1.531250 2.031250 0.000000
1.541667 2.041667 0.000000
1.552083 2.052083 0.000000
1.562500 2.062500 0.000000
1.572917 2.072917 0.000000
1.583333 2.083333 0.000000
1.593750 2.093750 0.000000
1.604167 2.104167 0.000000
1.614583 2.114583 0.000000
1.625000 2.125000 0.000000
1.635417 2.135417 0.000000
1.645833 2.145833 0.000000
1.656250 2.156250 0.000000
1.666667 2.166667 0.000000
1.677083 2.177083 0.000000
1.687500 2.187500 0.000000
1.697917 2.197917 0.000000
1.708333 2.208333 0.000000
1.718750 2.218750 0.000000
1.729167 2.229167 0.000000
1.739583 2.239583 0.000000
1.750000 2.250000 0.000000
1.760417 2.260417 0.000000
1.770833 2.270833 0.000000
1.781250 2.281250 0.000000
1.791667 2.291667 0.000000
1.802083 2.302083 0.000000
1.812500 2.312500 0.000000
1.822917 2.322917 0.000000
1.833333 2.333333 0.000000
1.843750 2.343750 0.000000
1.854167 2.354167 0.000000
1.864583 2.364583 0.000000
1.875000 2.375000 0.000000
1.885417 2.385417 0.000000
1.895833 2.395833 0.000000
1.906250 2.406250 0.000000
1.916667 2.416667 0.000000
1.927083 2.427083 0.000000
1.937500 2.437500 0.000000
1.947917 2.447917 0.000000
1.958333 2.458333 0.000000
1.968750 2.468750 0.000000
1.979167 2.479167 0.000000
1.989583 2.489583 0.000000
0.206561 0.791563 0.000000
0.205359 0.816165 0.000000
0.186354 0.798211 0.000000
0.221961 0.800924 0.000000
0.280649 1.360489 0.000000
0.304015 1.400469 0.000000
0.229142 1.396096 0.000000
0.275922 1.451476 0.000000
1.869084 2.391788 0.000000
1.857928 2.378421 0.000000
1.238669 2.061899 0.000000
1.278787 2.082276 0.000000
1.238298 2.096047 0.000000
1.277579 2.032995 0.000000
0.402536 1.205823 0.000000
0.415290 1.176040 0.000000
0.428330 1.201952 0.000000
0.387294 1.172617 0.000000
0.146930 1.050586 0.000000
0.109488 1.087198 0.000000
0.102742 1.042403 0.000000
0.157178 1.091184 0.000000
0.588967 1.178581 0.000000
0.593116 1.153718 0.000000
0.608054 1.166752 0.000000
0.612180 1.145944 0.000000
0.860304 1.543784 0.000000
0.868821 1.521840 0.000000
0.878420 1.536650 0.000000
0.845380 1.517623 0.000000
1.129525 1.764330 0.000000
1.142005 1.751560 0.000000
1.145757 1.773681 0.000000
1.159368 1.759106 0.000000
1.968150 2.518865 0.000000
1.986105 2.509269 0.000000
1.986696 2.531115 0.000000
0.668964 1.191005 0.000000
0.683291 1.201259 0.000000
0.557625 1.074830 0.000000
0.569760 1.084377 0.000000
0.557769 1.089278 0.000000
0.707567 1.266174 0.000000
0.719026 1.281845 0.000000
0.700768 1.282275 0.000000
0.722329 1.266956 0.000000
0.468225 2.149688 0.000000
0.419106 2.064198 0.000000
0.523878 2.082648 0.000000
0.838546 1.421191 0.000000
0.823708 1.410355 0.000000
0.840477 1.404206 0.000000
0.818500 1.425973 0.000000
0.953187 1.488222 0.000000
0.959780 1.473222 0.000000
0.967054 1.485637 0.000000
1.047418 1.769126 0.000000
1.080240 1.782403 0.000000
1.047768 1.802712 0.000000
0.971392 1.693320 0.000000
0.949208 1.720793 0.000000
0.940644 1.684781 0.000000
0.381391 2.160909 0.000000
0.944091 1.477800 0.000000
0.530075 1.477351 0.000000
0.521303 1.516669 0.000000
0.474240 1.491166 0.000000
0.489489 1.546185 0.000000
1.537370 2.239326 0.000000
1.555275 2.267640 0.000000
1.532966 2.278201 0.000000
0.962010 1.661716 0.000000
0.986804 1.643200 0.000000
0.986259 1.672729 0.000000
1.049149 1.737940 0.000000
1.075111 1.737123 0.000000
[...]
POINT_DATA 3011
SCALARS UX float 1
LOOKUP_TABLE default
-0.000000
0.000000
-0.023020
-0.036383
-0.008850
-0.009068
-0.015797
-0.000000
-0.000000
-0.000000
-0.000000
0.000000
-0.000000
0.004848
0.006837
0.007982
0.008710
0.009161
0.009396
0.009416
0.009095
0.008338
0.007081
0.005213
0.002961
0.000380
-0.002139
-0.004502
-0.006591
-0.008360
-0.009837
-0.011069
-0.012091
-0.012931
-0.013635
-0.014224
-0.014721
-0.015140
-0.015496
-0.016103
-0.016453
-0.016861
-0.017306
-0.017797
-0.018327
-0.018858
-0.019437
-0.020029
-0.020575
-0.021134
-0.021658
-0.022162
-0.022599
-0.022884
-0.025546
-0.027818
-0.029801
-0.031556
-0.033217
-0.034803
-0.036084
-0.035513
-0.034637
-0.033699
-0.032793
-0.032063
-0.031578
-0.031340
-0.031371
-0.031608
-0.032022
-0.032508
-0.033050
-0.033617
-0.034178
-0.034714
-0.035206
-0.035636
-0.036014
-0.036338
-0.036598
-0.036798
-0.036941
-0.037042
-0.037111
-0.037108
-0.037030
-0.036828
-0.036459
-0.036186
-0.035986
-0.035539
-0.034395
-0.034397
-0.032321
-0.030461
-0.007030
-0.006476
-0.005541
-0.005011
-0.004346
-0.003518
-0.002371
-0.012722
-0.012077
-0.011810
-0.018420
-0.017701
-0.016623
-0.017037
-0.016409
-0.016069
-0.015805
-0.016253
-0.016450
-0.016243
-0.015875
-0.015492
-0.016085
-0.016217
-0.015947
-0.015436
-0.015114
-0.015529
-0.015692
-0.015768
-0.015575
-0.015436
-0.015723
-0.016143
-0.015357
-0.019366
-0.019359
-0.019419
-0.018912
-0.019079
-0.018694
-0.018384
-0.018298
-0.017662
-0.017664
-0.017199
-0.017529
-0.017181
-0.016894
-0.016734
-0.016459
-0.016503
-0.016071
-0.015965
-0.015728
-0.015506
-0.015323
-0.015101
-0.015045
-0.015028
-0.014736
-0.014742
-0.014676
-0.014527
-0.014360
-0.014086
-0.014086
-0.013941
-0.013801
-0.013669
-0.013550
-0.013000
-0.013225
-0.012973
-0.012985
-0.012747
-0.012063
-0.012290
-0.012162
-0.011769
-0.011782
-0.015569
-0.015348
-0.015139
-0.015024
-0.014831
-0.014592
-0.014464
-0.014250
-0.013821
-0.013070
-0.012795
-0.013798
-0.013657
-0.013275
-0.013024
-0.013156
-0.012943
-0.012863
-0.012892
-0.012503
-0.012521
-0.012314
-0.012441
-0.012242
-0.012240
-0.012124
-0.012062
-0.011912
-0.011620
-0.011445
-0.011285
-0.011094
-0.010769
-0.010828
-0.010377
-0.010219
-0.010598
-0.010682
-0.010405
-0.009959
-0.010316
-0.010322
-0.010374
-0.010301
-0.010249
-0.010179
-0.009885
-0.009541
-0.010044
-0.009271
-0.009060
-0.008855
-0.009197
-0.008307
-0.008120
-0.007763
-0.009004
-0.010566
-0.011805
-0.011567
-0.011356
-0.010882
-0.010528
-0.010304
-0.009945
-0.009770
-0.009554
-0.009062
-0.009181
-0.009292
-0.009479
-0.009674
-0.009863
-0.010081
-0.010287
-0.010462
-0.010652
-0.010831
-0.011011
-0.011186
-0.011361
-0.011536
-0.011708
-0.011877
-0.012052
-0.012221
-0.012392
-0.012560
-0.012727
-0.012891
-0.013060
-0.013221
-0.013384
-0.013542
-0.013700
-0.013854
-0.014006
-0.014154
-0.014298
-0.014440
-0.014574
-0.014705
-0.014830
-0.014949
-0.015062
-0.015167
-0.015267
-0.015360
-0.015446
-0.015525
-0.015595
-0.015657
-0.015713
-0.015759
-0.034142
-0.034680
-0.034924
-0.033670
-0.032781
-0.032370
-0.032876
-0.032223
-0.015350
-0.015171
-0.019967
-0.019237
-0.019939
-0.019328
-0.032838
-0.032846
-0.032631
-0.033107
-0.035450
-0.035503
-0.035763
-0.035184
-0.030145
-0.029085
-0.028799
-0.026097
-0.027034
-0.026915
-0.026780
-0.027258
-0.022693
-0.022353
-0.022291
-0.021810
-0.016633
-0.016188
-0.016573
-0.023491
-0.021740
-0.022996
-0.021173
-0.026162
-0.027314
-0.027341
-0.028374
-0.026108
-0.027906
-0.028358
-0.027529
-0.026595
-0.026918
-0.026006
-0.027344
-0.021725
-0.017323
-0.018870
-0.023960
-0.023467
-0.023800
-0.025219
-0.025347
-0.025594
-0.028554
-0.021904
-0.030327
-0.030143
-0.030639
-0.030182
-0.016847
-0.017169
-0.017701
-0.025426
-0.025105
-0.025094
-0.024061
-0.023655
-0.023698
-0.016501
-0.023810
-0.020305
-0.016325
-0.017265
-0.019316
-0.018604
-0.017952
-0.018570
-0.017695
-0.018510
-0.018021
-0.030141
-0.030347
-0.029978
-0.030133
-0.029651
-0.029664
-0.030175
-0.029136
-0.033715
-0.033416
-0.033558
-0.033664
-0.023219
-0.023501
-0.022977
-0.024072
-0.029631
-0.030039
-0.029346
-0.015506
-0.015635
-0.016193
-0.030275
-0.034121
-0.034463
-0.034642
-0.029660
-0.029470
-0.029304
-0.029119
-0.034952
-0.031071
-0.030463
-0.031211
-0.016809
-0.016100
-0.016408
-0.023678
-0.023346
-0.023074
-0.032513
-0.032354
-0.022569
-0.027831
-0.027607
-0.028043
-0.027526
-0.014300
-0.015223
-0.015128
-0.027322
-0.027105
-0.027446
-0.014101
-0.030453
-0.024389
-0.026886
-0.031400
-0.031258
-0.030989
-0.035471
-0.035063
-0.030891
-0.026146
-0.026366
-0.025807
-0.035782
-0.025962
-0.023659
-0.023222
-0.035394
-0.035096
-0.035117
-0.027205
-0.024208
-0.022914
-0.028267
-0.029756
-0.011317
-0.011177
-0.011954
-0.021106
-0.021439
-0.021662
-0.022627
-0.022238
-0.022709
-0.022448
-0.023397
-0.023660
-0.022980
-0.030658
-0.032017
-0.031770
-0.027182
-0.027569
-0.027394
-0.025752
-0.027302
-0.036261
-0.036054
-0.036345
-0.029343
-0.030485
-0.016137
-0.024201
-0.014171
-0.014863
-0.014684
-0.027573
-0.027044
-0.025866
-0.027071
-0.017959
-0.018446
-0.018890
-0.028417
-0.029284
-0.027771
-0.021003
-0.020488
-0.020443
-0.021491
-0.014339
-0.014369
-0.014845
-0.020473
-0.021004
-0.020961
-0.019014
-0.017465
-0.017994
-0.024932
-0.024853
-0.025946
-0.025995
-0.011598
-0.010997
-0.012769
-0.026703
-0.030411
-0.030849
-0.031207
-0.031315
-0.021756
-0.017842
-0.017696
-0.016952
-0.019588
-0.019673
-0.018906
-0.020194
-0.018351
-0.018116
-0.017614
-0.013102
-0.012759
-0.026104
-0.025543
-0.025668
-0.026073
-0.026369
-0.025522
-0.026240
-0.025499
-0.018323
-0.018732
-0.018151
-0.016288
-0.016290
-0.017826
-0.013141
-0.012554
-0.013479
-0.013370
-0.013165
-0.027741
-0.028044
-0.028504
-0.028118
-0.028251
-0.027888
-0.027879
-0.028097
-0.027758
-0.027171
-0.026176
-0.026454
-0.025906
-0.026568
-0.020530
-0.020081
-0.019525
-0.021030
-0.024159
-0.026218
-0.027166
-0.027838
-0.027888
-0.027623
-0.025881
-0.014451
-0.015055
-0.014620
-0.015328
-0.022291
-0.021908
-0.026482
-0.026446
-0.026057
-0.014892
-0.015956
-0.019251
-0.022089
-0.022842
-0.021824
-0.022766
-0.024340
-0.024369
-0.023348
-0.025048
-0.012303
-0.012191
-0.021945
-0.019700
-0.023776
-0.022917
-0.023360
-0.023679
-0.017892
-0.018682
-0.019443
-0.022509
-0.024221
-0.023655
-0.024248
-0.017740
-0.018372
-0.014962
-0.014277
-0.015438
-0.014711
-0.018567
-0.018776
-0.019453
-0.019381
-0.036056
-0.035964
-0.036293
-0.035754
-0.031909
-0.030093
-0.027878
-0.030682
-0.031245
-0.032281
-0.011924
-0.033109
-0.033193
-0.033524
-0.033491
-0.021893
-0.021391
-0.021188
-0.020660
-0.026827
-0.026463
-0.026153
-0.025990
-0.014214
-0.013624
-0.014078
-0.013445
-0.013382
-0.014236
-0.032233
-0.032337
-0.032874
-0.034990
-0.035608
-0.034774
-0.035765
-0.035821
-0.035563
-0.024222
-0.024602
-0.024489
-0.017743
-0.018567
-0.032046
-0.031966
-0.032383
-0.032191
-0.032546
-0.026743
-0.026473
-0.026899
-0.026600
-0.032848
-0.033349
-0.033304
-0.032511
-0.028261
-0.027812
-0.035552
-0.035363
-0.035157
-0.035346
-0.035629
-0.034376
-0.034903
-0.033515
-0.031844
-0.032294
-0.034732
-0.033863
-0.034168
-0.034900
-0.034319
-0.025542
-0.025478
-0.025795
-0.021573
-0.033959
-0.033418
-0.032948
-0.035035
-0.033874
-0.018914
-0.018647
-0.018351
-0.019517
-0.019349
-0.018502
-0.034328
-0.034365
-0.034595
-0.031744
-0.031491
-0.031033
-0.031497
-0.021162
-0.020229
-0.020901
-0.021673
-0.024448
-0.024387
-0.032591
-0.032191
-0.032709
-0.032240
-0.027366
-0.030385
-0.031458
-0.027104
-0.027557
-0.031670
-0.016248
-0.016961
-0.016965
-0.015881
-0.033643
-0.033355
-0.021685
-0.021769
-0.022446
-0.022419
-0.022355
-0.026675
-0.027717
-0.026783
-0.028130
-0.028670
-0.028529
-0.028495
-0.036080
-0.036393
-0.036466
-0.035831
-0.018511
-0.024246
-0.034741
-0.034835
-0.035137
-0.034954
-0.034080
-0.035017
-0.016812
-0.016336
-0.015976
-0.033911
-0.034110
-0.034818
-0.031744
-0.032620
-0.032099
-0.016451
-0.016120
-0.016658
-0.015988
-0.016460
-0.020536
-0.020037
-0.034700
-0.034846
-0.034585
-0.017151
-0.020070
-0.019282
-0.019655
-0.032688
-0.031923
-0.031590
-0.031971
-0.031629
-0.031351
-0.029801
-0.029595
-0.034261
-0.033787
-0.036776
-0.036604
-0.036516
-0.036373
-0.032401
-0.011973
-0.032665
-0.033071
-0.033897
-0.031829
-0.030742
-0.018992
-0.019825
-0.034233
-0.035285
-0.034234
-0.016026
-0.034677
-0.018348
-0.018302
-0.019089
-0.034592
-0.034763
-0.034079
-0.025891
-0.025003
-0.025431
-0.024543
-0.024909
-0.035374
-0.035315
-0.035749
-0.035790
-0.018054
-0.018916
-0.033962
-0.033365
-0.033420
-0.033082
-0.031318
-0.031067
-0.031477
-0.030834
-0.031276
-0.031296
-0.031049
-0.030698
-0.031065
-0.032264
-0.033698
-0.017472
-0.017614
-0.033093
-0.032813
-0.033116
-0.032885
-0.033315
-0.010190
-0.010506
-0.011393
-0.030567
-0.030607
-0.033196
-0.033423
-0.030640
-0.030313
-0.022105
-0.022896
-0.022546
-0.021977
-0.028549
-0.033217
-0.031622
-0.031706
-0.030852
-0.016430
-0.014599
-0.015242
-0.015028
-0.015732
-0.024940
-0.025113
-0.024494
-0.024300
-0.023806
-0.023871
-0.019808
-0.019027
-0.017732
-0.017882
-0.024199
-0.023645
-0.017661
-0.017690
-0.025994
-0.032928
-0.033360
-0.030967
-0.028119
-0.025265
-0.031788
-0.033002
-0.019447
-0.027971
-0.036719
-0.018791
-0.022118
-0.022486
-0.015695
-0.016081
-0.017127
-0.036691
-0.033240
-0.033007
-0.033357
-0.022498
-0.022653
-0.023076
-0.022864
-0.015582
-0.035489
-0.035318
-0.035066
-0.033213
-0.019599
-0.019734
-0.020338
-0.020180
-0.014755
-0.036834
-0.036888
-0.036606
-0.032898
-0.036000
-0.029194
-0.029570
-0.028612
-0.029667
-0.030430
-0.032013
-0.034150
-0.024191
-0.025110
-0.025159
-0.024115
-0.025423
-0.026175
-0.024205
-0.032282
-0.026696
-0.024214
-0.023978
-0.024909
-0.024738
-0.035247
-0.035608
-0.034911
-0.036510
-0.036140
-0.029587
-0.028329
-0.029542
-0.028284
-0.035312
-0.021564
-0.024129
-0.023541
-0.028182
-0.028619
-0.028198
-0.033987
-0.033758
-0.034381
-0.031873
-0.032017
-0.033057
-0.032991
-0.027579
-0.027412
-0.027102
-0.026888
-0.026615
-0.022052
-0.022692
-0.024736
-0.025807
-0.026145
-0.025902
-0.025006
-0.021306
-0.023351
-0.023475
-0.024216
-0.024246
-0.032216
-0.031059
-0.031651
-0.030491
-0.031563
-0.032584
-0.033655
-0.032952
-0.016137
-0.034002
-0.033958
-0.034332
-0.034358
-0.028718
-0.028921
-0.028519
-0.029776
-0.029393
-0.036407
-0.034121
-0.034051
-0.036071
-0.012164
-0.012595
-0.031874
-0.034869
-0.012458
-0.019469
-0.029144
-0.029807
-0.029248
-0.021424
-0.030039
-0.035947
-0.035328
-0.036836
-0.036458
-0.015515
-0.035739
-0.028523
-0.030315
-0.028713
-0.033272
-0.035389
-0.015523
-0.025575
-0.027534
-0.030039
-0.030033
-0.018696
-0.019425
-0.019454
-0.014970
-0.015508
-0.014993
-0.025588
-0.031123
-0.031958
-0.033607
-0.028090
-0.024614
-0.025432
-0.025888
-0.026778
-0.033835
-0.033794
-0.029019
-0.029052
-0.028182
-0.027638
-0.020458
-0.027270
-0.036618
-0.031635
-0.031852
-0.031618
-0.023690
-0.030735
-0.030428
-0.030445
-0.030574
-0.029799
-0.029672
-0.029259
-0.028888
-0.031041
-0.029216
-0.029610
-0.029359
-0.023675
-0.022428
-0.023121
-0.029292
-0.032313
-0.032545
-0.032258
-0.034558
-0.033974
-0.034726
-0.035814
-0.029819
-0.023279
-0.029145
-0.029874
-0.030548
-0.030030
-0.036144
-0.034771
-0.030184
-0.030104
-0.032281
-0.021725
-0.017097
-0.017853
-0.035906
-0.030030
-0.026388
-0.036374
-0.033559
-0.033038
-0.032313
-0.020035
-0.035422
-0.019520
-0.019655
-0.020165
-0.028518
-0.027497
-0.036156
-0.029582
-0.031897
-0.032144
-0.032544
-0.021677
-0.025148
-0.025766
-0.025274
-0.027121
-0.031664
-0.029737
-0.032931
-0.032571
-0.032299
-0.030499
-0.030570
-0.033095
-0.035170
-0.014601
-0.013827
-0.031736
-0.031516
-0.031898
-0.014841
-0.027132
-0.026775
-0.016185
-0.018390
-0.020175
-0.023794
-0.024455
-0.035173
-0.035606
-0.023408
-0.023239
-0.027980
-0.027156
-0.027836
-0.028530
-0.033797
-0.032966
-0.033621
-0.019177
-0.019801
-0.022740
-0.022146
-0.030636
-0.033753
-0.033440
-0.030902
-0.031183
-0.030870
-0.033141
-0.036127
-0.030621
-0.027786
-0.027949
-0.034040
-0.034322
-0.034373
-0.020255
-0.028314
-0.028465
-0.028763
-0.030268
-0.024674
-0.033849
-0.033513
-0.028129
-0.027329
-0.028931
-0.030315
-0.027177
-0.015612
-0.030689
-0.028182
-0.028213
-0.032174
-0.031966
-0.032538
-0.030769
-0.031045
-0.031003
-0.023707
-0.026633
-0.027808
-0.027486
-0.024742
-0.025588
-0.028975
-0.025414
-0.023439
-0.021004
-0.021006
-0.020727
-0.023154
-0.027895
-0.033775
-0.033777
-0.034112
-0.034111
-0.015078
-0.014461
-0.016826
-0.029191
-0.028951
-0.031071
-0.030993
-0.031220
-0.030889
-0.031304
-0.021606
-0.015652
-0.015537
-0.022197
-0.018038
-0.022492
-0.020972
-0.030669
-0.026344
-0.026230
-0.033556
-0.032992
-0.033280
-0.027265
-0.018180
-0.018649
-0.027233
-0.023966
-0.024428
-0.033705
-0.024470
-0.028372
-0.023985
-0.029731
-0.026198
-0.025922
-0.031915
-0.025013
-0.024638
-0.024884
-0.024655
-0.016699
-0.025553
-0.029580
-0.018531
-0.027521
-0.031571
-0.020028
-0.020951
-0.020629
-0.021291
-0.020451
-0.021200
-0.022020
-0.033985
-0.032369
-0.034642
-0.031513
-0.031826
-0.031610
-0.024299
-0.024832
-0.031996
-0.032596
-0.033138
-0.028164
-0.027100
-0.026864
-0.029375
-0.021931
-0.028664
-0.031694
-0.033975
-0.035059
-0.015584
-0.025597
-0.032263
-0.032745
-0.032067
-0.026265
-0.026793
-0.023261
-0.025150
-0.025456
-0.025754
-0.026156
-0.027484
-0.027282
-0.027224
-0.026266
-0.026489
-0.027249
-0.028883
-0.033988
-0.011975
-0.011939
-0.025570
-0.031939
-0.028856
-0.029043
-0.029193
-0.023863
-0.024902
-0.025974
-0.026167
-0.026298
-0.026147
-0.016232
-0.015420
-0.029168
-0.028617
-0.024630
-0.029291
-0.025304
-0.023653
-0.031566
-0.021026
-0.021098
-0.032704
-0.027156
-0.026627
-0.026791
-0.016081
-0.022685
-0.022013
-0.022439
-0.033682
-0.034095
-0.020534
-0.031572
-0.029228
-0.031904
-0.020522
-0.027532
-0.026278
-0.022725
-0.030873
-0.030759
-0.030546
-0.024426
-0.021274
-0.022099
-0.021357
-0.014297
-0.013749
-0.014480
-0.014967
-0.013979
-0.020420
-0.012665
-0.012894
-0.028867
-0.025847
-0.025434
-0.028512
-0.024592
-0.024170
-0.020196
-0.020466
-0.026982
-0.031401
-0.027678
-0.031685
-0.031646
-0.028817
-0.028691
-0.029015
-0.015920
-0.016387
-0.030532
-0.026049
-0.029420
-0.020946
-0.017744
-0.017357
-0.017549
-0.018406
-0.019087
-0.017220
-0.031113
-0.030363
-0.027112
-0.026328
-0.026368
-0.028883
-0.031991
-0.028515
-0.023480
-0.024324
-0.023222
-0.024661
-0.027717
-0.027337
-0.023509
-0.029625
-0.018970
-0.028787
-0.026340
-0.023288
-0.026064
-0.017002
-0.017361
-0.030424
-0.014305
-0.013660
-0.032512
-0.023902
-0.029482
-0.013881
-0.024897
-0.017607
-0.027809
-0.014927
-0.034541
-0.016681
-0.031462
-0.027300
-0.028262
-0.028813
-0.034199
-0.022810
-0.022893
-0.023550
-0.021852
-0.021221
-0.020390
-0.020906
-0.026381
-0.023389
-0.024340
-0.027602
-0.020736
-0.020204
-0.027883
-0.018422
-0.026665
-0.026738
-0.029976
-0.029646
-0.030007
-0.029814
-0.029656
-0.029418
-0.026255
-0.031482
-0.022300
-0.024155
-0.021008
-0.016382
-0.015549
-0.030725
-0.021483
-0.020810
-0.018643
-0.027247
-0.029736
-0.031105
-0.023659
-0.022841
-0.024240
-0.021407
-0.022022
-0.022430
-0.023104
-0.013995
-0.013346
-0.014059
-0.012883
-0.032168
-0.034752
-0.023464
-0.023481
-0.023876
-0.022681
-0.029428
-0.020324
-0.019849
-0.019893
-0.025080
-0.024877
-0.025515
-0.024459
-0.019436
-0.019770
-0.019261
-0.025164
-0.025626
-0.022732
-0.024713
-0.024660
-0.030874
-0.027995
-0.015362
-0.014993
-0.025387
-0.024868
-0.025083
-0.015850
-0.016066
-0.013813
-0.014841
-0.032066
-0.019798
-0.013180
-0.029305
-0.028912
-0.029028
-0.016346
-0.015666
-0.016248
-0.029935
-0.027917
-0.015867
-0.029747
-0.030850
-0.031403
-0.015249
-0.016754
-0.024625
-0.025123
-0.022664
-0.021189
-0.025147
-0.013109
-0.011776
-0.013396
-0.025476
-0.024139
-0.026509
-0.025177
-0.028434
-0.028006
-0.027913
-0.013664
-0.014816
-0.033127
-0.034123
-0.027603
-0.020528
-0.019821
-0.024392
-0.021611
-0.036216
-0.025454
-0.030281
-0.030340
-0.028759
-0.016953
-0.030389
-0.029918
-0.031218
-0.031134
-0.015044
-0.024217
-0.034617
-0.017370
-0.010702
-0.011290
-0.017571
-0.016883
-0.016940
-0.015829
-0.021378
-0.021836
-0.022216
-0.022763
-0.022819
-0.017673
-0.013127
-0.013335
-0.024054
-0.020907
-0.022474
-0.028931
-0.028137
-0.020969
-0.019873
-0.023864
-0.021868
-0.026184
-0.020819
-0.021086
-0.019531
-0.020715
-0.012962
-0.017691
-0.018648
-0.013438
-0.014070
-0.012730
-0.014811
-0.019757
-0.015893
-0.024356
-0.023004
-0.018738
-0.015766
-0.017738
-0.022020
-0.023578
-0.028823
-0.029600
-0.029535
-0.026900
-0.026900
-0.020443
-0.020257
-0.023926
-0.019229
-0.018365
-0.020322
-0.017553
-0.015891
-0.015741
-0.015193
-0.021721
-0.021727
-0.016673
-0.016092
-0.015640
-0.013817
-0.013083
-0.014994
-0.030886
-0.012875
-0.011637
-0.012124
-0.011687
-0.014258
-0.012415
-0.012647
-0.023456
-0.021826
-0.024655
-0.017199
-0.016442
-0.030145
-0.012937
-0.020528
-0.019746
-0.022482
-0.015791
-0.035862
-0.035334
-0.029463
-0.034797
-0.036210
-0.026659
-0.031884
-0.024865
-0.028608
-0.026540
-0.028437
-0.028442
-0.029349
-0.020727
-0.019977
-0.025642
-0.024735
-0.014013
-0.014357
-0.015592
-0.020308
-0.016314
-0.022433
-0.018139
-0.018063
-0.029935
-0.018065
-0.020790
-0.017282
-0.017628
-0.014312
-0.013960
-0.010790
-0.010724
-0.012574
-0.012336
-0.011614
-0.021395
-0.019820
-0.032374
-0.014345
-0.016883
-0.016111
-0.016482
-0.021988
-0.017932
-0.017993
-0.029535
-0.029182
-0.028206
-0.028520
-0.026777
-0.026986
-0.021939
-0.022157
-0.022375
-0.017283
-0.029149
-0.028191
-0.030101
-0.015884
-0.016560
-0.019115
-0.019207
-0.019797
-0.021545
-0.028875
-0.027333
-0.029873
-0.015269
-0.020287
-0.020693
-0.020747
-0.015331
-0.014820
-0.015258
-0.032718
-0.020470
-0.023058
-0.026186
-0.025676
-0.027028
-0.025416
-0.018396
-0.027379
-0.036064
-0.028850
-0.016752
-0.020373
-0.025681
-0.025536
-0.021728
-0.025930
-0.027473
-0.026543
-0.021903
-0.017073
-0.022742
-0.027333
-0.028302
-0.020980
-0.024860
-0.021271
-0.021261
-0.032542
-0.030368
-0.016753
-0.017156
-0.030755
-0.017847
-0.016963
-0.014704
-0.026281
-0.017322
-0.023248
-0.022215
-0.023008
-0.028221
-0.026060
-0.023138
-0.033077
-0.020514
-0.027740
-0.015520
-0.015165
-0.018476
-0.021598
-0.021562
-0.017620
-0.018333
-0.034378
-0.034330
-0.029504
-0.030605
-0.018510
-0.016703
-0.024187
-0.027723
-0.015704
-0.027332
-0.016022
-0.016837
-0.024943
-0.022151
-0.021818
-0.016696
-0.016734
-0.014730
-0.016007
-0.025738
-0.024208
-0.016052
-0.015859
-0.015464
-0.014007
-0.014618
-0.014091
-0.027042
-0.023777
-0.024201
-0.017403
-0.035442
-0.011060
-0.025163
-0.018038
-0.029735
-0.019095
-0.014081
-0.023020
-0.023577
-0.013668
-0.025689
-0.013483
-0.012086
-0.029561
-0.024296
-0.032286
-0.030033
-0.024899
-0.025547
-0.026479
-0.024904
-0.024185
-0.023035
-0.020568
-0.023291
-0.017065
-0.021523
-0.021188
-0.020867
-0.023048
-0.019175
-0.026845
-0.015844
-0.016443
-0.011558
-0.022214
-0.025918
-0.018784
-0.017361
-0.016889
-0.013420
-0.019095
-0.029872
-0.014525
-0.018137
-0.024039
-0.018176
-0.013679
-0.015934
-0.012361
-0.012075
-0.032528
-0.013211
-0.026826
-0.014484
-0.013678
-0.013737
-0.023876
-0.019336
-0.018990
-0.025078
-0.023120
-0.018867
-0.025209
-0.023311
-0.023350
-0.020350
-0.023227
-0.018905
-0.018586
-0.018399
-0.025672
-0.021472
-0.013663
-0.016338
-0.019150
-0.021848
-0.017600
-0.019952
-0.020649
-0.016966
-0.026412
-0.017709
-0.022782
-0.016466
-0.021094
-0.016217
-0.026935
-0.023982
-0.024649
-0.014180
-0.010543
-0.024787
-0.016935
-0.017043
-0.012058
-0.021432
-0.018879
-0.017577
-0.031132
-0.028557
-0.015021
-0.018962
-0.012952
-0.015197
-0.015775
-0.027021
-0.023662
-0.020862
-0.004557
-0.003515
-0.003579
-0.008326
-0.005090
-0.006703
-0.005873
-0.007385
-0.003910
0.000110
-0.001062
0.000741
-0.001822
-0.002265
-0.000067
-0.001145
0.002237
-0.000091
0.000000
-0.000538
0.004641
0.005599
0.005903
-0.002050
-0.003123
-0.001755
-0.008269
-0.007421
-0.006885
-0.009118
-0.003107
-0.005005
-0.003831
-0.002617
-0.002009
-0.001746
-0.001020
-0.000857
-0.001312
-0.002794
0.001178
-0.000134
0.000675
-0.000118
-0.001456
-0.000568
-0.001897
-0.002351
-0.001728
-0.000609
-0.000133
0.003432
0.003108
0.003400
0.003061
-0.003303
-0.003041
-0.003970
-0.000210
-0.000320
-0.002523