# vtk DataFile Version 2.0
Test
ASCII
DATASET POLYDATA
POINTS 1818 float
0.000000 0.000000 0.000000
1.000000 0.000000 0.000000
1.000000 1.000000 0.000000
0.000000 1.000000 0.000000
0.300000 0.330000 0.000000
0.700000 0.680000 0.000000
0.058824 0.000000 0.000000
0.117647 0.000000 0.000000
0.176471 0.000000 0.000000
0.235294 0.000000 0.000000
0.294118 0.000000 0.000000
0.352941 0.000000 0.000000
0.411765 0.000000 0.000000
0.470588 0.000000 0.000000
0.529412 0.000000 0.000000
0.588235 0.000000 0.000000
0.647059 0.000000 0.000000
0.705882 0.000000 0.000000
0.764706 0.000000 0.000000
0.823529 0.000000 0.000000
0.882353 0.000000 0.000000
0.941176 0.000000 0.000000
1.000000 0.058824 0.000000
1.000000 0.117647 0.000000
1.000000 0.176471 0.000000
1.000000 0.235294 0.000000
1.000000 0.294118 0.000000
1.000000 0.352941 0.000000
1.000000 0.411765 0.000000
1.000000 0.470588 0.000000
1.000000 0.529412 0.000000
1.000000 0.588235 0.000000
1.000000 0.647059 0.000000
1.000000 0.705882 0.000000
1.000000 0.764706 0.000000
1.000000 0.823529 0.000000
1.000000 0.882353 0.000000
1.000000 0.941176 0.000000
0.941176 1.000000 0.000000
0.882353 1.000000 0.000000
0.823529 1.000000 0.000000
0.764706 1.000000 0.000000
0.705882 1.000000 0.000000
0.647059 1.000000 0.000000
0.588235 1.000000 0.000000
0.529412 1.000000 0.000000
0.470588 1.000000 0.000000
0.411765 1.000000 0.000000
0.352941 1.000000 0.000000
0.294118 1.000000 0.000000
0.235294 1.000000 0.000000
0.176471 1.000000 0.000000
0.117647 1.000000 0.000000
0.058824 1.000000 0.000000
0.000000 0.941176 0.000000
0.000000 0.882353 0.000000
0.000000 0.823529 0.000000
0.000000 0.764706 0.000000
0.000000 0.705882 0.000000
0.000000 0.647059 0.000000
0.000000 0.588235 0.000000
0.000000 0.529412 0.000000
0.000000 0.470588 0.000000
0.000000 0.411765 0.000000
0.000000 0.352941 0.000000
0.000000 0.294118 0.000000
0.000000 0.235294 0.000000
0.000000 0.176471 0.000000
0.000000 0.117647 0.000000
0.000000 0.058824 0.000000
0.305970 0.335224 0.000000
0.311940 0.340448 0.000000
0.317910 0.345672 0.000000
0.323881 0.350896 0.000000
0.329851 0.356119 0.000000
0.335821 0.361343 0.000000
0.341791 0.366567 0.000000
0.347761 0.371791 0.000000
0.353731 0.377015 0.000000
0.359701 0.382239 0.000000
0.365672 0.387463 0.000000
0.371642 0.392687 0.000000
0.377612 0.397910 0.000000
0.383582 0.403134 0.000000
0.389552 0.408358 0.000000
0.395522 0.413582 0.000000
0.401493 0.418806 0.000000
0.407463 0.424030 0.000000
0.413433 0.429254 0.000000
0.419403 0.434478 0.000000
0.425373 0.439701 0.000000
0.431343 0.444925 0.000000
0.437313 0.450149 0.000000
0.443284 0.455373 0.000000
0.449254 0.460597 0.000000
0.455224 0.465821 0.000000
0.461194 0.471045 0.000000
0.467164 0.476269 0.000000
0.473134 0.481493 0.000000
0.479104 0.486716 0.000000
0.485075 0.491940 0.000000
0.491045 0.497164 0.000000
0.497015 0.502388 0.000000
0.502985 0.507612 0.000000
0.508955 0.512836 0.000000
0.514925 0.518060 0.000000
0.520896 0.523284 0.000000
0.526866 0.528507 0.000000
0.532836 0.533731 0.000000
0.538806 0.538955 0.000000
0.544776 0.544179 0.000000
0.550746 0.549403 0.000000
0.556716 0.554627 0.000000
0.562687 0.559851 0.000000
0.568657 0.565075 0.000000
0.574627 0.570299 0.000000
0.580597 0.575522 0.000000
0.586567 0.580746 0.000000
0.592537 0.585970 0.000000
0.598507 0.591194 0.000000
0.604478 0.596418 0.000000
0.610448 0.601642 0.000000
0.616418 0.606866 0.000000
0.622388 0.612090 0.000000
0.628358 0.617313 0.000000
0.634328 0.622537 0.000000
0.640299 0.627761 0.000000
0.646269 0.632985 0.000000
0.652239 0.638209 0.000000
0.658209 0.643433 0.000000
0.664179 0.648657 0.000000
0.670149 0.653881 0.000000
0.676119 0.659104 0.000000
0.682090 0.664328 0.000000
0.688060 0.669552 0.000000
0.694030 0.674776 0.000000
0.516135 0.080917 0.000000
0.549338 0.042552 0.000000
0.567302 0.088709 0.000000
0.555658 0.563778 0.000000
0.559301 0.571359 0.000000
0.552318 0.570919 0.000000
0.603235 0.047100 0.000000
0.446553 0.448087 0.000000
0.438652 0.443189 0.000000
0.445116 0.440368 0.000000
0.437254 0.190586 0.000000
0.465954 0.201747 0.000000
0.439184 0.213838 0.000000
0.453137 0.228102 0.000000
0.522423 0.410182 0.000000
0.522098 0.390982 0.000000
0.537289 0.398500 0.000000
0.453388 0.527105 0.000000
0.462022 0.524948 0.000000
0.461218 0.533993 0.000000
0.324300 0.374550 0.000000
0.319287 0.386214 0.000000
0.314834 0.375138 0.000000
0.668809 0.628853 0.000000
0.677366 0.632907 0.000000
0.668274 0.639611 0.000000
0.469934 0.529282 0.000000
0.439703 0.436699 0.000000
0.446608 0.432083 0.000000
0.542854 0.633425 0.000000
0.535117 0.647070 0.000000
0.524302 0.633157 0.000000
0.519372 0.648877 0.000000
0.586338 0.611293 0.000000
0.591638 0.624149 0.000000
0.575478 0.621479 0.000000
0.437962 0.035513 0.000000
0.421505 0.085456 0.000000
0.394924 0.044162 0.000000
0.445207 0.955749 0.000000
0.429168 0.919510 0.000000
0.464409 0.914226 0.000000
0.317150 0.400904 0.000000
0.328626 0.395860 0.000000
0.439616 0.884412 0.000000
0.330406 0.381773 0.000000
0.676842 0.602700 0.000000
0.674982 0.614185 0.000000
0.665930 0.611798 0.000000
0.414707 0.535036 0.000000
0.420123 0.526072 0.000000
0.425338 0.533771 0.000000
0.398407 0.375558 0.000000
0.393804 0.363255 0.000000
0.407284 0.365452 0.000000
0.407758 0.523337 0.000000
0.899969 0.377867 0.000000
0.945915 0.378245 0.000000
0.914158 0.409130 0.000000
0.358219 0.436142 0.000000
0.361390 0.425428 0.000000
0.369309 0.432300 0.000000
0.465999 0.075074 0.000000
0.269944 0.367761 0.000000
0.266521 0.352125 0.000000
0.283474 0.357667 0.000000
0.385889 0.083020 0.000000
0.359482 0.060981 0.000000
0.279658 0.346766 0.000000
0.363604 0.104040 0.000000
0.511115 0.503731 0.000000
0.503243 0.499914 0.000000
0.509146 0.494910 0.000000
0.513188 0.475753 0.000000
0.504957 0.474656 0.000000
0.511959 0.464784 0.000000
0.311863 0.447505 0.000000
0.293019 0.442078 0.000000
0.305555 0.431691 0.000000
0.499204 0.464990 0.000000
0.293855 0.459576 0.000000
0.396676 0.236328 0.000000
0.371014 0.247362 0.000000
0.373003 0.229199 0.000000
0.384478 0.261522 0.000000
0.555704 0.523331 0.000000
0.551313 0.515879 0.000000
0.562752 0.515269 0.000000
0.554954 0.506854 0.000000
0.804236 0.611103 0.000000
0.819351 0.593503 0.000000
0.832061 0.615776 0.000000
0.509908 0.485173 0.000000
0.129738 0.481190 0.000000
0.110722 0.443736 0.000000
0.154857 0.452634 0.000000
0.089738 0.485299 0.000000
0.396427 0.153886 0.000000
0.393058 0.115469 0.000000
0.420333 0.126587 0.000000
0.442628 0.413512 0.000000
0.434815 0.404283 0.000000
0.446816 0.400259 0.000000
0.499770 0.482873 0.000000
0.353883 0.235057 0.000000
0.351360 0.254011 0.000000
0.332147 0.240870 0.000000
0.112307 0.405527 0.000000
0.140355 0.392788 0.000000
0.142004 0.423465 0.000000
0.334868 0.263052 0.000000
0.551239 0.594093 0.000000
0.560217 0.601969 0.000000
0.546711 0.604614 0.000000
0.398510 0.570197 0.000000
0.387124 0.557316 0.000000
0.399978 0.555748 0.000000
0.705281 0.743146 0.000000
0.722930 0.758853 0.000000
0.697202 0.758074 0.000000
0.380190 0.572638 0.000000
0.278345 0.431947 0.000000
0.292575 0.428097 0.000000
0.470820 0.540616 0.000000
0.478213 0.533042 0.000000
0.480161 0.543190 0.000000
0.415268 0.299334 0.000000
0.412465 0.313515 0.000000
0.400419 0.297680 0.000000
0.396495 0.317117 0.000000
0.718655 0.732879 0.000000
0.709319 0.677587 0.000000
0.715709 0.670111 0.000000
0.719283 0.682820 0.000000
0.212992 0.453899 0.000000
0.184619 0.470046 0.000000
0.186665 0.440862 0.000000
0.452307 0.386568 0.000000
0.460371 0.397715 0.000000
0.478664 0.456068 0.000000
0.476179 0.462123 0.000000
0.471250 0.456445 0.000000
0.464654 0.388544 0.000000
0.483415 0.461045 0.000000
0.357146 0.449596 0.000000
0.344653 0.443966 0.000000
0.554562 0.459423 0.000000
0.543333 0.457517 0.000000
0.553850 0.449505 0.000000
0.543131 0.445036 0.000000
0.347312 0.459318 0.000000
0.781088 0.538918 0.000000
0.810909 0.534152 0.000000
0.799399 0.553968 0.000000
0.402869 0.534333 0.000000
0.408011 0.546121 0.000000
0.703844 0.670118 0.000000
0.552234 0.794299 0.000000
0.528593 0.795589 0.000000
0.539188 0.770312 0.000000
0.596088 0.518714 0.000000
0.593029 0.508081 0.000000
0.604120 0.510731 0.000000
0.384880 0.468703 0.000000
0.382270 0.455963 0.000000
0.394062 0.458803 0.000000
0.374729 0.466839 0.000000
0.340939 0.294790 0.000000
0.324530 0.290188 0.000000
0.338473 0.279923 0.000000
0.465367 0.336545 0.000000
0.477337 0.352846 0.000000
0.459495 0.350024 0.000000
0.584947 0.516440 0.000000
0.326802 0.302636 0.000000
0.945343 0.420397 0.000000
0.779746 0.749037 0.000000
0.771533 0.774140 0.000000
0.758291 0.749848 0.000000
0.743435 0.765852 0.000000
0.751942 0.297541 0.000000
0.784264 0.292048 0.000000
0.772562 0.330207 0.000000
0.812744 0.305799 0.000000
0.655547 0.494535 0.000000
0.649767 0.472522 0.000000
0.671966 0.480244 0.000000
0.612062 0.502007 0.000000
0.616789 0.515227 0.000000
0.403059 0.898561 0.000000
0.391512 0.946883 0.000000
0.625780 0.504699 0.000000
0.635988 0.491275 0.000000
0.596252 0.650380 0.000000
0.583401 0.655132 0.000000
0.583737 0.644777 0.000000
0.713099 0.416502 0.000000
0.708474 0.388943 0.000000
0.733625 0.389568 0.000000
0.684835 0.406222 0.000000
0.656936 0.416423 0.000000
0.633624 0.425116 0.000000
0.634362 0.400237 0.000000
0.646884 0.740682 0.000000
0.654954 0.726002 0.000000
0.663305 0.741855 0.000000
0.732481 0.441235 0.000000
0.751303 0.460839 0.000000
0.721338 0.462235 0.000000
0.759622 0.437863 0.000000
0.462761 0.363156 0.000000
0.373644 0.622389 0.000000
0.346217 0.613642 0.000000
0.370315 0.594521 0.000000
0.351411 0.640635 0.000000
0.695337 0.690220 0.000000
0.705202 0.700133 0.000000
0.692303 0.700990 0.000000
0.521365 0.516400 0.000000
0.522992 0.510597 0.000000
0.527633 0.513574 0.000000
0.291567 0.329512 0.000000
0.294927 0.318154 0.000000
0.365771 0.366553 0.000000
0.366135 0.358691 0.000000
0.374180 0.368122 0.000000
0.408232 0.327056 0.000000
0.423479 0.328280 0.000000
0.411272 0.339740 0.000000
0.664110 0.670607 0.000000
0.667245 0.662649 0.000000
[...]
POINT_DATA 1818
SCALARS UX float 1
LOOKUP_TABLE default
-0.000003
0.000002
-0.013374
-0.750836
-0.194675
-0.118569
0.000000
-0.000000
-0.000000
-0.000000
-0.000000
-0.000000
-0.000000
-0.000000
-0.000000
0.000000
0.000000
0.000000
0.000000
0.000000
0.000000
-0.000000
0.050197
0.077451
0.097787
0.116670
0.133376
0.148536
0.162022
0.172536
0.181203
0.188139
0.193118
0.197796
0.204150
0.186214
0.121091
0.044611
-0.148917
-0.241008
-0.290189
-0.324573
-0.353734
-0.381000
-0.410398
-0.442829
-0.479256
-0.518565
-0.558612
-0.597796
-0.634739
-0.668699
-0.700193
-0.726176
-0.743755
-0.732813
-0.717697
-0.701515
-0.683720
-0.665283
-0.646901
-0.628207
-0.609267
-0.590477
-0.571241
-0.548077
-0.513111
-0.442089
-0.316992
-0.171872
-0.192707
-0.191242
-0.189305
-0.185148
-0.181872
-0.180343
-0.178382
-0.177231
-0.177866
-0.179804
-0.177337
-0.173933
-0.177545
-0.179473
-0.181580
-0.184130
-0.185511
-0.187470
-0.190128
-0.188815
-0.193033
-0.191453
-0.193076
-0.196707
-0.192958
-0.194047
-0.190240
-0.191041
-0.188431
-0.189630
-0.185185
-0.187704
-0.184614
-0.179405
-0.179689
-0.178807
-0.176164
-0.173209
-0.171055
-0.166203
-0.163493
-0.160957
-0.160051
-0.161394
-0.159231
-0.157126
-0.157180
-0.156738
-0.156507
-0.155575
-0.153813
-0.151773
-0.149482
-0.147014
-0.146349
-0.143890
-0.141190
-0.145170
-0.137877
-0.137880
-0.136031
-0.132902
-0.132195
-0.129656
-0.125972
-0.122377
-0.003254
-0.001132
-0.001004
-0.278846
-0.275901
-0.295828
0.000203
-0.104632
-0.111762
-0.088994
-0.016430
-0.013066
-0.018505
-0.017127
-0.017731
-0.015586
-0.011193
-0.385744
-0.376203
-0.382568
-0.381302
-0.392377
-0.381262
-0.013137
-0.000961
-0.044829
-0.371704
-0.092571
-0.070998
-0.362238
-0.376787
-0.379362
-0.391998
-0.294193
-0.299205
-0.320529
-0.002622
-0.006966
-0.003910
-0.490380
-0.497470
-0.474179
-0.403956
-0.390288
-0.488315
-0.379269
0.034940
0.027393
0.020400
-0.424109
-0.414317
-0.414133
-0.070273
-0.067013
-0.058308
-0.423111
0.120162
0.136598
0.131976
-0.401970
-0.390192
-0.388596
-0.004800
-0.404828
-0.395346
-0.385416
-0.007802
-0.006078
-0.345725
-0.011053
-0.103954
-0.124515
-0.078749
-0.036914
-0.044290
-0.032369
-0.446518
-0.457610
-0.438143
-0.042687
-0.470414
-0.030878
-0.040914
-0.034894
-0.039743
-0.028054
-0.025761
-0.012765
-0.015920
0.112301
0.120542
0.126249
-0.050822
-0.565353
-0.559979
-0.545784
-0.581778
-0.016067
-0.011216
-0.011034
-0.057210
-0.058607
-0.048511
-0.067730
-0.040990
-0.049253
-0.049468
-0.545378
-0.528267
-0.540207
-0.060288
-0.328156
-0.324353
-0.341310
-0.456621
-0.459422
-0.448181
-0.235601
-0.222258
-0.261363
-0.471856
-0.462405
-0.447814
-0.378816
-0.366975
-0.372178
-0.035725
-0.039853
-0.040567
-0.047676
-0.196546
-0.056548
-0.011767
-0.051420
-0.517644
-0.537929
-0.526691
-0.041597
-0.040678
-0.057521
-0.069738
-0.068393
-0.036652
-0.056678
-0.412129
-0.418216
-0.009315
-0.014358
-0.009069
-0.013529
-0.427462
0.099669
0.113286
0.109663
-0.433734
-0.436126
-0.044836
-0.408295
-0.425038
-0.413901
0.006076
0.005551
0.011012
-0.406616
-0.398872
-0.392585
-0.412442
-0.075332
-0.085402
-0.068739
-0.026316
-0.025119
-0.030676
-0.000024
-0.092530
0.145245
-0.084658
-0.155967
-0.136866
-0.195991
0.047010
0.056312
0.061367
0.070090
0.036092
0.032963
0.043266
0.015422
0.017431
-0.512797
-0.525245
0.022149
0.027016
-0.313363
-0.330836
-0.324411
0.055411
0.049506
0.059105
0.042941
0.033022
0.024257
0.023298
-0.307670
-0.289107
-0.290727
0.066819
0.077522
0.064372
0.077690
-0.032062
-0.493185
-0.507217
-0.486903
-0.510819
-0.167207
-0.163506
-0.198154
-0.123349
-0.091041
-0.084082
-0.192307
-0.174243
-0.105935
-0.090593
-0.091237
-0.045446
-0.039064
-0.047564
-0.215240
-0.184416
-0.183658
-0.424008
-0.445741
-0.441766
-0.460968
-0.211822
-0.235192
-0.255186
-0.113660
-0.001009
0.004041
0.001094
-0.124661
-0.132593
-0.107363
-0.097426
-0.120530
-0.123950
-0.384742
-0.402412
-0.393954
-0.112985
-0.140271
-0.135218
-0.033824
-0.250585
-0.228944
-0.277423
-0.261781
-0.038061
-0.077321
-0.342943
-0.320146
-0.317336
-0.339677
-0.452073
-0.428024
-0.445763
-0.385328
-0.397724
-0.384179
-0.118585
-0.121871
-0.396605
0.000641
0.003979
-0.491865
-0.474934
-0.478602
-0.164848
-0.639780
-0.614120
-0.622150
-0.601100
-0.359638
-0.358547
-0.369477
-0.362456
-0.361809
-0.293952
-0.282316
0.027104
0.016840
0.003480
0.039662
-0.464898
-0.449801
-0.430260
-0.177407
-0.230483
-0.165731
-0.128791
-0.105606
-0.069405
-0.034260
-0.161039
-0.225788
-0.276534
0.018100
-0.026218
-0.261745
-0.358416
-0.354913
-0.234659
-0.275658
-0.270437
-0.359401
-0.296957
-0.290267
-0.406186
-0.383205
-0.398081
-0.298817
-0.329979
-0.048154
-0.045557
-0.085346
-0.076255
-0.068641
-0.088173
0.006307
0.000939
-0.000854
-0.644547
-0.628521
-0.618685
-0.637235
-0.628950
-0.646849
-0.618183
-0.223230
-0.255055
-0.235782
-0.243251
-0.335334
-0.348714
-0.334197
-0.347879
-0.323066
-0.333476
-0.320141
-0.384750
-0.391340
-0.376565
-0.387265
-0.388728
-0.395952
-0.396226
-0.388691
-0.093010
-0.114743
-0.114358
0.005864
0.000705
0.004539
0.000483
0.092807
0.078534
0.085091
0.103727
0.105744
-0.285150
-0.296759
-0.335677
-0.041733
-0.038512
-0.087890
-0.371913
-0.365491
-0.381169
-0.268101
-0.232851
-0.348354
-0.242846
-0.267524
-0.290769
-0.033772
-0.033826
-0.039602
-0.011812
-0.006299
-0.008275
-0.059975
-0.057103
-0.299474
-0.001541
-0.603594
-0.592306
-0.611324
-0.590664
-0.597927
-0.003935
-0.003167
-0.019890
-0.017412
-0.023899
-0.012920
-0.004313
-0.576711
-0.378237
-0.362312
-0.382802
-0.357711
-0.394947
-0.420395
-0.387636
-0.043692
-0.024595
-0.003099
-0.048711
-0.007233
-0.201697
-0.015675
-0.011151
-0.265171
-0.242655
-0.263375
-0.412097
-0.396055
-0.402344
-0.331210
-0.345356
-0.628178
0.003095
0.006450
0.000830
-0.051544
-0.043936
-0.445388
-0.427515
-0.428649
-0.038000
0.005854
-0.476645
-0.491653
-0.482963
-0.372700
-0.352028
-0.356824
-0.102909
-0.053973
-0.088593
-0.060098
-0.117427
-0.068675
-0.069790
-0.322904
-0.272731
-0.296477
-0.067879
-0.057201
-0.512679
-0.501042
-0.509203
-0.052468
-0.004966
-0.008397
-0.008392
-0.523033
-0.535988
-0.523348
-0.154486
-0.194304
-0.126486
-0.065758
-0.077415
-0.091129
-0.641889
-0.603322
-0.030139
-0.412331
-0.447627
-0.047695
-0.006375
-0.000829
-0.617972
-0.004263
-0.018669
-0.369968
-0.375066
0.071689
0.081578
0.077175
-0.377507
-0.024527
-0.027544
0.040670
-0.395785
-0.388714
-0.395404
-0.229680
-0.223932
-0.079134
-0.394941
-0.046484
-0.045519
-0.386521
-0.357787
-0.358034
-0.340007
-0.376806
0.117118
0.102429
0.105513
-0.052373
-0.083870
-0.095432
-0.478351
-0.462173
-0.458756
-0.049227
-0.039276
-0.074591
-0.126210
-0.088608
-0.072370
-0.003039
-0.408980
-0.401478
-0.138050
-0.133396
-0.334109
0.023270
0.063360
0.015348
0.156069
0.071406
0.009315
0.012878
0.013833
-0.396008
-0.086790
-0.043329
-0.036618
-0.040366
-0.260751
-0.314080
-0.338875
-0.323127
-0.041672
-0.298802
-0.210660
-0.442651
-0.457489
-0.438011
-0.399862
-0.394235
-0.405611
-0.343461
0.046510
0.036642
0.059316
-0.398347
-0.011909
0.122581
0.029882
0.024212
-0.090448
-0.046548
-0.095484
-0.036159
-0.070166
-0.031811
-0.088738
-0.319895
-0.224355
-0.345027
-0.357056
-0.572500
-0.582223
-0.026926
-0.021672
-0.134581
-0.164261
-0.033013
-0.309697
-0.603957
-0.327398
-0.553988
-0.561725
-0.545882
-0.321923
0.066106
0.056926
0.054127
0.047839
-0.032624
-0.032492
-0.357729
-0.337014
-0.342013
0.051030
0.049164
0.044743
0.040930
0.086113
0.090233
-0.580673
-0.572976
0.113106
-0.699767
-0.669918
-0.699569
0.070062
0.062660
0.046454
-0.431227
-0.438160
-0.414528
0.078483
0.120090
0.066865
0.043044
0.056866
0.032383
-0.453991
-0.002831
-0.009054
-0.007854
0.068110
0.083604
0.084797
-0.643608
-0.670691
-0.668257
0.105006
-0.307185
-0.289514
-0.336895
-0.354731
-0.354743
-0.456420
0.010044
0.006561
0.018944
0.170107
0.164322
0.182102
0.149739
0.143352
0.177934
0.181267
-0.389272
-0.394953
-0.542052
-0.515333
-0.512900
-0.411498
0.010001
-0.027987
-0.531876
-0.529622
-0.548843
-0.490479
-0.477874
-0.569088
0.007370
-0.022286
-0.565758
-0.013163
-0.533020
-0.512690
-0.518165
0.159485
0.171700
-0.347255
-0.341156
-0.318571
-0.223944
-0.258834
-0.174911
-0.293161
-0.328435
-0.252979
-0.057370
-0.055707
-0.276338
-0.368532
-0.382881
-0.292041
-0.501643
-0.514326
-0.500811
-0.597762
-0.583981
-0.010483
-0.016691
-0.008055
-0.016268
-0.017348
-0.301384
-0.285567
-0.305953
-0.563162
-0.004613
-0.007198
-0.263750
-0.289677
-0.282163
0.170778
0.154344
-0.516124
0.092200
0.082410
0.083710
0.092497
-0.565717
-0.552532
-0.547977
0.105151
-0.005939
0.143712
-0.263978
-0.005609
-0.020916
-0.023817
-0.282952
0.001816
-0.008942
-0.360252
-0.339785
-0.350523
-0.013223
-0.071878
-0.063352
-0.496052
-0.501838
-0.335216
-0.306705
0.029965
0.037835
0.027626
0.043500
-0.418417
-0.425134
-0.528878
-0.451926
-0.007239
-0.017609
0.008143
0.005030
0.003071
-0.009269
-0.031520
-0.585855
-0.577538
-0.597948
-0.568932
-0.392291
-0.560467
-0.571628
-0.579290
-0.553846
-0.543791
-0.372222
-0.357500
-0.508416
-0.494675
-0.354724
-0.075696
-0.056430
-0.393999
-0.372017
-0.636127
-0.653432
-0.608253
-0.029085
-0.031081
-0.024412
-0.403334
-0.416129
-0.048382
-0.050480
-0.528390
-0.530439
-0.515096
-0.464749
-0.447176
-0.453163
-0.158836
-0.192222
-0.562228
-0.023487
0.005479
0.001621
-0.472371
-0.526469
-0.527625
-0.539290
-0.479718
-0.529915
0.047502
0.036701
-0.538532
-0.550200
-0.553026
-0.565084
0.000835
-0.003997
-0.432520
0.098532
-0.118912
-0.093524
-0.001506
-0.005109
-0.009105
-0.283854
-0.011440
-0.513599
-0.440402
-0.447565
-0.454962
-0.469026
-0.517166
-0.531253
-0.527792
-0.037408
-0.045739
-0.545723
-0.075147
0.038281
0.032835
-0.605723
-0.582910
-0.599702
-0.372628
-0.394308
-0.376178
-0.436106
0.141859
0.153659
0.138990
0.128957
0.126989
-0.479198
-0.472313
-0.525511
-0.519751
-0.539625
-0.301814
-0.034691
-0.114084
0.069182
-0.564564
-0.581267
-0.569747
-0.569939
-0.550178
-0.443284
-0.505586
-0.554416
-0.016954
-0.022593
-0.012606
-0.356703
-0.338862
-0.374984
0.057074
0.063549
0.069090
-0.241250
0.121563
0.113329
-0.522569
-0.360826
-0.115315
-0.675091
-0.696076
-0.433127
-0.452944
0.017905
0.012791
0.012457
-0.073709
-0.063345
0.023997
-0.055331
0.027388
-0.451338
-0.485656
0.047850
0.065468
0.035421
0.010118
-0.065716
0.095415
0.062890
0.126422
0.033410
-0.310943
-0.305906
-0.292806
-0.286643
-0.004831
-0.398219
-0.415125
-0.012624
-0.617159
-0.583330
-0.592465
-0.383313
-0.365491
-0.006477
-0.001091
-0.396860
-0.408598
-0.393870
-0.032750
-0.033607
-0.027958
-0.429077
-0.410671
-0.421267
-0.494324
0.074822
0.084013
0.086892
-0.432338
-0.460223
-0.472809
-0.019572
-0.022581
-0.027466
-0.481868
-0.476369
-0.031843
-0.468373
-0.400201
-0.512182
-0.509565
0.137074
-0.039581
0.074144
0.061759
-0.431656
-0.435982
-0.312980
-0.334905
-0.016000
-0.589704
-0.307887
-0.436409
-0.487373
-0.461980
-0.414106
-0.425290
-0.422459
0.044908
0.038060
0.038278
0.058954
0.013229
0.017209
0.011909
0.019227
-0.412954
-0.426190
-0.414854
-0.426425
-0.264882
-0.155718
-0.163644
-0.191638
0.128803
0.043283
-0.027384
-0.008359
-0.205695
-0.376764
-0.439022
-0.433054
-0.418046
-0.495213
-0.134073
-0.041119
-0.101145
-0.362825
-0.114210
-0.013517
-0.012495
-0.008387
-0.033343
-0.025908
-0.029744
0.023201
0.014358
0.009630
0.007798
-0.232017
0.018705
-0.041019
-0.029978
0.115721
-0.516657
-0.534150
-0.513662
-0.536310
-0.555365
0.102886
0.061263
0.071205
0.045357
0.035889
0.024909
-0.481917
-0.055153
0.001602
0.005219
0.003584
-0.034215
-0.026860
-0.031411
0.146614
0.159688
0.089142
-0.502071
-0.485652
-0.325916
-0.318516
0.018592
0.081229
0.068069
0.070680
-0.407067
-0.405178
-0.124225
-0.139459
-0.270168
-0.470670
-0.455251
-0.285827
-0.487875
0.012804
0.010422
0.005159
-0.269826
-0.247244
0.030120
0.012284
-0.501400
-0.499326
-0.486398
-0.482278
-0.503711
-0.517035
0.012717
0.006587
-0.509826
0.014219
0.012906
0.017930
0.126956
0.126775
0.003143
-0.291376
-0.303435
-0.322632
-0.326410
-0.443946
-0.072623
-0.091883
-0.103248
-0.447718
-0.436978
0.073793
0.024380
0.018084
0.016311
-0.162844
-0.298428
-0.364780
-0.382520
-0.027933
-0.029667
-0.066347
-0.370810
-0.380811
-0.366999
-0.368277
-0.049139
-0.035276
-0.032984
-0.288989
-0.058279
-0.048881
-0.032950
-0.351158
-0.262244
-0.022462
0.077988
0.089650
0.087591
0.035342
0.076850
0.107912
-0.398214
-0.416530
-0.435437
-0.454891
-0.439371
-0.445423
-0.463862
-0.340012
0.006794
-0.002430
-0.277375
-0.366929
-0.365510
0.044495
0.041187
0.033195
0.013120
0.004261
-0.283685
-0.323989
-0.184838
0.008343
-0.434957
0.054024
0.055205
0.027749
0.014880
-0.419673
-0.507784
-0.411082
0.052240
0.046081
0.017342
0.009448
0.015277
0.020528
0.052067
0.154063
-0.190414
-0.024730
-0.077186
-0.058303
-0.032105
-0.309714
-0.310935
0.134554
-0.008873
-0.302070
-0.008772
0.029496
-0.372959
-0.396094
-0.416487
-0.422831
-0.407354
-0.495516
0.007155
-0.001176
-0.121846
-0.149174
-0.142193
-0.487464
-0.351895
-0.553019
0.019060
0.022523
0.010436
0.025526
0.033143
-0.410642
-0.046766
-0.322474
-0.212355
-0.383520
-0.408492
-0.296925
-0.259998
-0.263816
-0.280741
-0.085250
-0.361013
-0.504186
-0.098496
-0.221585
-0.245384
-0.307776
-0.360722
-0.262906
-0.015013
-0.020671
-0.016881
-0.291190
-0.259704
-0.057809
-0.017933
-0.479732
-0.496555
-0.475820
-0.049775
-0.316355
0.042445
0.031677
-0.016949
-0.300591
-0.311885
-0.322488
-0.423213
-0.431025
-0.098810
-0.225921
0.119685
0.129479
-0.076589
-0.100583
-0.089796
-0.096881
-0.107753
-0.041794
-0.083328
-0.078861
0.101102
-0.243675
-0.373901
-0.374950
0.021297
-0.061645
-0.047893
0.133499
-0.039416
-0.090446
-0.134858
-0.545679
-0.553365
-0.268249
-0.276298
-0.373100
-0.386237
-0.374884
0.138249
-0.383342
-0.284014
-0.332715
0.056133
-0.294989
-0.120425
-0.106782
-0.349609
-0.075029
-0.086767
-0.062987
-0.300970
-0.327020
-0.019539
-0.011965
0.002593
0.002199
-0.004501
-0.099485
-0.614897
-0.269565
-0.306430
-0.261221
-0.120395
-0.387721
-0.387353
-0.018084
-0.013094
-0.241477
-0.098816
-0.082895
-0.094309
-0.051617
-0.076481
-0.065697
-0.069551
-0.058632
-0.337739
-0.354045
-0.328177
0.010162
0.001120
0.017623
-0.340636
-0.350430
-0.065001
-0.376433
-0.376720
-0.001662
0.001169
0.031383
-0.004770
-0.359471
-0.406066
-0.395514
-0.449801
-0.051269
-0.324689
-0.059887
-0.066054
-0.496637
-0.498303
-0.014953
-0.135932
-0.087088
-0.363069
-0.029036
-0.002088
-0.027278
-0.460266
-0.469958
0.002795
-0.375239
-0.390533
-0.464538
-0.474724
-0.399949
-0.356137
-0.297991
-0.279617
-0.023539
-0.014080
-0.007688
-0.461964
-0.467673
-0.080038
-0.077201
-0.451245
-0.462156
-0.467751
-0.347811
-0.350147
-0.323910
-0.448608
0.025488
0.020284
-0.023740
-0.399157
-0.407601
-0.388188
-0.375112
-0.371665
-0.082995
-0.078440
-0.039550
-0.086688
-0.477418
-0.478978
-0.389669
-0.245780
-0.217530
-0.019110
-0.055088
-0.403081
0.003991
0.004008
-0.267909
-0.301804
-0.067733
-0.074553
-0.338572
-0.320641
-0.073250
-0.027509
-0.032580
-0.013774
-0.370230
-0.020199
-0.113549
0.089898
0.088633
-0.418838
-0.409060
-0.272880
-0.282893
-0.289549
-0.307320
-0.066964
0.022774
-0.020952
-0.308811
-0.017455
-0.403306
0.057715
0.040319
0.042558
-0.401791
0.022654
0.027210
-0.072967
-0.014903
-0.021912
-0.227249
0.030372
-0.651353
-0.629575
-0.648399
-0.433607
0.094206
0.016448
0.021472
0.011465
-0.001711
-0.538633
0.105720
-0.423458
-0.389536
-0.375184
-0.019923
-0.012760
-0.017998
-0.004759
-0.019767
-0.340321
-0.349141
-0.697122
0.000036
-0.107247
-0.040853
-0.720491
-0.725225
-0.338126
0.010479
0.037646
0.014481
-0.170980
-0.048873
-0.117348
-0.178138
-0.370039
-0.122632
-0.379127
-0.135481
-0.020283
-0.008536
-0.031291
-0.023400
0.078486
-0.030821
-0.385918
-0.432737
-0.443545
0.122962
0.107228
-0.000122
0.006497
-0.452321
-0.459738
-0.469628
-0.051779
-0.046825
-0.043981
-0.036530
-0.349883
-0.022982
0.052848
0.031777
-0.331028
-0.462802
-0.561685
-0.111231
-0.031427
0.082335
0.064999
-0.535727
-0.553538
-0.529435
0.066196
0.061895
-0.473493
-0.280287
-0.008100
-0.012097
-0.387492
-0.012042
-0.343855
-0.324848
0.068976
0.098828
-0.161585
-0.224398
-0.242010
-0.466486
-0.068212
-0.015878
-0.014540
-0.397085
0.154279
-0.639798
-0.038227
-0.045915
-0.504435
0.063443
0.010915
-0.007875
-0.412329
-0.001383
-0.098965
-0.440171
0.055588
-0.427410
-0.073359
-0.088496
0.004475
-0.245599
0.017928
-0.409934
-0.290337
-0.024754
-0.023350
-0.409679
0.112277
0.049802
-0.346857
-0.349344
-0.052781
-0.133579
-0.656470
-0.680557
-0.662056
-0.347181
-0.400114
-0.053200
-0.521537
-0.075992
0.048443
0.045142
-0.247994
-0.537121
-0.553566
-0.309843
0.089944
0.081880
-0.045638
-0.054138
-0.260149
-0.306184
-0.487405
-0.501800
-0.031847
-0.368458
-0.150774
-0.155806
-0.439320
-0.579380
0.029385
0.023369
0.017540
0.037521
-0.150162
0.079613
0.058282
-0.084320
-0.345842
-0.364351
0.038537
0.025678
-0.364951
-0.018774
-0.160668
-0.400309
0.021531
-0.272605
-0.415448
0.011432
0.040526
-0.314236
-0.321812
-0.416198
-0.384866
0.003737
0.009988
0.012955
-0.077592
-0.009054
-0.313232
-0.310682
-0.422507
-0.118614
-0.022506
-0.315564
-0.369232
-0.059396
0.003334
-0.093541
-0.066680
-0.062297
0.077617
0.120871
-0.230152
-0.226402
-0.281448
-0.510839
0.045165
-0.385492
-0.093060
-0.084451
-0.187947
-0.094002
-0.436017
-0.014033
-0.355027
-0.163222
0.005630
-0.334429
-0.283380
-0.290869
-0.424006
-0.249674
-0.223639
-0.419256
-0.002728
-0.327259
-0.220533
-0.097519
-0.137938
-0.135261
-0.243944
-0.238989
-0.017055
-0.350102
-0.357746
-0.112655
-0.197186
-0.094851
-0.269514
-0.316744
-0.264902
-0.312076
-0.244716
-0.115105
-0.315097
-0.254555
-0.140423
-0.180277
-0.354534
0.010891
-0.033577
-0.225452
-0.325206
-0.301683
-0.128661
-0.055960
-0.028070
-0.256979
-0.096889
-0.317888
-0.353047
-0.103191
-0.032098
-0.007938
-0.014872
0.024399
-0.410856
-0.079854
-0.376035
-0.220293
-0.385352
0.025096
-0.148522
-0.035234
-0.422305
-0.058994
-0.051791
-0.057418
-0.391502
-0.117984
-0.280940
-0.312249
-0.196509
-0.152816
-0.406851
-0.068721
-0.002354
-0.282494
-0.332277
-0.083021
SCALARS UY float 1
LOOKUP_TABLE default
-0.000003
-0.000003
-0.869999
-0.869999
-0.190761
-0.486373
-0.000001
-0.000001
-0.000001
-0.000001
-0.000001
-0.000001
-0.000001
-0.000001
-0.000001
-0.000001
-0.000001
-0.000001
-0.000001
-0.000001
-0.000001
-0.000001
-0.049957
-0.086932
-0.115456
-0.142983
-0.169294
-0.195820
-0.222327
-0.248059
-0.273662
-0.298540
-0.322044
-0.344803
-0.372545
-0.437613
-0.553323
-0.711302
-0.869999
-0.869999
-0.869999
-0.869999
-0.869999
-0.869999
-0.869999
-0.869999
-0.869999
-0.869999
-0.869999
-0.869999
-0.869999
-0.869999
-0.869999
-0.869999
-0.839626
-0.808631
-0.777423
-0.746702
-0.715404
-0.684580
-0.654635
-0.625530
-0.596479
-0.567169
-0.538285
-0.510194
-0.474856
-0.412511
-0.303997
-0.179951
-0.193070
-0.195153
-0.200254
-0.206260
-0.212055
-0.214221
-0.216563
-0.220869
-0.220165
-0.219233
-0.223908
-0.230788
-0.235228
-0.237551
-0.241504
-0.243290
-0.252257
-0.253940
-0.260741
-0.265159
-0.268701
-0.274069
-0.279238
-0.277767
-0.286412
-0.284986
-0.291528
-0.290662
-0.295194
-0.293396
-0.301268
-0.300942
-0.305481
-0.311384
-0.312519
-0.315561
-0.320019
-0.325424
-0.326985
-0.332210
-0.335025
-0.338161
-0.340337
-0.348252
-0.355430
-0.362417
-0.367898
-0.372170
-0.376903
-0.382519
-0.389623
-0.395976
-0.400073
-0.407186
-0.412249
-0.418346
-0.428358
-0.426977
-0.440048
-0.444453
-0.452509
-0.458493
-0.462663
-0.468564
-0.473937
-0.482033
-0.014041
-0.007255
-0.016529
-0.446556
-0.454800
-0.479691
-0.008530
-0.198513
-0.200625
-0.182002
-0.036804
-0.041190
-0.044025
-0.049307
-0.126748
-0.116941
-0.120501
-0.490234
-0.485160
-0.494552
-0.396238
-0.417393
-0.401109
-0.332862
-0.334671
-0.367188
-0.485704
-0.182213
-0.163170
-0.566891
-0.584273
-0.573521
-0.591279
-0.515002
-0.533221
-0.539148
-0.005401
-0.013631
-0.006678
-0.837168
-0.809720
-0.807963
-0.434277
-0.425092
-0.784472
-0.400217
-0.274245
-0.287951
-0.289086
-0.511710
-0.500715
-0.506387
-0.134726
-0.125768
-0.121515
-0.503194
-0.178758
-0.191731
-0.198147
-0.446345
-0.433460
-0.436411
-0.012259
-0.430038
-0.414730
-0.417075
-0.013192
-0.009431
-0.373379
-0.017011
-0.245055
-0.257293
-0.216357