# vtk DataFile Version 2.0
Test
ASCII
DATASET POLYDATA
POINTS 1818 float
0.000000 0.000000 0.000000
1.000000 0.000000 0.000000
1.000000 1.000000 0.000000
0.000000 1.000000 0.000000
0.300000 0.330000 0.000000
0.700000 0.680000 0.000000
0.058824 0.000000 0.000000
0.117647 0.000000 0.000000
0.176471 0.000000 0.000000
0.235294 0.000000 0.000000
0.294118 0.000000 0.000000
0.352941 0.000000 0.000000
0.411765 0.000000 0.000000
0.470588 0.000000 0.000000
0.529412 0.000000 0.000000
0.588235 0.000000 0.000000
0.647059 0.000000 0.000000
0.705882 0.000000 0.000000
0.764706 0.000000 0.000000
0.823529 0.000000 0.000000
0.882353 0.000000 0.000000
0.941176 0.000000 0.000000
1.000000 0.058824 0.000000
1.000000 0.117647 0.000000
1.000000 0.176471 0.000000
1.000000 0.235294 0.000000
1.000000 0.294118 0.000000
1.000000 0.352941 0.000000
1.000000 0.411765 0.000000
1.000000 0.470588 0.000000
1.000000 0.529412 0.000000
1.000000 0.588235 0.000000
1.000000 0.647059 0.000000
1.000000 0.705882 0.000000
1.000000 0.764706 0.000000
1.000000 0.823529 0.000000
1.000000 0.882353 0.000000
1.000000 0.941176 0.000000
0.941176 1.000000 0.000000
0.882353 1.000000 0.000000
0.823529 1.000000 0.000000
0.764706 1.000000 0.000000
0.705882 1.000000 0.000000
0.647059 1.000000 0.000000
0.588235 1.000000 0.000000
0.529412 1.000000 0.000000
0.470588 1.000000 0.000000
0.411765 1.000000 0.000000
0.352941 1.000000 0.000000
0.294118 1.000000 0.000000
0.235294 1.000000 0.000000
0.176471 1.000000 0.000000
0.117647 1.000000 0.000000
0.058824 1.000000 0.000000
0.000000 0.941176 0.000000
0.000000 0.882353 0.000000
0.000000 0.823529 0.000000
0.000000 0.764706 0.000000
0.000000 0.705882 0.000000
0.000000 0.647059 0.000000
0.000000 0.588235 0.000000
0.000000 0.529412 0.000000
0.000000 0.470588 0.000000
0.000000 0.411765 0.000000
0.000000 0.352941 0.000000
0.000000 0.294118 0.000000
0.000000 0.235294 0.000000
0.000000 0.176471 0.000000
0.000000 0.117647 0.000000
0.000000 0.058824 0.000000
0.305970 0.335224 0.000000
0.311940 0.340448 0.000000
0.317910 0.345672 0.000000
0.323881 0.350896 0.000000
0.329851 0.356119 0.000000
0.335821 0.361343 0.000000
0.341791 0.366567 0.000000
0.347761 0.371791 0.000000
0.353731 0.377015 0.000000
0.359701 0.382239 0.000000
0.365672 0.387463 0.000000
0.371642 0.392687 0.000000
0.377612 0.397910 0.000000
0.383582 0.403134 0.000000
0.389552 0.408358 0.000000
0.395522 0.413582 0.000000
0.401493 0.418806 0.000000
0.407463 0.424030 0.000000
0.413433 0.429254 0.000000
0.419403 0.434478 0.000000
0.425373 0.439701 0.000000
0.431343 0.444925 0.000000
0.437313 0.450149 0.000000
0.443284 0.455373 0.000000
0.449254 0.460597 0.000000
0.455224 0.465821 0.000000
0.461194 0.471045 0.000000
0.467164 0.476269 0.000000
0.473134 0.481493 0.000000
0.479104 0.486716 0.000000
0.485075 0.491940 0.000000
0.491045 0.497164 0.000000
0.497015 0.502388 0.000000
0.502985 0.507612 0.000000
0.508955 0.512836 0.000000
0.514925 0.518060 0.000000
0.520896 0.523284 0.000000
0.526866 0.528507 0.000000
0.532836 0.533731 0.000000
0.538806 0.538955 0.000000
0.544776 0.544179 0.000000
0.550746 0.549403 0.000000
0.556716 0.554627 0.000000
0.562687 0.559851 0.000000
0.568657 0.565075 0.000000
0.574627 0.570299 0.000000
0.580597 0.575522 0.000000
0.586567 0.580746 0.000000
0.592537 0.585970 0.000000
0.598507 0.591194 0.000000
0.604478 0.596418 0.000000
0.610448 0.601642 0.000000
0.616418 0.606866 0.000000
0.622388 0.612090 0.000000
0.628358 0.617313 0.000000
0.634328 0.622537 0.000000
0.640299 0.627761 0.000000
0.646269 0.632985 0.000000
0.652239 0.638209 0.000000
0.658209 0.643433 0.000000
0.664179 0.648657 0.000000
0.670149 0.653881 0.000000
0.676119 0.659104 0.000000
0.682090 0.664328 0.000000
0.688060 0.669552 0.000000
0.694030 0.674776 0.000000
0.516135 0.080917 0.000000
0.549338 0.042552 0.000000
0.567302 0.088709 0.000000
0.555658 0.563778 0.000000
0.559301 0.571359 0.000000
0.552318 0.570919 0.000000
0.603235 0.047100 0.000000
0.446553 0.448087 0.000000
0.438652 0.443189 0.000000
0.445116 0.440368 0.000000
0.437254 0.190586 0.000000
0.465954 0.201747 0.000000
0.439184 0.213838 0.000000
0.453137 0.228102 0.000000
0.522423 0.410182 0.000000
0.522098 0.390982 0.000000
0.537289 0.398500 0.000000
0.453388 0.527105 0.000000
0.462022 0.524948 0.000000
0.461218 0.533993 0.000000
0.324300 0.374550 0.000000
0.319287 0.386214 0.000000
0.314834 0.375138 0.000000
0.668809 0.628853 0.000000
0.677366 0.632907 0.000000
0.668274 0.639611 0.000000
0.469934 0.529282 0.000000
0.439703 0.436699 0.000000
0.446608 0.432083 0.000000
0.542854 0.633425 0.000000
0.535117 0.647070 0.000000
0.524302 0.633157 0.000000
0.519372 0.648877 0.000000
0.586338 0.611293 0.000000
0.591638 0.624149 0.000000
0.575478 0.621479 0.000000
0.437962 0.035513 0.000000
0.421505 0.085456 0.000000
0.394924 0.044162 0.000000
0.445207 0.955749 0.000000
0.429168 0.919510 0.000000
0.464409 0.914226 0.000000
0.317150 0.400904 0.000000
0.328626 0.395860 0.000000
0.439616 0.884412 0.000000
0.330406 0.381773 0.000000
0.676842 0.602700 0.000000
0.674982 0.614185 0.000000
0.665930 0.611798 0.000000
0.414707 0.535036 0.000000
0.420123 0.526072 0.000000
0.425338 0.533771 0.000000
0.398407 0.375558 0.000000
0.393804 0.363255 0.000000
0.407284 0.365452 0.000000
0.407758 0.523337 0.000000
0.899969 0.377867 0.000000
0.945915 0.378245 0.000000
0.914158 0.409130 0.000000
0.358219 0.436142 0.000000
0.361390 0.425428 0.000000
0.369309 0.432300 0.000000
0.465999 0.075074 0.000000
0.269944 0.367761 0.000000
0.266521 0.352125 0.000000
0.283474 0.357667 0.000000
0.385889 0.083020 0.000000
0.359482 0.060981 0.000000
0.279658 0.346766 0.000000
0.363604 0.104040 0.000000
0.511115 0.503731 0.000000
0.503243 0.499914 0.000000
0.509146 0.494910 0.000000
0.513188 0.475753 0.000000
0.504957 0.474656 0.000000
0.511959 0.464784 0.000000
0.311863 0.447505 0.000000
0.293019 0.442078 0.000000
0.305555 0.431691 0.000000
0.499204 0.464990 0.000000
0.293855 0.459576 0.000000
0.396676 0.236328 0.000000
0.371014 0.247362 0.000000
0.373003 0.229199 0.000000
0.384478 0.261522 0.000000
0.555704 0.523331 0.000000
0.551313 0.515879 0.000000
0.562752 0.515269 0.000000
0.554954 0.506854 0.000000
0.804236 0.611103 0.000000
0.819351 0.593503 0.000000
0.832061 0.615776 0.000000
0.509908 0.485173 0.000000
0.129738 0.481190 0.000000
0.110722 0.443736 0.000000
0.154857 0.452634 0.000000
0.089738 0.485299 0.000000
0.396427 0.153886 0.000000
0.393058 0.115469 0.000000
0.420333 0.126587 0.000000
0.442628 0.413512 0.000000
0.434815 0.404283 0.000000
0.446816 0.400259 0.000000
0.499770 0.482873 0.000000
0.353883 0.235057 0.000000
0.351360 0.254011 0.000000
0.332147 0.240870 0.000000
0.112307 0.405527 0.000000
0.140355 0.392788 0.000000
0.142004 0.423465 0.000000
0.334868 0.263052 0.000000
0.551239 0.594093 0.000000
0.560217 0.601969 0.000000
0.546711 0.604614 0.000000
0.398510 0.570197 0.000000
0.387124 0.557316 0.000000
0.399978 0.555748 0.000000
0.705281 0.743146 0.000000
0.722930 0.758853 0.000000
0.697202 0.758074 0.000000
0.380190 0.572638 0.000000
0.278345 0.431947 0.000000
0.292575 0.428097 0.000000
0.470820 0.540616 0.000000
0.478213 0.533042 0.000000
0.480161 0.543190 0.000000
0.415268 0.299334 0.000000
0.412465 0.313515 0.000000
0.400419 0.297680 0.000000
0.396495 0.317117 0.000000
0.718655 0.732879 0.000000
0.709319 0.677587 0.000000
0.715709 0.670111 0.000000
0.719283 0.682820 0.000000
0.212992 0.453899 0.000000
0.184619 0.470046 0.000000
0.186665 0.440862 0.000000
0.452307 0.386568 0.000000
0.460371 0.397715 0.000000
0.478664 0.456068 0.000000
0.476179 0.462123 0.000000
0.471250 0.456445 0.000000
0.464654 0.388544 0.000000
0.483415 0.461045 0.000000
0.357146 0.449596 0.000000
0.344653 0.443966 0.000000
0.554562 0.459423 0.000000
0.543333 0.457517 0.000000
0.553850 0.449505 0.000000
0.543131 0.445036 0.000000
0.347312 0.459318 0.000000
0.781088 0.538918 0.000000
0.810909 0.534152 0.000000
0.799399 0.553968 0.000000
0.402869 0.534333 0.000000
0.408011 0.546121 0.000000
0.703844 0.670118 0.000000
0.552234 0.794299 0.000000
0.528593 0.795589 0.000000
0.539188 0.770312 0.000000
0.596088 0.518714 0.000000
0.593029 0.508081 0.000000
0.604120 0.510731 0.000000
0.384880 0.468703 0.000000
0.382270 0.455963 0.000000
0.394062 0.458803 0.000000
0.374729 0.466839 0.000000
0.340939 0.294790 0.000000
0.324530 0.290188 0.000000
0.338473 0.279923 0.000000
0.465367 0.336545 0.000000
0.477337 0.352846 0.000000
0.459495 0.350024 0.000000
0.584947 0.516440 0.000000
0.326802 0.302636 0.000000
0.945343 0.420397 0.000000
0.779746 0.749037 0.000000
0.771533 0.774140 0.000000
0.758291 0.749848 0.000000
0.743435 0.765852 0.000000
0.751942 0.297541 0.000000
0.784264 0.292048 0.000000
0.772562 0.330207 0.000000
0.812744 0.305799 0.000000
0.655547 0.494535 0.000000
0.649767 0.472522 0.000000
0.671966 0.480244 0.000000
0.612062 0.502007 0.000000
0.616789 0.515227 0.000000
0.403059 0.898561 0.000000
0.391512 0.946883 0.000000
0.625780 0.504699 0.000000
0.635988 0.491275 0.000000
0.596252 0.650380 0.000000
0.583401 0.655132 0.000000
0.583737 0.644777 0.000000
0.713099 0.416502 0.000000
0.708474 0.388943 0.000000
0.733625 0.389568 0.000000
0.684835 0.406222 0.000000
0.656936 0.416423 0.000000
0.633624 0.425116 0.000000
0.634362 0.400237 0.000000
0.646884 0.740682 0.000000
0.654954 0.726002 0.000000
0.663305 0.741855 0.000000
0.732481 0.441235 0.000000
0.751303 0.460839 0.000000
0.721338 0.462235 0.000000
0.759622 0.437863 0.000000
0.462761 0.363156 0.000000
0.373644 0.622389 0.000000
0.346217 0.613642 0.000000
0.370315 0.594521 0.000000
0.351411 0.640635 0.000000
0.695337 0.690220 0.000000
0.705202 0.700133 0.000000
0.692303 0.700990 0.000000
0.521365 0.516400 0.000000
0.522992 0.510597 0.000000
0.527633 0.513574 0.000000
0.291567 0.329512 0.000000
0.294927 0.318154 0.000000
0.365771 0.366553 0.000000
0.366135 0.358691 0.000000
0.374180 0.368122 0.000000
0.408232 0.327056 0.000000
0.423479 0.328280 0.000000
0.411272 0.339740 0.000000
0.664110 0.670607 0.000000
0.667245 0.662649 0.000000
[...]
POINT_DATA 1818
SCALARS UX float 1
LOOKUP_TABLE default
-0.000008
0.000007
0.571553
-0.102182
-0.018495
0.431955
0.000001
-0.000001
-0.000000
-0.000000
-0.000000
-0.000000
-0.000000
-0.000000
-0.000000
0.000000
0.000000
0.000000
0.000000
0.000000
0.000001
-0.000000
0.160481
0.170786
0.233887
0.321309
0.409290
0.492021
0.573226
0.650507
0.720376
0.776383
0.809032
0.827347
0.809497
0.741207
0.649084
0.597203
0.494857
0.443998
0.413240
0.392166
0.374384
0.357172
0.339199
0.319352
0.295746
0.267432
0.234989
0.197306
0.153583
0.102211
0.044149
-0.028077
-0.107067
-0.119683
-0.142962
-0.170411
-0.206760
-0.248569
-0.289766
-0.327095
-0.350353
-0.351649
-0.344201
-0.331931
-0.138701
-0.028763
-0.057587
-0.032128
-0.006078
0.003092
-0.010159
-0.011449
-0.008181
-0.016925
-0.014639
-0.018709
-0.002989
0.017037
0.019884
0.016374
-0.001927
0.024028
0.029764
0.034558
0.042617
0.057402
0.050931
0.060387
0.054274
0.056624
0.066798
0.062856
0.065809
0.118264
0.094654
0.100799
0.139813
0.150395
0.151158
0.153911
0.147194
0.161657
0.193553
0.198607
0.217692
0.231607
0.230478
0.262611
0.253555
0.267351
0.305582
0.305774
0.317692
0.329215
0.325619
0.327328
0.323475
0.322222
0.330836
0.330995
0.365878
0.360182
0.350277
0.363316
0.375912
0.366147
0.373167
0.371056
0.375567
0.374747
0.374169
0.379828
0.400800
0.403233
0.007183
0.001135
0.003351
0.106388
0.113293
0.102305
0.001090
0.214245
0.191603
0.211503
0.019224
0.025885
0.027143
0.032486
0.210959
0.186700
0.202468
-0.005260
-0.006471
0.007772
-0.189277
-0.201965
-0.196709
0.589868
0.594393
0.562918
0.002774
0.203410
0.209836
0.175375
0.187991
0.167397
0.182494
0.166356
0.185605
0.173430
0.000973
0.010229
0.001618
0.282100
0.269303
0.286360
-0.200219
-0.197888
0.266919
-0.191871
0.596596
0.604595
0.605773
-0.007387
-0.018325
-0.004761
0.126270
0.113149
0.120558
-0.027527
0.461114
0.493291
0.515584
-0.159776
-0.167096
-0.161157
0.006047
-0.207159
-0.193237
-0.194851
0.011142
0.004431
-0.173358
0.013063
0.337343
0.301281
0.330576
0.311409
0.305498
0.291053
-0.163043
-0.174886
-0.180086
0.285454
-0.158297
0.031729
0.035063
0.029601
0.042351
0.416202
0.400639
0.405184
0.386295
0.682180
0.679312
0.706951
0.325305
-0.260243
-0.288618
-0.254700
-0.287211
0.018303
0.014511
0.015876
0.187023
0.172371
0.172526
0.313758
0.029737
0.035514
0.029098
-0.288019
-0.267559
-0.270108
0.035744
0.127302
0.140727
0.139400
0.030518
0.007864
0.013268
0.366425
0.389911
0.364203
0.021887
-0.188479
-0.187028
0.020718
0.011069
0.027139
0.068524
0.078537
0.064801
0.077843
0.387030
0.573742
0.609098
0.595098
-0.211229
-0.222807
-0.237062
0.158413
0.173994
0.260849
0.266540
0.257159
0.164350
0.270815
-0.146836
-0.155673
0.299959
0.291637
0.283213
0.270940
-0.138644
0.587172
0.606011
0.621549
-0.014028
0.004797
0.570665
0.300099
0.287777
0.282983
0.426143
0.404388
0.414680
-0.116786
-0.134137
-0.127387
-0.122082
0.048220
0.041798
0.041249
0.110612
0.129699
0.121976
0.416685
0.047076
0.552022
0.525836
0.456965
0.464817
0.416041
0.219394
0.237108
0.283749
0.282175
0.415752
0.376901
0.405473
0.402655
0.429218
0.250336
0.253615
0.414735
0.397551
0.220170
0.219300
0.207309
0.350826
0.309199
0.332787
0.311459
0.301787
0.295586
0.262857
0.326406
0.322703
0.335489
0.403689
0.449578
0.422424
0.425440
0.135966
0.068462
0.039127
0.038817
0.067381
0.362934
0.374432
0.349646
0.338401
0.359254
0.367960
-0.071159
0.013121
0.097102
0.096625
0.107240
0.088129
0.092722
0.099154
0.292824
0.303464
0.309845
-0.100285
-0.078707
-0.102073
-0.082344
0.248242
0.252595
0.236895
0.356501
0.075317
0.082045
0.097350
0.064478
0.058749
0.066481
0.157154
0.148339
0.141559
0.102017
0.109190
0.087378
0.121063
0.091383
0.098252
0.080217
0.387806
0.407889
0.385731
0.400273
0.025935
0.098405
0.010815
0.008267
0.016808
-0.003957
-0.219818
-0.212890
-0.212512
-0.204165
-0.208494
-0.201573
0.130058
0.140680
0.200214
0.397041
0.386135
-0.073407
-0.088472
-0.064050
0.022566
0.035291
0.058255
0.087004
0.094156
-0.189443
0.061057
0.065982
0.051684
0.077545
-0.128148
-0.119657
0.609095
0.609962
0.601240
0.622163
-0.142992
-0.146290
-0.159654
0.001098
-0.037261
0.011175
0.018059
0.011979
0.016055
0.009422
0.022863
0.016903
0.024575
0.628251
0.614106
-0.072606
-0.002938
0.006725
0.200512
0.194586
0.183878
0.020208
-0.147191
-0.142904
0.253579
0.260703
0.266421
-0.116900
-0.129131
0.067168
0.058681
0.068891
0.058626
0.065885
0.056313
0.246662
0.251971
0.224290
-0.233951
-0.277109
-0.236886
-0.078529
-0.037009
-0.046016
-0.065050
0.271817
0.262864
0.144378
0.145877
0.065334
0.063350
0.053403
0.048785
0.070811
0.076925
0.081472
-0.115761
-0.117558
-0.126813
-0.102114
-0.089229
-0.092495
-0.077290
0.024216
0.185660
0.176390
0.170128
0.140331
0.120206
0.118720
0.141696
0.377114
0.335981
0.332219
0.383908
0.431601
-0.130151
-0.143964
-0.164606
0.465667
0.477980
0.444537
-0.052609
-0.041817
-0.036811
0.223563
0.236119
-0.052510
0.224550
0.207176
0.217976
0.175694
0.193317
0.187220
0.367394
0.365895
0.384969
0.045950
0.039780
0.235470
0.379111
0.034422
0.071955
-0.008002
0.019364
-0.026933
0.104073
0.125220
0.299544
0.322603
0.317604
0.309525
0.245477
-0.306019
0.339979
0.352759
0.344327
0.346160
-0.170669
-0.196901
-0.131379
0.536029
0.530805
0.540442
0.042234
0.222164
0.433447
0.339496
0.327308
0.303896
0.314648
0.320777
-0.171610
-0.180876
-0.168479
0.236376
0.225825
-0.188746
0.294555
0.315262
0.314472
0.157697
0.143293
0.250942
0.248001
0.268949
0.143532
0.336604
-0.122504
-0.119635
-0.138514
-0.137768
-0.128923
-0.121882
0.373358
0.395643
0.395307
0.384881
0.301423
0.535241
0.521658
-0.063353
-0.035853
-0.047604
0.102678
0.104503
-0.089237
-0.086552
-0.059807
0.091651
0.022116
0.027090
0.021716
-0.073841
-0.086157
-0.096646
0.018225
-0.011048
0.029808
0.032733
0.037361
0.034365
0.132462
0.180186
0.387834
-0.183151
-0.216061
0.407407
0.317488
0.338532
0.149004
0.291779
0.275871
0.097503
0.115194
0.460325
0.484193
0.491815
0.083571
0.279720
0.304220
0.374971
-0.004792
-0.020483
0.013674
0.011281
0.027874
0.005077
-0.034220
0.186341
0.203098
-0.049554
0.214672
0.194695
0.206511
0.206599
0.555097
0.527673
0.499803
0.549669
0.513483
0.474752
0.245362
0.247898
0.267450
0.050766
0.050807
0.357718
0.329977
0.263288
0.274332
0.014389
-0.183224
-0.191877
0.213867
0.219846
-0.178455
0.649357
0.691497
0.634484
0.601909
0.692575
0.064427
0.063342
0.085056
-0.206520
0.320231
0.106550
0.102998
0.115864
0.006075
-0.045058
0.186617
0.193686
0.562389
-0.137341
-0.107184
-0.128212
-0.128869
-0.142961
0.037491
0.050438
0.056478
-0.158461
0.632882
0.623190
0.631334
0.069166
0.016454
0.413179
0.431424
0.445107
0.417200
0.439426
0.414685
0.430593
0.448682
0.450144
0.146688
-0.142513
0.202040
-0.160591
-0.181510
0.029873
-0.004135
0.094084
0.098072
0.042939
0.031516
0.326624
0.339325
-0.193838
0.328701
0.041419
0.064209
0.083525
0.316827
0.542218
0.548000
0.519383
0.539570
0.108845
0.091075
0.259316
0.254578
0.271426
0.470340
0.490041
0.466609
0.478772
0.205831
0.259756
0.116634
0.100560
0.346084
-0.075605
0.000788
-0.024052
0.656314
0.667338
0.658344
0.307725
0.289312
0.308305
0.673291
0.497503
0.165027
0.059878
0.104838
0.050846
0.285678
0.182246
0.183010
0.160673
0.694170
0.691440
0.690451
0.109133
0.083518
0.052184
0.712682
-0.098654
-0.078968
-0.109143
-0.014217
-0.026298
-0.074312
-0.001487
-0.000349
-0.001022
0.781573
0.761468
0.796034
0.754595
0.753980
0.796187
0.796239
0.317673
0.325810
-0.286462
-0.246769
-0.254618
0.320097
0.134284
0.077652
-0.261181
-0.267533
-0.296483
-0.156088
-0.173792
-0.328081
0.108074
0.079510
0.216796
0.016096
0.183116
0.205265
0.216779
0.655908
0.725204
0.373207
0.369077
0.386445
0.443274
0.422029
0.468375
0.407302
0.386266
0.430928
0.085667
0.074487
0.036005
-0.093705
-0.098808
-0.033730
-0.107417
-0.114253
-0.132860
-0.319138
-0.326255
0.011758
0.015137
0.002076
0.016770
0.019664
0.300608
0.310295
0.312281
-0.315566
0.002387
0.001149
0.154334
0.152246
0.140277
0.755383
0.729461
-0.143587
0.631789
0.628038
0.609227
0.650646
-0.223176
-0.235204
-0.203590
0.656399
0.013669
0.732097
0.374347
0.016700
0.039468
0.033510
0.119077
0.001564
0.015948
0.310261
0.314989
0.325431
0.603818
0.537367
0.055158
0.234881
0.244506
0.343290
0.146036
0.127278
0.176072
0.146075
0.175373
-0.189650
-0.174767
0.225202
0.299105
0.000319
0.014431
0.037711
0.040362
0.011540
0.000170
0.017771
-0.116883
-0.074906
-0.078740
-0.104793
0.221555
-0.183957
-0.148032
-0.198017
-0.148685
-0.174430
0.144874
0.154927
0.192409
0.217647
0.136450
0.028647
0.028024
0.300800
0.314869
-0.131549
-0.192948
-0.138380
0.225197
0.210244
0.206122
0.132057
0.120417
0.119512
0.110205
-0.159237
-0.191768
-0.176823
-0.054162
-0.060278
-0.035036
0.031790
0.021157
-0.073409
0.227494
0.065010
0.042057
-0.023858
0.066795
0.100168
0.063117
-0.042075
-0.252238
0.248156
0.197134
0.000569
0.011255
-0.016250
-0.003625
0.059606
0.056964
-0.076209
0.323329
0.156806
0.165591
0.044557
0.078696
0.058443
0.129759
0.072369
0.095821
0.140580
0.163338
0.142095
0.149404
-0.025859
-0.023310
-0.052070
0.128209
0.130386
-0.048984
0.500597
0.449704
0.464943
-0.279679
-0.250724
-0.235791
0.247202
0.239535
0.227728
-0.199403
0.626179
0.681831
0.652592
0.604458
0.629145
-0.237607
-0.231073
0.034118
0.005318
0.035819
0.399263
0.570689
0.497782
0.680303
-0.041951
-0.037924
0.166596
0.148249
0.174638
-0.194501
-0.250161
0.144237
0.168857
0.181821
0.169041
-0.029964
-0.040233
-0.022771
0.612324
0.601571
0.620614
-0.093640
0.642871
0.648359
-0.258780
0.232163
0.366937
-0.068517
-0.121177
0.315379
0.308209
0.458707
0.457468
0.440216
0.075454
0.072451
0.470408
0.062872
0.491625
-0.222910
-0.238089
0.642175
0.651424
0.495555
0.092638
0.081815
0.685510
0.688761
0.673224
0.668075
0.290501
0.277884
0.287590
0.275526
0.201310
0.332334
0.324764
0.225641
0.127121
0.178340
0.133793
0.131561
0.126852
0.139431
0.161626
0.170499
0.166563
0.149732
0.256149
0.239822
0.244931
0.091210
0.090109
0.107536
-0.047816
0.646045
0.647480
0.661405
-0.208601
-0.203752
-0.215900
0.018461
0.021214
0.025571
-0.205406
0.262287
0.025588
0.281155
0.336023
-0.244047
-0.228048
0.700256
0.247556
0.348345
0.315846
0.122862
0.108147
0.359091
0.355313
0.016564
-0.157178
0.349674
-0.053475
-0.230541
-0.227054
-0.064090
-0.050005
-0.069449
0.507730
0.523240
0.545169
0.495019
0.026321
0.054092
0.039563
0.089546
-0.207390
0.172316
0.152777
-0.213707
0.030077
0.352387
0.351775
0.323173
0.706834
0.613202
0.570082
0.092071
0.331505
0.333056
-0.199486
-0.192120
-0.201587
-0.215563
-0.005289
-0.000703
0.040866
0.331798
0.042673
0.150905
0.130625
0.014606
0.055330
0.048192
0.065008
0.633633
0.001514
0.003307
-0.001024
0.331053
0.039403
0.026314
0.022796
0.583118
0.138156
0.126749
0.120427
0.151728
0.105716
0.564944
0.571649
0.581714
0.593309
0.586549
0.593112
-0.190907
0.134649
0.003382
0.003902
0.007861
0.151639
0.147829
0.160626
0.692586
0.719113
0.518132
0.015173
0.001560
0.283171
0.265921
0.488655
0.414357
0.381157
0.363583
-0.083186
-0.067711
0.035506
0.033140
0.247979
-0.107820
-0.107824
0.349010
-0.097582
0.262838
0.274351
0.273215
0.333390
0.333013
0.625696
0.612089
0.147865
0.125582
0.151660
0.129368
0.164716
0.164663
0.162944
0.167568
-0.256518
0.128424
0.237856
0.268854
0.727495
0.731834
0.209413
0.373516
0.380954
0.366863
0.301707
0.270224
0.023265
0.024947
0.024149
-0.010760
-0.032149
0.612614
0.168423
0.117642
0.155714
0.336440
0.265841
0.276391
0.277588
0.585729
0.581078
0.531522
-0.186513
-0.189226
-0.172941
0.354577
0.024613
0.024265
0.020819
0.361865
0.020916
0.020895
0.016018
0.243071
0.347234
0.018358
0.546572
0.552855
0.582426
0.605455
0.572026
0.711965
-0.151892
0.330976
0.224106
0.204937
0.204495
0.233328
0.214772
0.123338
0.012472
0.604725
0.407405
0.359600
0.364265
0.603037
0.608126
0.274832
0.361217
0.363208
-0.138492
-0.170621
0.282309
0.003092
-0.121910
0.605130
0.593732
0.584504
0.593665
-0.134556
-0.175095
-0.209794
0.429831
0.443138
0.222324
0.199546
0.193699
0.186746
0.401665
0.754414
0.278904
0.582792
0.535996
0.559308
0.041844
0.123264
0.201750
0.744078
0.112973
0.134714
0.581379
0.515780
0.295679
0.282533
0.234850
0.214667
0.225444
0.193520
0.455424
0.442439
0.081280
0.056406
0.066726
0.176698
0.118294
-0.298579
0.383966
0.366705
0.387501
0.347148
0.339258
-0.049721
0.568527
-0.160346
0.208584
0.069848
-0.137280
0.084305
0.096475
0.102524
-0.129786
0.197683
-0.191618
-0.248793
0.151187
0.300177
0.284067
-0.159063
-0.173429
-0.128283
0.592402
0.115562
0.101393
-0.120823
0.175566
0.545571
0.593185
0.099929
0.096563
0.071649
0.345299
-0.114293
0.563943
0.563723
0.084043
0.109581
0.098237
0.111623
0.136927
0.153866
0.073989
0.310548
0.529895
0.579072
0.492588
0.061054
0.508952
0.089130
0.090221
0.514959
0.090645
0.020460
0.673926
0.273226
-0.161538
-0.165190
0.515368
0.285245
0.275046
0.668399
0.266573
0.276515
0.238481
-0.118911
-0.092219
0.274389
0.262370
-0.146867
-0.146495
-0.152782
0.572760
-0.155460
0.030849
0.020615
0.458717
0.203809
0.057274
0.051680
0.026192
0.139463
0.134122
0.417544
0.090400
0.097839
0.474117
0.490350
0.476096
0.494551
0.467247
0.424859
-0.102384
-0.030551
-0.073594
-0.099238
0.071731
0.349981
0.346187
0.235416
0.248655
0.138552
0.037681
0.294126
0.483318
0.547122
0.148986
0.144065
0.155561
0.150195
0.107378
-0.087174
-0.088466
0.528069
0.545896
0.541465
0.090778
0.104883
0.133665
-0.078986
-0.094106
0.027708
0.023170
0.537398
0.034247
-0.169381
-0.198228
-0.145414
0.119575
0.143667
-0.069658
0.095467
0.092347
-0.175446
-0.196322
0.114740
0.199803
0.256700
0.110915
0.182336
0.001479
0.167304
-0.015122
-0.001133
0.182207
0.057329
-0.190303
-0.162529
-0.210729
-0.099240
0.093287
-0.031966
-0.012315
0.435875
0.442678
0.423802
0.095497
0.125115
0.117330
0.107196
0.055813
0.073250
0.048919
0.289032
0.301242
-0.027290
0.075783
0.547010
0.560633
0.063752
-0.047475
-0.031931
-0.173770
-0.169768
-0.176315
0.155171
0.162765
0.492833
0.454362
0.205662
0.224342
0.118433
0.341655
0.345785
0.135328
0.200675
-0.016681
-0.000485
-0.001194
0.161291
0.007172
0.197230
0.189381
0.032581
0.030196
0.089723
0.263983
0.273676
0.553417
-0.188694
0.567558
0.184275
0.464783
0.486898
-0.086612
-0.100975
0.286750
0.299666
0.250117
0.251076
0.518894
0.577627
0.158116
0.159602
0.592468
-0.204260
0.185030
0.115764
0.097543
-0.207296
0.606510
0.056015
0.224667
0.354488
0.352378
0.353850
0.039248
-0.010398
0.007683
0.054711
-0.216996
0.446355
0.288375
0.317572
0.302817
0.012548
-0.141476
0.467650
-0.119876
-0.065940
-0.065883
0.051253
0.095602
0.066411
0.401236
0.196715
0.153912
0.181512
0.021792
0.002617
0.510380
0.547055
-0.048922
-0.031893
0.168398
0.000015
0.111254
-0.017764
0.472937
0.540226
0.448322
0.379858
-0.157700
0.466236
-0.183019
0.076851
0.368682
0.507448
0.507590
0.335827
0.516652
0.576090
-0.080392
0.074693
0.094895
0.734473
0.718292
0.008547
0.615098
0.184801
0.170523
0.176592
0.248755
0.261419
0.234949
0.226249
0.163846
0.024889
0.568989
0.104656
-0.166077
0.230180
-0.124621
0.028634
0.576008
0.673983
0.672200
0.200846
0.194049
-0.122659
0.476176
0.440593
0.190386
0.234348
0.042210
0.031676
-0.143883
0.045584
0.358605
0.156852
0.515381
0.619702
0.470062
0.436599
0.419016
-0.019823
0.026057
0.039522
0.054538
-0.104214
0.767029
0.088583
0.206263
0.221015
-0.156717
0.176676
0.330084
0.264333
0.267806
0.273016
0.474949
0.184915
0.381433
0.194075
0.171218
0.177284
-0.001539
-0.026440
0.004215
0.207230
0.394900
0.017244
0.017019
0.184473
0.700929
0.283398
-0.139710
-0.147611
0.021966
0.494441
-0.100395
-0.136019
-0.152950
0.077929
-0.061132
0.558052
0.179779
0.508460
0.350366
0.362739
0.298198
0.232853
0.210543
-0.155284
0.397617
0.392041
0.360690
0.372889
0.088200
0.074147
-0.026137
-0.020823
0.364892
-0.181588
0.049994
0.045444
0.032170
0.060730
0.215910
0.081852
0.336654
0.228840
0.021542
0.282355
0.217883
0.020859
-0.017906
-0.013986
0.265736
0.228493
0.037628
0.420957
0.430869
-0.114079
0.658472
0.045898
-0.207624
0.475849
0.331965
0.237930
0.249369
0.073032
-0.138972
0.512920
0.496764
0.509407
0.083986
0.241640
0.382807
-0.164650
-0.205761
0.432149
0.254177
-0.164067
-0.111042
0.564150
0.557569
0.247977
0.240691
0.161895
0.244112
0.438557
0.176622
0.188242
0.049268
-0.007253
0.157364
0.054358
0.082550
0.077519
0.296951
0.457699
0.055289
0.519549
-0.099881
0.038559
0.572893
-0.100810
-0.064467
-0.122197
0.033323
0.205604
0.218248
0.051383
0.526254
-0.101053
0.283706
0.121447
0.086691
0.265304
0.152493
0.162330
0.256935
-0.064849
-0.075874
0.080540
0.262623
0.114235
-0.041343
0.061140
0.076753
-0.015153
0.026311
0.108157
0.046956
0.073950
0.077006
0.301602
0.040507
0.601433
0.608128
0.223153
-0.133317
-0.127243
0.094848
0.215308
0.194465
0.042721
0.222257
-0.156059
-0.167133
0.227525
0.348099
0.344665
0.459293
0.530985
0.025657
0.479236
0.041811
-0.007544
0.036778
0.246629
0.049448
0.378118
0.013271
0.298752
0.234729
0.227649
-0.204170
0.290275
0.040362
0.025214
0.277532
0.052437
0.004495
0.180686
0.358117
0.175911
0.041953
0.125573
SCALARS UY float 1
LOOKUP_TABLE default
-0.000010
-0.000010
-1.884995
-1.884997
-0.182692
-1.359845
-0.000002
-0.000004
-0.000003
-0.000003
-0.000003
-0.000003
-0.000003
-0.000003
-0.000003
-0.000003
-0.000003
-0.000003
-0.000003
-0.000003
-0.000004
-0.000002
-0.171958
-0.322259
-0.434976
-0.540320
-0.629612
-0.716510
-0.798666
-0.870802
-0.933137
-0.983478
-1.030299
-1.078922
-1.149169
-1.279709
-1.463159
-1.674435
-1.884997
-1.884996
-1.884997
-1.884996
-1.884997
-1.884997
-1.884997
-1.884997
-1.884997
-1.884997
-1.884997
-1.884997
-1.884997
-1.884997
-1.884997
-1.884997
-1.699637
-1.517281
-1.344815
-1.176753
-1.022029
-0.888584
-0.775001
-0.681269
-0.608189
-0.571210
-0.541015
-0.498325
-0.336477
-0.178219
-0.089718
-0.038645
-0.222469
-0.247984
-0.270135
-0.246483
-0.288072
-0.326622
-0.372117
-0.357678
-0.345483
-0.360341
-0.335928
-0.407637
-0.404876
-0.444398
-0.481642
-0.467329
-0.422398
-0.417074
-0.448044
-0.537173
-0.561127
-0.580319
-0.600060
-0.606477
-0.682343
-0.642842
-0.684182
-0.703942
-0.616310
-0.752590
-0.728024
-0.642525
-0.736858
-0.761775
-0.866369
-0.821465
-0.739037
-0.737255
-0.754821
-0.904995
-0.912427
-0.922310
-0.840026
-0.843410
-0.840891
-0.894812
-0.935140
-0.979852
-0.999874
-1.040860
-1.104033
-1.070952
-1.062119
-1.152924
-1.161739
-1.119510
-1.222948
-1.215647
-1.099424
-1.200373
-1.298994
-1.335074
-1.315596
-1.312416
-1.309361
-1.322349
-0.003479
0.000202
0.000470
-1.347150
-1.379540
-1.384346
-0.000322
-0.226060
-0.252397
-0.192593
-0.011181
-0.016345
-0.021042
-0.027929
-0.210582
-0.192864
-0.215775
-1.222255
-1.235795
-1.242694
-0.705145
-0.746947
-0.703083
-0.746393
-0.755189
-0.804568
-1.253471
-0.195167
-0.169470
-1.439532
-1.444704
-1.419849
-1.430952
-1.456148
-1.475843
-1.459882
-0.000405
-0.001283
-0.000158
-1.825430
-1.771734
-1.773861
-0.783123
-0.785831
-1.724381
-0.735907
-0.706171
-0.703291
-0.700642
-1.161296
-1.159822
-1.178256
-0.107365
-0.096136
-0.102506
-1.134468
-0.610344
-0.676178
-0.678055
-0.926672
-0.914480
-0.938976
-0.000582
-0.597628
-0.525556
-0.586097
-0.007184
-0.006829
-0.514299
-0.010937
-0.341300
-0.373304
-0.291370
-0.252737
-0.241831
-0.241256
-0.866455
-0.825911
-0.827359
-0.225553
-0.859373
-0.024374
-0.017115
-0.014812
-0.029251
-0.364642
-0.347452
-0.364325
-0.342407
-0.920141
-0.892505
-0.940504
-0.260838
-0.686302
-0.606918
-0.651762
-0.662244
-0.011609
-0.011629
-0.001730
-0.149493
-0.140086
-0.141048
-0.254989
-0.015039
-0.017518
-0.015882
-0.542848
-0.533004
-0.588918
-0.022832
-1.414895
-1.429702
-1.419320
-1.184159
-1.149884
-1.165769
-1.608136
-1.615411
-1.637403
-1.164233
-0.780567
-0.798391
-1.264946
-1.270111
-1.281918
-0.061106
-0.069287
-0.054983
-0.066382
-1.557102
-1.039187
-0.856546
-0.891419
-0.717721
-0.717080
-0.658333
-0.134852
-0.146222
-0.200178
-0.209499
-0.199115
-0.143211
-0.208688
-0.945520
-0.915250
-0.298173
-0.279822
-0.287426
-0.267992
-0.943558
-0.758433
-0.774350
-0.802288
-1.140797
-1.164684
-0.956560
-1.646108
-1.635955
-1.606022
-0.430665
-0.412617
-0.435606
-1.020924
-0.997022
-1.022111
-1.000472
-0.038697
-0.034560
-0.029831
-0.106606
-0.125645
-0.113846
-0.407258
-0.043402
-0.736104