# vtk DataFile Version 2.0
Test
ASCII
DATASET POLYDATA
POINTS 1818 float
0.000000 0.000000 0.000000
1.000000 0.000000 0.000000
1.000000 1.000000 0.000000
0.000000 1.000000 0.000000
0.300000 0.330000 0.000000
0.700000 0.680000 0.000000
0.058824 0.000000 0.000000
0.117647 0.000000 0.000000
0.176471 0.000000 0.000000
0.235294 0.000000 0.000000
0.294118 0.000000 0.000000
0.352941 0.000000 0.000000
0.411765 0.000000 0.000000
0.470588 0.000000 0.000000
0.529412 0.000000 0.000000
0.588235 0.000000 0.000000
0.647059 0.000000 0.000000
0.705882 0.000000 0.000000
0.764706 0.000000 0.000000
0.823529 0.000000 0.000000
0.882353 0.000000 0.000000
0.941176 0.000000 0.000000
1.000000 0.058824 0.000000
1.000000 0.117647 0.000000
1.000000 0.176471 0.000000
1.000000 0.235294 0.000000
1.000000 0.294118 0.000000
1.000000 0.352941 0.000000
1.000000 0.411765 0.000000
1.000000 0.470588 0.000000
1.000000 0.529412 0.000000
1.000000 0.588235 0.000000
1.000000 0.647059 0.000000
1.000000 0.705882 0.000000
1.000000 0.764706 0.000000
1.000000 0.823529 0.000000
1.000000 0.882353 0.000000
1.000000 0.941176 0.000000
0.941176 1.000000 0.000000
0.882353 1.000000 0.000000
0.823529 1.000000 0.000000
0.764706 1.000000 0.000000
0.705882 1.000000 0.000000
0.647059 1.000000 0.000000
0.588235 1.000000 0.000000
0.529412 1.000000 0.000000
0.470588 1.000000 0.000000
0.411765 1.000000 0.000000
0.352941 1.000000 0.000000
0.294118 1.000000 0.000000
0.235294 1.000000 0.000000
0.176471 1.000000 0.000000
0.117647 1.000000 0.000000
0.058824 1.000000 0.000000
0.000000 0.941176 0.000000
0.000000 0.882353 0.000000
0.000000 0.823529 0.000000
0.000000 0.764706 0.000000
0.000000 0.705882 0.000000
0.000000 0.647059 0.000000
0.000000 0.588235 0.000000
0.000000 0.529412 0.000000
0.000000 0.470588 0.000000
0.000000 0.411765 0.000000
0.000000 0.352941 0.000000
0.000000 0.294118 0.000000
0.000000 0.235294 0.000000
0.000000 0.176471 0.000000
0.000000 0.117647 0.000000
0.000000 0.058824 0.000000
0.305970 0.335224 0.000000
0.311940 0.340448 0.000000
0.317910 0.345672 0.000000
0.323881 0.350896 0.000000
0.329851 0.356119 0.000000
0.335821 0.361343 0.000000
0.341791 0.366567 0.000000
0.347761 0.371791 0.000000
0.353731 0.377015 0.000000
0.359701 0.382239 0.000000
0.365672 0.387463 0.000000
0.371642 0.392687 0.000000
0.377612 0.397910 0.000000
0.383582 0.403134 0.000000
0.389552 0.408358 0.000000
0.395522 0.413582 0.000000
0.401493 0.418806 0.000000
0.407463 0.424030 0.000000
0.413433 0.429254 0.000000
0.419403 0.434478 0.000000
0.425373 0.439701 0.000000
0.431343 0.444925 0.000000
0.437313 0.450149 0.000000
0.443284 0.455373 0.000000
0.449254 0.460597 0.000000
0.455224 0.465821 0.000000
0.461194 0.471045 0.000000
0.467164 0.476269 0.000000
0.473134 0.481493 0.000000
0.479104 0.486716 0.000000
0.485075 0.491940 0.000000
0.491045 0.497164 0.000000
0.497015 0.502388 0.000000
0.502985 0.507612 0.000000
0.508955 0.512836 0.000000
0.514925 0.518060 0.000000
0.520896 0.523284 0.000000
0.526866 0.528507 0.000000
0.532836 0.533731 0.000000
0.538806 0.538955 0.000000
0.544776 0.544179 0.000000
0.550746 0.549403 0.000000
0.556716 0.554627 0.000000
0.562687 0.559851 0.000000
0.568657 0.565075 0.000000
0.574627 0.570299 0.000000
0.580597 0.575522 0.000000
0.586567 0.580746 0.000000
0.592537 0.585970 0.000000
0.598507 0.591194 0.000000
0.604478 0.596418 0.000000
0.610448 0.601642 0.000000
0.616418 0.606866 0.000000
0.622388 0.612090 0.000000
0.628358 0.617313 0.000000
0.634328 0.622537 0.000000
0.640299 0.627761 0.000000
0.646269 0.632985 0.000000
0.652239 0.638209 0.000000
0.658209 0.643433 0.000000
0.664179 0.648657 0.000000
0.670149 0.653881 0.000000
0.676119 0.659104 0.000000
0.682090 0.664328 0.000000
0.688060 0.669552 0.000000
0.694030 0.674776 0.000000
0.516135 0.080917 0.000000
0.549338 0.042552 0.000000
0.567302 0.088709 0.000000
0.555658 0.563778 0.000000
0.559301 0.571359 0.000000
0.552318 0.570919 0.000000
0.603235 0.047100 0.000000
0.446553 0.448087 0.000000
0.438652 0.443189 0.000000
0.445116 0.440368 0.000000
0.437254 0.190586 0.000000
0.465954 0.201747 0.000000
0.439184 0.213838 0.000000
0.453137 0.228102 0.000000
0.522423 0.410182 0.000000
0.522098 0.390982 0.000000
0.537289 0.398500 0.000000
0.453388 0.527105 0.000000
0.462022 0.524948 0.000000
0.461218 0.533993 0.000000
0.324300 0.374550 0.000000
0.319287 0.386214 0.000000
0.314834 0.375138 0.000000
0.668809 0.628853 0.000000
0.677366 0.632907 0.000000
0.668274 0.639611 0.000000
0.469934 0.529282 0.000000
0.439703 0.436699 0.000000
0.446608 0.432083 0.000000
0.542854 0.633425 0.000000
0.535117 0.647070 0.000000
0.524302 0.633157 0.000000
0.519372 0.648877 0.000000
0.586338 0.611293 0.000000
0.591638 0.624149 0.000000
0.575478 0.621479 0.000000
0.437962 0.035513 0.000000
0.421505 0.085456 0.000000
0.394924 0.044162 0.000000
0.445207 0.955749 0.000000
0.429168 0.919510 0.000000
0.464409 0.914226 0.000000
0.317150 0.400904 0.000000
0.328626 0.395860 0.000000
0.439616 0.884412 0.000000
0.330406 0.381773 0.000000
0.676842 0.602700 0.000000
0.674982 0.614185 0.000000
0.665930 0.611798 0.000000
0.414707 0.535036 0.000000
0.420123 0.526072 0.000000
0.425338 0.533771 0.000000
0.398407 0.375558 0.000000
0.393804 0.363255 0.000000
0.407284 0.365452 0.000000
0.407758 0.523337 0.000000
0.899969 0.377867 0.000000
0.945915 0.378245 0.000000
0.914158 0.409130 0.000000
0.358219 0.436142 0.000000
0.361390 0.425428 0.000000
0.369309 0.432300 0.000000
0.465999 0.075074 0.000000
0.269944 0.367761 0.000000
0.266521 0.352125 0.000000
0.283474 0.357667 0.000000
0.385889 0.083020 0.000000
0.359482 0.060981 0.000000
0.279658 0.346766 0.000000
0.363604 0.104040 0.000000
0.511115 0.503731 0.000000
0.503243 0.499914 0.000000
0.509146 0.494910 0.000000
0.513188 0.475753 0.000000
0.504957 0.474656 0.000000
0.511959 0.464784 0.000000
0.311863 0.447505 0.000000
0.293019 0.442078 0.000000
0.305555 0.431691 0.000000
0.499204 0.464990 0.000000
0.293855 0.459576 0.000000
0.396676 0.236328 0.000000
0.371014 0.247362 0.000000
0.373003 0.229199 0.000000
0.384478 0.261522 0.000000
0.555704 0.523331 0.000000
0.551313 0.515879 0.000000
0.562752 0.515269 0.000000
0.554954 0.506854 0.000000
0.804236 0.611103 0.000000
0.819351 0.593503 0.000000
0.832061 0.615776 0.000000
0.509908 0.485173 0.000000
0.129738 0.481190 0.000000
0.110722 0.443736 0.000000
0.154857 0.452634 0.000000
0.089738 0.485299 0.000000
0.396427 0.153886 0.000000
0.393058 0.115469 0.000000
0.420333 0.126587 0.000000
0.442628 0.413512 0.000000
0.434815 0.404283 0.000000
0.446816 0.400259 0.000000
0.499770 0.482873 0.000000
0.353883 0.235057 0.000000
0.351360 0.254011 0.000000
0.332147 0.240870 0.000000
0.112307 0.405527 0.000000
0.140355 0.392788 0.000000
0.142004 0.423465 0.000000
0.334868 0.263052 0.000000
0.551239 0.594093 0.000000
0.560217 0.601969 0.000000
0.546711 0.604614 0.000000
0.398510 0.570197 0.000000
0.387124 0.557316 0.000000
0.399978 0.555748 0.000000
0.705281 0.743146 0.000000
0.722930 0.758853 0.000000
0.697202 0.758074 0.000000
0.380190 0.572638 0.000000
0.278345 0.431947 0.000000
0.292575 0.428097 0.000000
0.470820 0.540616 0.000000
0.478213 0.533042 0.000000
0.480161 0.543190 0.000000
0.415268 0.299334 0.000000
0.412465 0.313515 0.000000
0.400419 0.297680 0.000000
0.396495 0.317117 0.000000
0.718655 0.732879 0.000000
0.709319 0.677587 0.000000
0.715709 0.670111 0.000000
0.719283 0.682820 0.000000
0.212992 0.453899 0.000000
0.184619 0.470046 0.000000
0.186665 0.440862 0.000000
0.452307 0.386568 0.000000
0.460371 0.397715 0.000000
0.478664 0.456068 0.000000
0.476179 0.462123 0.000000
0.471250 0.456445 0.000000
0.464654 0.388544 0.000000
0.483415 0.461045 0.000000
0.357146 0.449596 0.000000
0.344653 0.443966 0.000000
0.554562 0.459423 0.000000
0.543333 0.457517 0.000000
0.553850 0.449505 0.000000
0.543131 0.445036 0.000000
0.347312 0.459318 0.000000
0.781088 0.538918 0.000000
0.810909 0.534152 0.000000
0.799399 0.553968 0.000000
0.402869 0.534333 0.000000
0.408011 0.546121 0.000000
0.703844 0.670118 0.000000
0.552234 0.794299 0.000000
0.528593 0.795589 0.000000
0.539188 0.770312 0.000000
0.596088 0.518714 0.000000
0.593029 0.508081 0.000000
0.604120 0.510731 0.000000
0.384880 0.468703 0.000000
0.382270 0.455963 0.000000
0.394062 0.458803 0.000000
0.374729 0.466839 0.000000
0.340939 0.294790 0.000000
0.324530 0.290188 0.000000
0.338473 0.279923 0.000000
0.465367 0.336545 0.000000
0.477337 0.352846 0.000000
0.459495 0.350024 0.000000
0.584947 0.516440 0.000000
0.326802 0.302636 0.000000
0.945343 0.420397 0.000000
0.779746 0.749037 0.000000
0.771533 0.774140 0.000000
0.758291 0.749848 0.000000
0.743435 0.765852 0.000000
0.751942 0.297541 0.000000
0.784264 0.292048 0.000000
0.772562 0.330207 0.000000
0.812744 0.305799 0.000000
0.655547 0.494535 0.000000
0.649767 0.472522 0.000000
0.671966 0.480244 0.000000
0.612062 0.502007 0.000000
0.616789 0.515227 0.000000
0.403059 0.898561 0.000000
0.391512 0.946883 0.000000
0.625780 0.504699 0.000000
0.635988 0.491275 0.000000
0.596252 0.650380 0.000000
0.583401 0.655132 0.000000
0.583737 0.644777 0.000000
0.713099 0.416502 0.000000
0.708474 0.388943 0.000000
0.733625 0.389568 0.000000
0.684835 0.406222 0.000000
0.656936 0.416423 0.000000
0.633624 0.425116 0.000000
0.634362 0.400237 0.000000
0.646884 0.740682 0.000000
0.654954 0.726002 0.000000
0.663305 0.741855 0.000000
0.732481 0.441235 0.000000
0.751303 0.460839 0.000000
0.721338 0.462235 0.000000
0.759622 0.437863 0.000000
0.462761 0.363156 0.000000
0.373644 0.622389 0.000000
0.346217 0.613642 0.000000
0.370315 0.594521 0.000000
0.351411 0.640635 0.000000
0.695337 0.690220 0.000000
0.705202 0.700133 0.000000
0.692303 0.700990 0.000000
0.521365 0.516400 0.000000
0.522992 0.510597 0.000000
0.527633 0.513574 0.000000
0.291567 0.329512 0.000000
0.294927 0.318154 0.000000
0.365771 0.366553 0.000000
0.366135 0.358691 0.000000
0.374180 0.368122 0.000000
0.408232 0.327056 0.000000
0.423479 0.328280 0.000000
0.411272 0.339740 0.000000
0.664110 0.670607 0.000000
0.667245 0.662649 0.000000
[...]
POINT_DATA 1818
SCALARS UX float 1
LOOKUP_TABLE default
-0.000008
0.000006
0.401092
-0.286021
-0.007340
0.256490
0.000001
-0.000001
-0.000000
-0.000000
-0.000000
-0.000000
-0.000000
-0.000000
-0.000000
0.000000
0.000000
0.000000
0.000000
0.000000
0.000001
-0.000000
0.041878
0.094484
0.155732
0.302092
0.393435
0.471028
0.545735
0.601787
0.643747
0.645334
0.657577
0.662425
0.640104
0.573686
0.483575
0.428794
0.305634
0.238686
0.197210
0.172203
0.155203
0.138833
0.121491
0.103650
0.083581
0.059310
0.030546
-0.004060
-0.045138
-0.093912
-0.149038
-0.216768
-0.290292
-0.301460
-0.321725
-0.345174
-0.374877
-0.404824
-0.428333
-0.440692
-0.429151
-0.394344
-0.349225
-0.312930
-0.274702
-0.220724
-0.162726
-0.054101
-0.001767
0.001423
-0.016133
-0.020254
-0.020703
-0.034370
-0.035209
-0.041703
-0.028607
-0.013695
-0.011698
-0.018392
-0.036632
-0.017753
-0.014124
-0.010794
-0.005894
0.006321
-0.003432
0.002042
-0.007003
-0.007855
-0.003247
-0.009465
-0.010833
0.040574
0.013115
0.018442
0.054570
0.060036
0.058604
0.060241
0.048937
0.059725
0.087075
0.089617
0.106016
0.118920
0.114737
0.142526
0.129958
0.141587
0.177547
0.176794
0.185734
0.193923
0.188004
0.187773
0.182266
0.179389
0.186603
0.186085
0.218998
0.213156
0.202525
0.214484
0.231214
0.223443
0.232058
0.231769
0.236310
0.230556
0.225332
0.228047
0.243920
0.239575
0.005981
0.001456
0.005230
-0.027869
-0.023787
-0.034643
-0.000675
0.157731
0.137501
0.159711
0.023879
0.026922
0.030642
0.036790
0.165400
0.148597
0.159858
-0.123439
-0.124163
-0.113202
-0.225287
-0.246343
-0.232557
0.424929
0.432970
0.407717
-0.116810
0.153517
0.161887
0.018667
0.027592
0.011331
0.022012
0.015253
0.030461
0.019330
-0.000205
0.003657
0.002118
0.072795
0.063340
0.078871
-0.253994
-0.249631
0.063718
-0.233708
0.432550
0.435434
0.430055
-0.127111
-0.134919
-0.124390
0.104528
0.095334
0.101175
-0.142636
0.384679
0.440124
0.441254
-0.235291
-0.237434
-0.235124
0.003735
-0.225510
-0.195021
-0.208286
0.004306
0.002328
-0.173584
0.005279
0.244326
0.210673
0.243433
0.235319
0.230780
0.221101
-0.241241
-0.248894
-0.249814
0.216634
-0.241321
0.036129
0.041385
0.036452
0.044378
0.307917
0.297439
0.301580
0.288438
0.521397
0.525657
0.541519
0.244019
-0.356776
-0.361780
-0.335787
-0.385745
0.012225
0.007084
0.008729
0.147545
0.137361
0.138007
0.234567
0.036597
0.041826
0.036566
-0.337909
-0.316630
-0.335057
0.043185
-0.017445
-0.006853
-0.008616
-0.101325
-0.119050
-0.113479
0.181473
0.194762
0.174924
-0.110287
-0.255759
-0.253520
-0.102966
-0.110165
-0.097779
0.065858
0.072777
0.062789
0.071935
0.201059
0.370930
0.426155
0.380501
-0.291211
-0.312413
-0.310896
0.128509
0.139234
0.198517
0.201125
0.195179
0.132690
0.205461
-0.228668
-0.234313
0.228786
0.222485
0.217030
0.207938
-0.224482
0.457593
0.481705
0.485893
-0.133069
-0.118743
0.395810
0.108045
0.095678
0.095711
0.318177
0.303248
0.311243
-0.208545
-0.219966
-0.215005
-0.212548
0.051344
0.048365
0.047799
0.096133
0.109231
0.103756
0.310868
0.051750
0.491319
0.325013
0.258196
0.266422
0.217308
0.155365
0.161855
0.212904
0.199803
0.318698
0.291218
0.314237
0.304007
0.322327
0.047378
0.048028
0.313728
0.303461
0.057560
0.055679
0.046408
0.277992
0.243971
0.262990
0.245959
0.237426
0.231244
0.206859
0.148070
0.148531
0.156770
0.320654
0.357798
0.333229
0.340794
0.113311
-0.080351
-0.106291
-0.100762
-0.086726
0.195773
0.207233
0.181826
0.235681
0.260542
0.267399
-0.055491
0.029884
0.080572
0.082109
0.089507
0.079170
0.082823
0.086707
0.125597
0.141024
0.144171
-0.197680
-0.183424
-0.200241
-0.187778
0.090792
0.090968
0.075509
0.251693
0.065634
0.067332
0.082110
0.057957
0.055104
0.062461
0.122001
0.108808
0.104539
-0.039718
-0.035212
-0.051620
0.094186
0.061961
0.071223
0.074467
0.187877
0.205455
0.181899
0.193970
0.030197
0.084358
-0.109364
-0.108614
-0.101678
-0.120643
-0.251261
-0.244584
-0.254699
-0.237017
-0.242762
-0.225653
0.100033
0.106535
0.035362
0.297476
0.290488
-0.186298
-0.194246
-0.176685
0.030877
-0.153900
-0.129281
-0.104844
-0.095277
-0.217290
-0.070781
-0.067295
-0.078312
-0.057931
-0.188316
-0.181099
0.447162
0.453965
0.442845
0.457582
-0.230827
-0.231225
-0.237852
0.034168
0.000541
0.046531
0.003824
-0.002562
0.008390
0.001292
0.005528
-0.035695
-0.039707
0.444330
0.390779
-0.038661
-0.120881
-0.113133
0.048524
0.039723
0.031576
-0.102848
-0.194480
-0.185771
0.075412
0.084333
0.086707
-0.187525
-0.206224
0.064444
0.058240
0.065100
0.058397
0.063396
0.057096
0.192932
0.196033
0.176174
-0.389404
-0.413334
-0.382042
-0.256416
-0.217405
-0.229202
-0.239394
0.108905
0.096939
0.007642
0.006978
-0.066332
-0.068570
-0.075453
-0.079981
-0.061132
-0.057242
-0.053046
-0.206668
-0.208372
-0.213313
-0.197216
-0.187845
-0.190627
-0.179289
-0.100571
0.141497
0.127862
0.124674
0.113713
0.100041
0.097115
0.116195
0.297484
0.258766
0.248046
0.297997
0.355079
-0.145401
-0.165036
-0.187109
0.338875
0.346044
0.313156
-0.159603
-0.151232
-0.147771
0.063840
0.079241
-0.158198
0.068338
0.050279
0.057299
0.140517
0.152592
0.148313
0.275800
0.275199
0.288125
0.049959
0.045986
0.070838
0.284818
-0.147760
-0.112475
-0.187031
-0.156383
-0.198480
0.089522
0.104876
0.227728
0.244154
0.240268
0.235236
0.190826
-0.386208
0.134842
0.143995
0.133166
0.144592
-0.143919
-0.171979
-0.073972
0.378431
0.380230
0.388184
0.046776
0.174055
0.231094
0.256152
0.247871
0.132782
0.144530
0.150133
-0.242932
-0.245702
-0.239784
0.069474
0.059887
-0.348872
0.226556
0.241649
0.240217
0.127701
0.117988
0.065291
0.067275
0.082259
0.118348
0.256505
-0.218877
-0.219982
-0.230964
-0.220071
-0.211569
-0.207977
0.265863
0.291019
0.284566
0.283166
0.214958
0.382813
0.374091
-0.161872
-0.129616
-0.145265
0.087887
0.089800
-0.203981
-0.198442
-0.180851
0.081179
0.017152
0.027774
0.018317
-0.196881
-0.212163
-0.213944
0.039598
0.016518
0.047721
0.040308
0.045635
0.043892
-0.064963
-0.019700
0.288454
-0.135405
-0.191763
0.299731
0.241426
0.256763
-0.048432
0.223581
0.211040
-0.042586
-0.029001
0.361954
0.382845
0.385283
-0.053800
0.213435
0.230663
0.292180
-0.123432
-0.135347
-0.109067
-0.062776
-0.087295
-0.012492
-0.146195
0.147565
0.159015
-0.157716
0.050020
0.034190
0.044771
0.042150
0.461244
0.427433
0.414004
0.383931
0.350108
0.315636
0.052234
0.058624
0.072602
0.052708
0.051661
0.263586
0.230266
0.194183
0.205819
0.007701
-0.248714
-0.251757
0.140602
0.149631
-0.193719
0.432754
0.478011
0.419786
0.545546
0.487913
0.046992
0.044811
0.061397
-0.232073
0.235635
0.092199
0.090192
0.098973
-0.091242
-0.147126
0.028905
0.035500
0.394461
-0.129340
-0.102786
-0.218698
-0.220450
-0.227991
-0.090752
-0.080403
-0.076357
-0.225704
0.468730
0.462289
0.467124
-0.066048
0.017727
0.363419
0.327082
0.334496
0.298168
0.320531
0.291829
0.316793
0.324047
0.330297
0.117136
-0.210573
0.052669
-0.224179
-0.212303
-0.140436
-0.172353
0.084730
0.087705
0.047398
0.034919
0.246161
0.154681
-0.342126
0.145544
-0.123218
-0.108750
-0.087780
0.138713
0.411406
0.409904
0.392335
0.400942
0.094571
0.082220
0.085985
0.083880
0.097627
0.360400
0.372212
0.355551
0.361753
0.122655
0.193180
-0.071930
-0.083365
0.300532
-0.260294
-0.188548
-0.212846
0.487526
0.485492
0.475420
0.103086
0.092170
0.110122
0.498630
0.422096
0.091304
0.037089
0.062411
0.020333
0.084595
0.145992
0.146298
0.130619
0.483163
0.504725
0.504833
-0.086545
-0.111586
-0.140734
0.524394
-0.180472
-0.162187
-0.195871
-0.102354
-0.113167
-0.203945
-0.001812
-0.002624
-0.002320
0.606741
0.598148
0.632735
0.575990
0.561372
0.618223
0.616288
0.123600
0.124258
-0.285680
-0.250725
-0.223907
0.115398
0.106837
0.073120
-0.290507
-0.306738
-0.328768
-0.244469
-0.251801
-0.354518
0.086597
0.074852
0.014738
0.013386
-0.007430
0.014258
0.021622
0.571886
0.614199
0.156150
0.157207
0.171507
0.235600
0.209356
0.265946
0.189913
0.167755
0.220470
0.076806
0.069364
-0.006284
-0.033569
-0.071741
0.015443
-0.213895
-0.223109
-0.231799
-0.413134
-0.396068
0.003444
0.007205
0.001133
0.004422
0.002234
0.127419
0.138070
0.137564
-0.360516
0.000968
-0.000099
0.008626
0.004202
-0.004673
0.610134
0.579748
-0.245240
0.479019
0.473260
0.456300
0.492651
-0.334323
-0.331167
-0.307286
0.503010
0.007136
0.566345
0.178324
0.012183
0.043244
0.037740
-0.020622
-0.000861
0.011711
0.127002
0.134238
0.138770
0.400413
0.331621
0.056429
0.040064
0.045483
0.150683
-0.001844
0.080000
0.119109
0.102959
0.106237
-0.252765
-0.246043
0.025907
0.091739
-0.000324
0.000528
0.026923
0.031070
0.015785
0.000915
0.003399
-0.267812
-0.228013
-0.242945
-0.246441
0.052329
-0.302618
-0.283439
-0.327944
-0.271146
-0.283733
-0.005828
0.002845
0.005939
0.028131
-0.011537
0.037315
0.033027
0.112889
0.127465
-0.303222
-0.359058
-0.299110
0.174792
0.164323
0.161698
-0.017672
-0.027689
0.101041
0.094292
-0.262939
-0.287286
-0.268016
-0.167174
-0.169780
-0.151138
0.025866
0.040767
-0.217196
0.176643
0.051151
0.036855
-0.145280
-0.092878
-0.068538
-0.100678
-0.160396
-0.319565
0.187179
0.144244
-0.147304
-0.144886
-0.167571
-0.163783
0.051759
0.052348
-0.180531
0.248280
0.114224
0.127878
0.040789
0.070896
0.056993
-0.012549
0.068999
-0.066728
-0.015271
0.000421
-0.016665
-0.014370
-0.158424
-0.162372
-0.182094
0.107755
0.108899
-0.188522
0.350611
0.342028
0.349952
-0.402001
-0.367160
-0.370036
0.074649
0.066168
0.058790
-0.133631
0.531398
0.567395
0.535432
0.501925
0.509433
-0.244966
-0.211732
-0.116675
-0.135952
-0.121248
0.182385
0.374165
0.301493
0.473780
-0.193753
-0.199948
-0.028054
-0.043224
-0.017793
-0.085182
-0.252559
-0.043144
0.136195
0.144965
0.136427
-0.141909
-0.148450
-0.136804
0.454573
0.444323
0.460627
-0.071538
0.509069
0.503946
-0.311904
0.063696
0.250513
-0.252743
-0.301286
0.104628
0.095247
0.341888
0.340195
0.328640
0.069499
0.067842
0.350783
0.061583
0.365119
-0.223388
-0.267299
0.474182
0.477944
0.370188
0.070851
0.073875
0.512283
0.483527
0.528133
0.464497
0.117163
0.106064
0.115607
0.104994
0.159469
0.124166
0.114784
0.176059
-0.068167
-0.019602
-0.059343
-0.016764
-0.019516
0.115501
0.131072
0.012316
0.008228
-0.003384
0.196394
0.184880
0.188688
-0.051385
-0.050577
-0.038055
-0.167837
0.479448
0.485623
0.497866
-0.253008
-0.260357
-0.266256
0.021467
0.019452
0.029179
-0.268931
0.063907
0.029137
0.077562
0.123712
-0.299720
-0.293561
0.549580
0.190102
0.274174
0.246712
-0.027448
-0.039180
0.161303
0.154369
0.009968
-0.303518
0.159202
-0.163604
-0.275889
-0.249899
-0.170159
-0.160103
-0.174717
0.381263
0.387763
0.400603
0.379317
0.017074
0.034014
0.027903
0.061135
-0.216436
0.010502
-0.002880
-0.233562
-0.106635
0.185593
0.182115
0.154058
0.523088
0.432259
0.378696
0.082249
0.162612
0.133847
-0.256318
-0.254316
-0.255238
-0.279543
0.000465
-0.001252
0.049467
0.138250
0.050099
0.123854
0.109777
0.006746
0.055792
0.050685
0.063702
0.458843
-0.019235
-0.006197
-0.001615
0.162071
0.017693
0.026714
0.022080
0.473192
-0.036592
-0.050927
-0.048788
-0.032474
-0.074056
0.448657
0.425991
0.437245
0.426921
0.421238
0.425183
-0.262060
0.111465
0.001384
0.000065
0.005923
0.124024
0.121575
0.130239
0.559451
0.587870
0.409052
-0.122645
-0.128489
0.109263
0.094823
0.361201
0.333808
0.303837
0.289043
-0.184214
-0.172434
0.048619
0.043043
0.083132
-0.207610
-0.205621
0.164056
-0.203342
0.205516
0.213383
0.211757
0.159389
0.162300
0.460788
0.449510
-0.024614
-0.040319
-0.017407
-0.032475
-0.012955
-0.017049
0.129412
0.134626
-0.288008
0.099340
0.187358
0.210621
0.548083
0.548469
0.165773
0.172242
0.173378
0.161930
0.125785
0.078918
0.025559
0.034017
0.027442
-0.131940
-0.147333
0.452843
0.127772
0.086568
0.121502
0.171632
0.096054
0.099404
0.097976
0.426696
0.418320
0.375898
-0.241747
-0.240562
-0.222640
0.141826
0.022716
0.010328
0.016690
0.167985
0.017517
0.009795
0.006478
0.073305
0.168088
0.013101
0.418972
0.429894
0.444892
0.440757
0.432795
0.529038
-0.230930
0.115388
0.047843
0.029443
0.032498
0.052477
0.034404
-0.021137
0.011043
0.443211
0.194854
0.143831
0.146387
0.438703
0.448026
0.216746
0.275012
0.274651
-0.149813
-0.190056
0.129455
0.006722
-0.213776
0.443951
0.433368
0.417883
0.421007
-0.221325
-0.256474
-0.243149
0.334024
0.340679
0.175857
0.158571
0.153602
0.146330
0.314551
0.568944
0.127105
0.410456
0.369992
0.389998
0.045308
-0.019638
0.042762
0.556776
0.097117
-0.010377
0.411250
0.380354
0.114015
0.099496
0.059358
0.043066
0.053532
0.010423
0.338006
0.328330
0.067767
0.040759
0.054150
0.000514
-0.025601
-0.314417
0.292057
0.281061
0.292600
0.268290
0.264845
-0.158950
0.399324
-0.164419
0.061255
-0.064795
-0.222554
-0.047955
-0.032764
-0.029225
-0.134426
0.151366
-0.215273
-0.287770
0.118222
0.130798
0.114683
-0.147985
-0.218050
-0.165995
0.419042
0.099625
0.089902
-0.187713
0.026156
0.382291
0.424753
-0.053393
-0.060637
-0.073606
0.257714
-0.194352
0.412819
0.407426
0.078091
-0.029694
-0.039340
-0.029471
-0.015783
-0.003974
0.067134
0.140484
0.450515
0.492197
0.346507
0.059931
0.348016
0.076640
0.075741
0.368435
0.078756
0.013561
0.511044
0.106470
-0.233798
-0.234249
0.377872
0.215135
0.209000
0.534060
0.203480
0.203601
0.160320
-0.242795
-0.226560
0.105017
0.094592
-0.225901
-0.227048
-0.229289
0.505724
-0.232209
-0.083614
-0.101173
0.354729
0.045444
0.056576
0.054486
-0.097917
0.113563
0.108546
0.304602
-0.044521
-0.040537
0.347221
0.358555
0.351062
0.362771
0.344544
0.296445
-0.270032
-0.121846
-0.165976
-0.161562
0.062448
0.132593
0.131494
0.182532
0.192250
0.003746
0.047862
0.217692
0.326054
0.383647
0.120091
0.117505
0.125156
0.122184
-0.033553
-0.183477
-0.180102
0.383260
0.392636
0.392090
-0.046774
-0.036040
0.110183
-0.179585
-0.190758
0.026529
0.024084
0.393407
0.033114
-0.154123
-0.193809
-0.226951
-0.032481
0.117976
-0.165841
0.083358
0.080855
-0.258473
-0.272073
0.098930
0.131644
0.190773
-0.031818
0.145162
-0.000072
0.134880
-0.136895
-0.127574
0.145953
-0.074282
-0.248745
-0.194796
-0.177519
-0.117890
-0.045373
-0.135294
-0.117834
0.321783
0.327111
0.314798
-0.052768
-0.031863
0.097413
0.090512
-0.081258
-0.069696
-0.089151
0.112098
0.121883
-0.136991
-0.065589
0.396737
0.402875
0.063287
-0.156621
-0.145025
-0.240110
-0.235500
-0.237759
0.123474
0.128883
0.355622
0.319011
0.024286
0.037345
-0.027259
0.168580
0.176547
0.113176
0.157002
-0.132978
-0.000296
-0.001038
0.013545
-0.105963
0.153578
0.147408
-0.092379
-0.092603
0.078737
0.202142
0.208780
0.394421
-0.234424
0.402261
0.133032
0.376039
0.389814
-0.187358
-0.197411
0.115608
0.127778
0.083509
0.083142
0.361887
0.412036
0.128706
0.008885
0.423125
-0.251734
0.073665
0.028209
0.034206
-0.250028
0.436867
0.002122
0.171776
0.266649
0.264822
0.178821
0.013338
-0.197106
-0.177541
-0.137078
-0.227215
0.365171
0.224469
0.246525
0.233833
0.014143
-0.255921
0.388861
-0.211602
-0.170368
-0.169736
0.054046
0.085578
0.065577
0.299686
0.155365
0.002817
0.024275
-0.170063
-0.000983
0.316853
0.364053
-0.236224
-0.220483
0.014420
-0.002877
0.030962
0.006926
0.275659
0.360547
0.268423
0.206340
-0.230296
0.269065
-0.243653
0.060479
0.276190
0.369664
0.366341
0.253151
0.401021
0.421859
-0.181105
-0.064483
-0.050299
0.537848
0.524241
0.007978
0.440155
0.015286
0.003277
0.005250
0.190426
0.199531
0.181040
0.175241
0.010258
0.030084
0.418294
0.045871
-0.220234
0.045937
-0.257755
0.042144
0.381057
0.480874
0.472091
0.005840
-0.002747
-0.236394
0.370010
0.344774
0.014147
0.071194
0.041747
0.035732
-0.085546
0.048070
0.152429
0.005815
0.395916
0.475057
0.269993
0.228839
0.211369
-0.215948
0.030798
0.045203
0.056616
-0.199273
0.581786
-0.105232
0.161368
0.171227
-0.249625
0.085541
0.252896
0.203784
0.085150
0.210672
0.320453
0.017776
0.301191
0.026760
0.135079
0.136766
-0.000693
0.021574
-0.010281
0.039189
0.184360
0.007139
0.009353
0.021825
0.528345
0.221072
-0.217214
-0.221223
0.009244
0.295693
-0.279542
-0.313835
-0.326373
-0.057087
-0.167146
0.397698
-0.007087
0.354198
0.276377
0.284784
0.127432
0.030674
0.010623
-0.182223
0.320712
0.314666
0.269059
0.276424
-0.038760
-0.056585
-0.149839
-0.149466
0.272993
-0.237802
0.041740
0.039643
-0.097924
-0.117990
0.168020
0.046939
0.258941
0.175814
0.041181
0.179419
0.129414
0.014326
-0.132221
-0.129779
0.208874
0.180000
-0.089432
0.312006
0.235532
-0.206394
0.446509
-0.072675
-0.252244
0.351942
0.261179
0.071874
0.080759
-0.064232
-0.222105
0.374098
0.365008
0.373082
0.074778
0.187647
0.171366
-0.201800
-0.198965
0.264009
0.195469
-0.196557
-0.202303
0.399073
0.399352
0.184446
0.183385
0.129993
0.153712
0.374756
0.031705
0.041751
-0.072115
-0.142187
0.075296
-0.076964
0.072794
0.070289
0.136883
0.318902
-0.079782
0.375951
-0.193056
0.034998
0.407827
-0.189962
-0.150551
-0.179223
-0.095625
0.051711
0.065667
-0.081234
0.380663
-0.060337
0.118180
0.098229
0.061154
0.183642
0.011312
0.019014
0.197772
-0.167408
-0.175861
0.069148
0.110741
0.093679
-0.129040
-0.067461
-0.048258
-0.127122
-0.079179
0.086639
-0.078388
-0.048351
0.057720
0.146746
-0.086856
0.431761
0.381214
0.068811
-0.105829
-0.104828
0.074804
0.166869
0.153530
-0.064051
0.163839
-0.214226
-0.229791
0.165215
0.261208
0.260297
0.338328
0.387683
-0.100608
0.337133
-0.086466
0.020209
-0.090672
0.194807
0.049033
0.281585
-0.110966
0.225050
0.180488
0.175213
-0.244938
0.206821
-0.075980
-0.094386
0.120180
0.041467
-0.116772
0.142092
0.270242
0.023927
-0.084370
0.102743
SCALARS UY float 1
LOOKUP_TABLE default
-0.000009
-0.000010
-1.844995
-1.844997
-0.149515
-1.321930
-0.000002
-0.000003
-0.000003
-0.000003
-0.000003
-0.000003
-0.000003
-0.000003
-0.000003
-0.000003
-0.000003
-0.000003
-0.000003
-0.000003
-0.000004
-0.000002
-0.031832
-0.071323
-0.168750
-0.229107
-0.307854
-0.376516
-0.443013
-0.500163
-0.554146
-0.648386
-0.735562
-0.822726
-0.937216
-1.111605
-1.335049
-1.589702
-1.844997
-1.844996
-1.844997
-1.844997
-1.844997
-1.844997
-1.844997
-1.844997
-1.844997
-1.844997
-1.844997
-1.844997
-1.844997
-1.844997
-1.844997
-1.844997
-1.672834
-1.504465
-1.346668
-1.195279
-1.059211
-0.945825
-0.855430
-0.783014
-0.724855
-0.681391
-0.645563
-0.589432
-0.532076
-0.348475
-0.262060
-0.047614
-0.193660
-0.221694
-0.246578
-0.225768
-0.267870
-0.306108
-0.351947
-0.339342
-0.328661
-0.343165
-0.321064
-0.394412
-0.395118
-0.430185
-0.466496
-0.452732
-0.409902
-0.406215
-0.437780
-0.523646
-0.547274
-0.565787
-0.583335
-0.589691
-0.663880
-0.622301
-0.665460
-0.683689
-0.596525
-0.726096
-0.699339
-0.621997
-0.718957
-0.740552
-0.839375
-0.796609
-0.715977
-0.712441
-0.726227
-0.868489
-0.874373
-0.881970
-0.799159
-0.802965
-0.797989
-0.847469
-0.883466
-0.923114
-0.938294
-0.973662
-1.032854
-0.996489
-0.981150
-1.070868
-1.072624
-1.022347
-1.125037
-1.111660
-0.994607
-1.094719
-1.195085
-1.234178
-1.220768
-1.230493
-1.228810
-1.255364
-0.015071
-0.009015
-0.018069
-1.298670
-1.330354
-1.336635
-0.004659
-0.221275
-0.246229
-0.188780
-0.009846
-0.021163
-0.010666
-0.017785
-0.201600
-0.185116
-0.204740
-1.191541
-1.203766
-1.210730
-0.686445
-0.728621
-0.683463
-0.693532
-0.713983
-0.750288
-1.220185
-0.190784
-0.166260
-1.395592
-1.402704
-1.378965
-1.391552
-1.402754
-1.422418
-1.409519
-0.000747
-0.004334
-0.000282
-1.789595
-1.739419
-1.740847
-0.764875
-0.768136
-1.694512
-0.717600
-0.628324
-0.654313
-0.639689
-1.136214
-1.134090
-1.151700
-0.101074
-0.089130
-0.096710
-1.110500
-0.338182
-0.368689
-0.385646
-0.908651
-0.896162
-0.920334
-0.000254
-0.557005
-0.477616
-0.551486
-0.001548
-0.001059
-0.472718
-0.002102
-0.331272
-0.363083
-0.283139
-0.244316
-0.234852
-0.233011
-0.847569
-0.804012
-0.807561
-0.219489
-0.837974
-0.006580
-0.012945
-0.010941
-0.018185
-0.345500
-0.329668
-0.342792
-0.323363
-0.739541
-0.703913
-0.742843
-0.253078
-0.688757
-0.629523
-0.637545
-0.702900
-0.003995
-0.003406
-0.005831
-0.146178
-0.136364
-0.137785
-0.248535
-0.012337
-0.014031
-0.013444
-0.577377
-0.540873
-0.587812
-0.015204
-1.368073
-1.381405
-1.373653
-1.160706
-1.127776
-1.142302
-1.560099
-1.557965
-1.585659
-1.142541
-0.754593
-0.775910
-1.231465
-1.235519
-1.246973
-0.053275
-0.062091
-0.045912
-0.057854
-1.513967
-1.086906
-0.961239
-1.091561
-0.684816
-0.690053
-0.628875
-0.131669
-0.143155
-0.196672
-0.206147
-0.196120
-0.140106
-0.204674
-0.927557
-0.897725
-0.279419
-0.264370
-0.269205
-0.252953
-0.925847
-0.586261
-0.586974
-0.623122