# vtk DataFile Version 2.0
Test
ASCII
DATASET POLYDATA
POINTS 1818 float
0.000000 0.000000 0.000000
1.000000 0.000000 0.000000
1.000000 1.000000 0.000000
0.000000 1.000000 0.000000
0.300000 0.330000 0.000000
0.700000 0.680000 0.000000
0.058824 0.000000 0.000000
0.117647 0.000000 0.000000
0.176471 0.000000 0.000000
0.235294 0.000000 0.000000
0.294118 0.000000 0.000000
0.352941 0.000000 0.000000
0.411765 0.000000 0.000000
0.470588 0.000000 0.000000
0.529412 0.000000 0.000000
0.588235 0.000000 0.000000
0.647059 0.000000 0.000000
0.705882 0.000000 0.000000
0.764706 0.000000 0.000000
0.823529 0.000000 0.000000
0.882353 0.000000 0.000000
0.941176 0.000000 0.000000
1.000000 0.058824 0.000000
1.000000 0.117647 0.000000
1.000000 0.176471 0.000000
1.000000 0.235294 0.000000
1.000000 0.294118 0.000000
1.000000 0.352941 0.000000
1.000000 0.411765 0.000000
1.000000 0.470588 0.000000
1.000000 0.529412 0.000000
1.000000 0.588235 0.000000
1.000000 0.647059 0.000000
1.000000 0.705882 0.000000
1.000000 0.764706 0.000000
1.000000 0.823529 0.000000
1.000000 0.882353 0.000000
1.000000 0.941176 0.000000
0.941176 1.000000 0.000000
0.882353 1.000000 0.000000
0.823529 1.000000 0.000000
0.764706 1.000000 0.000000
0.705882 1.000000 0.000000
0.647059 1.000000 0.000000
0.588235 1.000000 0.000000
0.529412 1.000000 0.000000
0.470588 1.000000 0.000000
0.411765 1.000000 0.000000
0.352941 1.000000 0.000000
0.294118 1.000000 0.000000
0.235294 1.000000 0.000000
0.176471 1.000000 0.000000
0.117647 1.000000 0.000000
0.058824 1.000000 0.000000
0.000000 0.941176 0.000000
0.000000 0.882353 0.000000
0.000000 0.823529 0.000000
0.000000 0.764706 0.000000
0.000000 0.705882 0.000000
0.000000 0.647059 0.000000
0.000000 0.588235 0.000000
0.000000 0.529412 0.000000
0.000000 0.470588 0.000000
0.000000 0.411765 0.000000
0.000000 0.352941 0.000000
0.000000 0.294118 0.000000
0.000000 0.235294 0.000000
0.000000 0.176471 0.000000
0.000000 0.117647 0.000000
0.000000 0.058824 0.000000
0.305970 0.335224 0.000000
0.311940 0.340448 0.000000
0.317910 0.345672 0.000000
0.323881 0.350896 0.000000
0.329851 0.356119 0.000000
0.335821 0.361343 0.000000
0.341791 0.366567 0.000000
0.347761 0.371791 0.000000
0.353731 0.377015 0.000000
0.359701 0.382239 0.000000
0.365672 0.387463 0.000000
0.371642 0.392687 0.000000
0.377612 0.397910 0.000000
0.383582 0.403134 0.000000
0.389552 0.408358 0.000000
0.395522 0.413582 0.000000
0.401493 0.418806 0.000000
0.407463 0.424030 0.000000
0.413433 0.429254 0.000000
0.419403 0.434478 0.000000
0.425373 0.439701 0.000000
0.431343 0.444925 0.000000
0.437313 0.450149 0.000000
0.443284 0.455373 0.000000
0.449254 0.460597 0.000000
0.455224 0.465821 0.000000
0.461194 0.471045 0.000000
0.467164 0.476269 0.000000
0.473134 0.481493 0.000000
0.479104 0.486716 0.000000
0.485075 0.491940 0.000000
0.491045 0.497164 0.000000
0.497015 0.502388 0.000000
0.502985 0.507612 0.000000
0.508955 0.512836 0.000000
0.514925 0.518060 0.000000
0.520896 0.523284 0.000000
0.526866 0.528507 0.000000
0.532836 0.533731 0.000000
0.538806 0.538955 0.000000
0.544776 0.544179 0.000000
0.550746 0.549403 0.000000
0.556716 0.554627 0.000000
0.562687 0.559851 0.000000
0.568657 0.565075 0.000000
0.574627 0.570299 0.000000
0.580597 0.575522 0.000000
0.586567 0.580746 0.000000
0.592537 0.585970 0.000000
0.598507 0.591194 0.000000
0.604478 0.596418 0.000000
0.610448 0.601642 0.000000
0.616418 0.606866 0.000000
0.622388 0.612090 0.000000
0.628358 0.617313 0.000000
0.634328 0.622537 0.000000
0.640299 0.627761 0.000000
0.646269 0.632985 0.000000
0.652239 0.638209 0.000000
0.658209 0.643433 0.000000
0.664179 0.648657 0.000000
0.670149 0.653881 0.000000
0.676119 0.659104 0.000000
0.682090 0.664328 0.000000
0.688060 0.669552 0.000000
0.694030 0.674776 0.000000
0.516135 0.080917 0.000000
0.549338 0.042552 0.000000
0.567302 0.088709 0.000000
0.555658 0.563778 0.000000
0.559301 0.571359 0.000000
0.552318 0.570919 0.000000
0.603235 0.047100 0.000000
0.446553 0.448087 0.000000
0.438652 0.443189 0.000000
0.445116 0.440368 0.000000
0.437254 0.190586 0.000000
0.465954 0.201747 0.000000
0.439184 0.213838 0.000000
0.453137 0.228102 0.000000
0.522423 0.410182 0.000000
0.522098 0.390982 0.000000
0.537289 0.398500 0.000000
0.453388 0.527105 0.000000
0.462022 0.524948 0.000000
0.461218 0.533993 0.000000
0.324300 0.374550 0.000000
0.319287 0.386214 0.000000
0.314834 0.375138 0.000000
0.668809 0.628853 0.000000
0.677366 0.632907 0.000000
0.668274 0.639611 0.000000
0.469934 0.529282 0.000000
0.439703 0.436699 0.000000
0.446608 0.432083 0.000000
0.542854 0.633425 0.000000
0.535117 0.647070 0.000000
0.524302 0.633157 0.000000
0.519372 0.648877 0.000000
0.586338 0.611293 0.000000
0.591638 0.624149 0.000000
0.575478 0.621479 0.000000
0.437962 0.035513 0.000000
0.421505 0.085456 0.000000
0.394924 0.044162 0.000000
0.445207 0.955749 0.000000
0.429168 0.919510 0.000000
0.464409 0.914226 0.000000
0.317150 0.400904 0.000000
0.328626 0.395860 0.000000
0.439616 0.884412 0.000000
0.330406 0.381773 0.000000
0.676842 0.602700 0.000000
0.674982 0.614185 0.000000
0.665930 0.611798 0.000000
0.414707 0.535036 0.000000
0.420123 0.526072 0.000000
0.425338 0.533771 0.000000
0.398407 0.375558 0.000000
0.393804 0.363255 0.000000
0.407284 0.365452 0.000000
0.407758 0.523337 0.000000
0.899969 0.377867 0.000000
0.945915 0.378245 0.000000
0.914158 0.409130 0.000000
0.358219 0.436142 0.000000
0.361390 0.425428 0.000000
0.369309 0.432300 0.000000
0.465999 0.075074 0.000000
0.269944 0.367761 0.000000
0.266521 0.352125 0.000000
0.283474 0.357667 0.000000
0.385889 0.083020 0.000000
0.359482 0.060981 0.000000
0.279658 0.346766 0.000000
0.363604 0.104040 0.000000
0.511115 0.503731 0.000000
0.503243 0.499914 0.000000
0.509146 0.494910 0.000000
0.513188 0.475753 0.000000
0.504957 0.474656 0.000000
0.511959 0.464784 0.000000
0.311863 0.447505 0.000000
0.293019 0.442078 0.000000
0.305555 0.431691 0.000000
0.499204 0.464990 0.000000
0.293855 0.459576 0.000000
0.396676 0.236328 0.000000
0.371014 0.247362 0.000000
0.373003 0.229199 0.000000
0.384478 0.261522 0.000000
0.555704 0.523331 0.000000
0.551313 0.515879 0.000000
0.562752 0.515269 0.000000
0.554954 0.506854 0.000000
0.804236 0.611103 0.000000
0.819351 0.593503 0.000000
0.832061 0.615776 0.000000
0.509908 0.485173 0.000000
0.129738 0.481190 0.000000
0.110722 0.443736 0.000000
0.154857 0.452634 0.000000
0.089738 0.485299 0.000000
0.396427 0.153886 0.000000
0.393058 0.115469 0.000000
0.420333 0.126587 0.000000
0.442628 0.413512 0.000000
0.434815 0.404283 0.000000
0.446816 0.400259 0.000000
0.499770 0.482873 0.000000
0.353883 0.235057 0.000000
0.351360 0.254011 0.000000
0.332147 0.240870 0.000000
0.112307 0.405527 0.000000
0.140355 0.392788 0.000000
0.142004 0.423465 0.000000
0.334868 0.263052 0.000000
0.551239 0.594093 0.000000
0.560217 0.601969 0.000000
0.546711 0.604614 0.000000
0.398510 0.570197 0.000000
0.387124 0.557316 0.000000
0.399978 0.555748 0.000000
0.705281 0.743146 0.000000
0.722930 0.758853 0.000000
0.697202 0.758074 0.000000
0.380190 0.572638 0.000000
0.278345 0.431947 0.000000
0.292575 0.428097 0.000000
0.470820 0.540616 0.000000
0.478213 0.533042 0.000000
0.480161 0.543190 0.000000
0.415268 0.299334 0.000000
0.412465 0.313515 0.000000
0.400419 0.297680 0.000000
0.396495 0.317117 0.000000
0.718655 0.732879 0.000000
0.709319 0.677587 0.000000
0.715709 0.670111 0.000000
0.719283 0.682820 0.000000
0.212992 0.453899 0.000000
0.184619 0.470046 0.000000
0.186665 0.440862 0.000000
0.452307 0.386568 0.000000
0.460371 0.397715 0.000000
0.478664 0.456068 0.000000
0.476179 0.462123 0.000000
0.471250 0.456445 0.000000
0.464654 0.388544 0.000000
0.483415 0.461045 0.000000
0.357146 0.449596 0.000000
0.344653 0.443966 0.000000
0.554562 0.459423 0.000000
0.543333 0.457517 0.000000
0.553850 0.449505 0.000000
0.543131 0.445036 0.000000
0.347312 0.459318 0.000000
0.781088 0.538918 0.000000
0.810909 0.534152 0.000000
0.799399 0.553968 0.000000
0.402869 0.534333 0.000000
0.408011 0.546121 0.000000
0.703844 0.670118 0.000000
0.552234 0.794299 0.000000
0.528593 0.795589 0.000000
0.539188 0.770312 0.000000
0.596088 0.518714 0.000000
0.593029 0.508081 0.000000
0.604120 0.510731 0.000000
0.384880 0.468703 0.000000
0.382270 0.455963 0.000000
0.394062 0.458803 0.000000
0.374729 0.466839 0.000000
0.340939 0.294790 0.000000
0.324530 0.290188 0.000000
0.338473 0.279923 0.000000
0.465367 0.336545 0.000000
0.477337 0.352846 0.000000
0.459495 0.350024 0.000000
0.584947 0.516440 0.000000
0.326802 0.302636 0.000000
0.945343 0.420397 0.000000
0.779746 0.749037 0.000000
0.771533 0.774140 0.000000
0.758291 0.749848 0.000000
0.743435 0.765852 0.000000
0.751942 0.297541 0.000000
0.784264 0.292048 0.000000
0.772562 0.330207 0.000000
0.812744 0.305799 0.000000
0.655547 0.494535 0.000000
0.649767 0.472522 0.000000
0.671966 0.480244 0.000000
0.612062 0.502007 0.000000
0.616789 0.515227 0.000000
0.403059 0.898561 0.000000
0.391512 0.946883 0.000000
0.625780 0.504699 0.000000
0.635988 0.491275 0.000000
0.596252 0.650380 0.000000
0.583401 0.655132 0.000000
0.583737 0.644777 0.000000
0.713099 0.416502 0.000000
0.708474 0.388943 0.000000
0.733625 0.389568 0.000000
0.684835 0.406222 0.000000
0.656936 0.416423 0.000000
0.633624 0.425116 0.000000
0.634362 0.400237 0.000000
0.646884 0.740682 0.000000
0.654954 0.726002 0.000000
0.663305 0.741855 0.000000
0.732481 0.441235 0.000000
0.751303 0.460839 0.000000
0.721338 0.462235 0.000000
0.759622 0.437863 0.000000
0.462761 0.363156 0.000000
0.373644 0.622389 0.000000
0.346217 0.613642 0.000000
0.370315 0.594521 0.000000
0.351411 0.640635 0.000000
0.695337 0.690220 0.000000
0.705202 0.700133 0.000000
0.692303 0.700990 0.000000
0.521365 0.516400 0.000000
0.522992 0.510597 0.000000
0.527633 0.513574 0.000000
0.291567 0.329512 0.000000
0.294927 0.318154 0.000000
0.365771 0.366553 0.000000
0.366135 0.358691 0.000000
0.374180 0.368122 0.000000
0.408232 0.327056 0.000000
0.423479 0.328280 0.000000
0.411272 0.339740 0.000000
0.664110 0.670607 0.000000
0.667245 0.662649 0.000000
[...]
POINT_DATA 1818
SCALARS UX float 1
LOOKUP_TABLE default
-0.000005
0.000004
0.175125
-0.589718
0.020561
0.164213
0.000001
-0.000001
-0.000000
-0.000000
-0.000000
-0.000000
-0.000000
-0.000000
-0.000000
0.000000
0.000000
0.000000
0.000000
0.000000
0.000001
-0.000000
0.018365
0.048810
0.092018
0.125671
0.149595
0.173998
0.197965
0.221761
0.247789
0.274533
0.304214
0.344456
0.400112
0.443219
0.347390
0.223364
0.062966
-0.005277
-0.036727
-0.060451
-0.083515
-0.107156
-0.132408
-0.163323
-0.205847
-0.259760
-0.319396
-0.379500
-0.436290
-0.486294
-0.527560
-0.559159
-0.586576
-0.575887
-0.558224
-0.536345
-0.507958
-0.472009
-0.431891
-0.390788
-0.354397
-0.327650
-0.319142
-0.332448
-0.401686
-0.470113
-0.184779
-0.053299
-0.002164
0.015878
0.041995
-0.027357
-0.017902
-0.036245
-0.034293
-0.044417
-0.063004
-0.053095
-0.045382
-0.043654
-0.047604
-0.051378
-0.055745
-0.072457
-0.054945
-0.050851
-0.061167
-0.055234
-0.030633
-0.078686
-0.080652
-0.080667
-0.063030
-0.066897
-0.043168
-0.008947
-0.019801
-0.020464
0.004293
0.028388
-0.062697
0.004938
-0.031483
-0.052412
0.009290
-0.017704
-0.017155
-0.006149
-0.010545
-0.025696
-0.030038
0.075120
-0.068900
-0.036706
-0.035947
-0.038509
-0.001527
0.039154
0.013244
0.013813
-0.085615
-0.070132
-0.049293
-0.010257
-0.001769
0.003121
0.031976
0.006974
-0.047928
-0.020520
0.012606
0.044353
0.084313
0.105276
0.004680
0.002071
0.006906
-0.068992
-0.068808
-0.036132
0.003526
-0.078679
-0.076642
-0.063736
0.011060
0.015087
0.013126
0.015844
0.015913
0.020588
0.024567
-0.149930
-0.139580
-0.149264
-0.017853
-0.070671
-0.012050
0.063015
0.065376
-0.039814
-0.135660
-0.061035
-0.042254
-0.155378
-0.169324
-0.169694
-0.182913
-0.084121
-0.129316
-0.121420
-0.000990
0.001833
-0.001480
-0.231471
-0.252803
-0.222297
-0.028256
-0.071970
-0.253140
-0.037221
0.093832
0.083918
0.070651
-0.182978
-0.171796
-0.174564
-0.029958
-0.021124
-0.017845
-0.178098
0.152371
0.166725
0.168391
-0.111471
-0.104417
-0.102288
0.000780
-0.068945
-0.045823
-0.006524
0.001510
-0.001465
-0.034088
-0.000294
-0.033237
-0.021563
-0.050383
-0.005225
-0.007594
-0.006450
-0.171859
-0.198360
-0.160435
-0.011354
-0.212827
0.006536
0.002400
0.004489
0.003525
0.015631
0.010100
0.017446
0.012260
0.195082
0.203566
0.223077
-0.017828
-0.312933
-0.297268
-0.287059
-0.327365
0.002567
0.000904
0.001657
-0.024175
-0.023595
-0.014343
-0.031089
0.002377
-0.001207
-0.000047
-0.281619
-0.264331
-0.275746
-0.005535
-0.112396
-0.110739
-0.129941
-0.222735
-0.221903
-0.210581
-0.026753
-0.005496
-0.042897
-0.238894
-0.205895
-0.183835
-0.145161
-0.128992
-0.136042
0.005359
0.002263
0.002362
-0.002372
0.006726
0.193744
0.147620
0.172867
-0.265593
-0.288278
-0.266610
-0.006522
-0.007017
-0.031279
-0.032625
-0.041201
-0.001949
-0.025075
-0.120120
-0.123637
0.021560
0.016607
0.022644
0.017566
-0.148786
0.154262
0.172192
0.171326
-0.191182
-0.196878
0.126594
-0.178260
-0.198548
-0.193505
0.042772
0.038296
0.046283
-0.134799
-0.109011
-0.092147
-0.136388
-0.013379
-0.016416
-0.009672
0.012536
0.012969
0.007426
0.033196
-0.019866
0.183063
0.167806
0.079585
0.089278
0.026285
0.085841
0.092507
0.100447
0.105086
0.071693
0.066805
0.079220
0.049474
0.055077
-0.282304
-0.283919
0.057671
0.060986
-0.107668
-0.128367
-0.127335
0.095976
0.091116
0.100845
0.082872
0.070756
0.059953
0.061716
-0.092144
-0.076440
-0.077021
0.107960
0.120333
0.104699
0.120153
0.005092
-0.276694
-0.289850
-0.261529
-0.300928
0.081733
0.060231
0.023667
-0.032477
-0.017891
-0.021229
-0.003847
-0.001748
-0.051910
-0.041584
-0.045402
-0.001882
0.001779
-0.004919
-0.002361
-0.009638
0.033176
-0.160255
-0.190175
-0.179330
-0.207246
0.000494
-0.025524
-0.039337
-0.011069
0.045242
0.048248
0.046895
-0.027392
-0.015710
-0.020914
-0.048867
-0.049831
-0.070931
-0.167275
-0.182664
-0.170182
-0.052777
-0.052579
-0.053516
0.006363
-0.019825
0.002331
-0.039896
-0.027757
0.003153
-0.028099
-0.091788
-0.023842
-0.015914
-0.071475
-0.169785
-0.132553
-0.165964
-0.025324
-0.051544
-0.025274
-0.054666
-0.054337
-0.188741
0.031073
0.034254
-0.250115
-0.224502
-0.233187
-0.025285
-0.462368
-0.431282
-0.442424
-0.417337
-0.005262
-0.130074
-0.143959
-0.132247
-0.141157
-0.048506
-0.044539
0.086876
0.092000
0.070384
0.104326
-0.202373
-0.176470
-0.139947
-0.005875
-0.027145
-0.044558
0.007805
-0.009236
-0.020218
-0.007055
0.024541
-0.010516
0.008267
0.163483
0.191348
-0.041976
-0.114000
-0.109729
-0.098304
-0.076691
-0.066156
-0.118425
-0.038796
-0.024652
-0.197313
-0.175610
-0.187317
-0.074784
-0.072267
-0.002146
-0.000308
-0.017063
-0.014143
-0.011481
-0.018363
0.042137
0.035545
0.035281
-0.439737
-0.403300
-0.396997
-0.449805
-0.442087
-0.466143
-0.424348
-0.022706
-0.064955
-0.054456
-0.045309
-0.081489
-0.114994
-0.065774
-0.110814
-0.057007
-0.082930
-0.025885
-0.078058
-0.096183
-0.075894
-0.100179
-0.113564
-0.127045
-0.132718
-0.156456
-0.062591
-0.064448
-0.063817
0.049858
0.044232
0.049645
0.042910
0.127579
0.115706
0.118564
0.132039
0.141266
0.004893
-0.011275
-0.002501
-0.018389
-0.029256
-0.050476
-0.113072
-0.103357
-0.134761
-0.047611
-0.025157
-0.058972
-0.046825
-0.064210
-0.078443
0.000268
-0.001494
-0.007098
0.013858
0.022436
0.017350
-0.006506
-0.004784
-0.095597
0.026970
-0.415967
-0.405348
-0.421192
-0.397649
-0.401537
0.038681
0.038981
0.011639
0.014578
0.010061
0.017130
0.029888
-0.314807
-0.122788
-0.104018
-0.119805
-0.108622
-0.015880
-0.124746
-0.060283
0.028889
0.020251
0.048158
-0.000985
0.027854
0.025370
0.014004
0.020257
-0.052256
-0.022181
-0.049288
-0.109627
-0.107567
-0.111131
-0.127088
-0.142303
-0.422197
0.035193
0.037359
0.031035
-0.015516
-0.007303
-0.233998
-0.217864
-0.212175
-0.001552
0.035493
-0.221731
-0.244589
-0.230959
-0.100822
-0.060590
-0.031275
0.022501
-0.008701
-0.030878
-0.022194
-0.025970
0.004566
-0.024056
-0.042530
-0.050816
-0.018734
-0.020192
-0.012539
-0.278710
-0.261981
-0.276702
-0.006608
0.017274
0.019114
0.013205
-0.295442
-0.312578
-0.293651
-0.002286
0.001369
-0.037678
-0.005486
-0.010975
-0.007830
-0.455532
-0.399501
-0.004076
-0.140629
-0.166624
0.004011
0.022373
0.027677
-0.428911
0.027692
0.010863
-0.155860
-0.163486
0.113761
0.125967
0.121110
-0.156452
0.002985
0.003471
0.076174
-0.158827
-0.148142
-0.162176
-0.038876
-0.062936
-0.007773
-0.150263
-0.013734
-0.014763
-0.136500
-0.155448
-0.154856
-0.141239
-0.171424
0.166690
0.150799
0.150258
-0.031642
-0.037234
-0.063827
-0.266390
-0.250990
-0.237367
-0.001735
0.003703
-0.016356
-0.029934
-0.017846
-0.023360
0.009617
-0.099693
-0.060156
-0.000971
-0.032175
0.035387
0.215610
0.238266
0.225230
0.199913
0.248828
0.042125
0.038480
0.049923
-0.048829
-0.043951
-0.003088
0.002831
-0.001586
-0.024868
-0.037291
-0.140666
-0.132805
-0.007143
-0.014784
-0.001096
-0.172352
-0.192014
-0.158809
-0.168118
-0.163359
-0.175174
-0.032484
0.117992
0.106420
0.117562
-0.169744
0.007684
0.143729
0.066971
0.063674
-0.016003
0.001791
-0.021281
0.006680
-0.023206
0.009876
-0.034903
-0.029483
-0.031892
-0.040427
-0.022984
-0.376127
-0.384072
0.012318
0.017897
-0.025344
-0.006989
-0.002440
-0.089217
-0.384916
-0.106365
-0.354075
-0.367313
-0.350376
-0.107074
0.112295
0.104713
0.098655
0.095716
0.006156
0.007041
-0.153711
-0.134976
-0.140008
0.091045
0.091076
0.084658
0.082578
0.083221
0.094664
-0.393963
-0.384475
0.126292
-0.535564
-0.499300
-0.534997
0.156154
0.163458
0.148700
-0.182072
-0.205743
-0.174017
0.167984
0.158660
0.070122
0.043676
0.046695
0.026693
-0.217765
0.036062
0.028600
0.031600
0.218592
0.203574
0.231026
-0.464340
-0.495966
-0.496929
0.223273
-0.014976
-0.005592
-0.009553
-0.134117
-0.162887
-0.324076
0.011585
0.006661
0.019103
0.290214
0.267916
0.293654
0.271737
0.335725
0.315846
0.352292
-0.151916
-0.145856
-0.307656
-0.324626
-0.296322
-0.158839
0.054536
0.011121
-0.286339
-0.271095
-0.288897
-0.242387
-0.226546
-0.306128
0.051227
0.017171
-0.346145
0.002883
-0.338734
-0.313374
-0.313028
0.215424
0.245490
-0.084882
-0.084816
-0.066587
0.006825
-0.024179
0.041166
-0.042195
-0.068157
-0.014539
-0.008711
-0.006483
-0.025914
-0.179968
-0.241454
-0.101588
-0.260755
-0.278703
-0.257511
-0.342830
-0.320012
-0.000352
0.003878
-0.001486
0.000113
-0.002057
-0.095009
-0.074316
-0.094391
-0.298637
-0.000882
-0.001025
-0.015106
-0.061767
-0.036127
0.261880
0.244592
-0.278215
0.149151
0.134883
0.135025
0.156959
-0.325487
-0.303876
-0.308096
0.175437
0.005731
0.246558
-0.036172
0.011787
0.014627
0.011626
-0.059325
0.004792
0.007033
-0.139925
-0.122174
-0.123857
0.231643
0.168865
-0.008729
-0.286127
-0.282607
-0.101809
-0.099865
0.062765
0.075926
0.067307
0.078608
-0.107222
-0.128899
-0.314647
-0.199144
-0.000214
-0.001233
0.031758
0.028840
0.019116
-0.002776
-0.012061
-0.374596
-0.369200
-0.395550
-0.354262
-0.186456
-0.329255
-0.350778
-0.350109
-0.327802
-0.309994
-0.162832
-0.148198
-0.312534
-0.292808
-0.146454
-0.010735
-0.001486
-0.168938
-0.145004
-0.442467
-0.461045
-0.401343
-0.000432
-0.000754
0.008022
-0.188142
-0.197081
-0.009204
-0.009344
-0.292773
-0.288344
-0.272224
-0.217480
-0.196248
-0.207735
-0.000207
0.050088
-0.349289
0.007024
0.041744
0.034534
-0.231945
-0.322175
-0.329784
-0.338520
-0.238079
-0.265150
0.088983
0.078141
-0.326881
-0.344355
-0.344101
-0.361879
0.042471
0.037597
-0.177273
0.115475
-0.060843
-0.049612
0.033121
0.036932
0.030545
-0.058640
0.029025
-0.310447
-0.225983
-0.238649
-0.243248
-0.262230
-0.293136
-0.313395
-0.304988
0.000322
-0.007847
-0.330105
-0.019776
0.076797
0.073878
-0.365742
-0.340273
-0.368288
-0.167648
-0.188198
-0.171865
-0.171956
0.198073
0.221611
0.204308
0.184796
0.189620
-0.206740
-0.211493
-0.314523
-0.301345
-0.334085
-0.052192
0.283356
0.138046
0.317111
-0.356112
-0.378428
-0.376538
-0.380709
-0.356654
-0.220181
-0.263339
-0.364897
0.020326
0.012681
0.025407
-0.091307
-0.018158
-0.131997
0.115924
0.117935
0.122932
-0.015704
0.189216
0.183351
-0.255207
-0.157239
-0.052361
-0.503846
-0.530299
-0.170722
-0.183169
0.060172
0.055065
0.052143
-0.014010
-0.009763
0.067222
-0.005585
0.072871
-0.166391
-0.210243
0.134362
0.132892
0.080203
0.052433
-0.012108
0.175785
0.195968
0.204149
0.179900
-0.109160
-0.108889
-0.092932
-0.092756
0.032233
-0.138614
-0.153760
0.021110
-0.433964
-0.386610
-0.406826
-0.171829
-0.157407
0.034457
0.039691
-0.186349
-0.197307
-0.182151
-0.007375
-0.008767
-0.000365
-0.203310
-0.185244
-0.199125
-0.256989
0.128190
0.137116
0.142642
-0.144497
-0.195343
-0.201956
0.003863
0.002767
0.006942
-0.223821
-0.252826
0.004072
-0.228427
-0.135145
-0.242704
-0.247218
0.222987
-0.018439
0.114070
0.103030
-0.212642
-0.213971
-0.076069
-0.090132
0.002688
-0.372849
-0.080806
-0.186271
-0.215602
-0.182056
-0.159756
-0.175285
-0.168066
0.089418
0.085966
0.089489
0.100814
0.025983
0.036354
0.030691
0.049241
-0.100178
-0.216142
-0.201731
-0.128339
-0.098951
0.100356
0.120503
0.049126
0.381061
0.283843
0.215039
0.032957
0.024202
-0.130287
-0.165300
-0.149453
-0.075259
-0.235462
-0.016777
-0.010942
-0.020908
-0.125418
-0.025391
0.025468
0.027567
0.001144
0.007560
0.013406
0.009666
0.126125
0.019884
0.016330
0.010945
-0.014245
0.031994
0.002926
0.000189
0.170399
-0.321574
-0.341534
-0.315014
-0.345325
-0.364601
0.155403
0.112001
0.121442
0.102012
0.092775
0.083197
-0.228819
-0.016673
0.008215
0.011834
0.014513
0.001624
0.009929
0.004025
0.223137
0.240084
0.136292
-0.278021
-0.252961
-0.125130
-0.120230
0.064237
0.123298
0.109666
0.112177
-0.147218
-0.148356
-0.027795
-0.021935
-0.076529
-0.215408
-0.194500
-0.067999
-0.241390
0.048579
0.044861
0.038856
-0.060195
-0.036776
0.116868
0.100811
-0.303648
-0.297167
-0.285054
-0.275318
-0.308323
-0.323974
0.056563
0.048888
-0.246759
0.058343
0.050830
0.054342
0.247702
0.264461
0.041289
-0.052739
-0.059107
-0.075734
-0.118204
-0.224193
0.008195
0.000337
0.005912
-0.206162
-0.191251
0.125071
0.068724
0.060440
0.060656
0.064123
-0.103997
-0.157667
-0.171441
0.009722
0.046669
0.032261
-0.066880
-0.054298
0.008776
-0.105439
0.002138
0.001145
0.000792
-0.059206
0.003236
0.010237
0.001404
-0.147440
-0.053512
0.002722
0.125149
0.139289
0.138621
0.095557
0.125493
0.261764
-0.113528
-0.144494
-0.228635
-0.250791
-0.233266
-0.238272
-0.260555
-0.130681
0.021786
0.078838
-0.039795
-0.101359
-0.096966
0.106372
0.109105
0.073453
0.043854
0.033580
0.046950
0.011674
-0.003931
0.019649
-0.164901
0.113065
0.109966
0.081710
0.064932
-0.138522
-0.349613
-0.091009
0.090261
0.083977
0.057816
0.049972
0.057685
0.064461
0.089761
0.358011
0.003794
-0.005164
-0.025707
-0.004847
0.007903
-0.077045
-0.116192
0.279733
0.032396
-0.071081
0.027553
0.077739
-0.157546
-0.180497
-0.209276
-0.216005
-0.200912
-0.298628
0.049685
0.038355
-0.049158
-0.036463
-0.039281
-0.289328
-0.145137
-0.300879
0.051657
0.054836
0.042169
0.058466
0.068089
-0.160162
0.000612
-0.002828
-0.002885
-0.156962
-0.121107
-0.037006
-0.030572
-0.071430
0.013234
-0.064039
-0.006430
-0.233329
-0.043727
-0.003265
-0.040861
-0.045274
-0.034093
-0.059995
0.022559
0.018565
0.023266
-0.059193
-0.027833
0.082604
0.091299
-0.265295
-0.287506
-0.253967
-0.023109
-0.041941
0.095567
0.085419
0.023350
-0.035070
-0.046067
-0.100270
-0.207106
-0.218430
-0.022354
-0.001379
0.164119
0.179526
-0.036956
-0.020190
0.005533
-0.040666
-0.048495
-0.007737
-0.025403
-0.004478
0.177365
-0.048573
-0.063499
-0.080054
0.069374
-0.022517
-0.018457
0.206732
-0.021078
-0.003947
-0.014439
-0.321746
-0.335392
-0.075397
-0.086413
-0.051769
-0.106383
-0.061703
0.182824
-0.104981
-0.026502
-0.090733
0.095713
-0.097025
-0.019807
-0.023707
-0.108251
-0.029656
-0.035559
-0.017129
-0.019890
-0.089918
0.019254
0.022038
0.045704
0.046004
0.040030
-0.051535
-0.416067
-0.069858
-0.037843
-0.046115
-0.040695
-0.116493
-0.119944
0.013564
0.019024
0.046960
-0.020022
-0.007105
0.046104
-0.052047
-0.030113
-0.024532
-0.028009
-0.020285
-0.125981
-0.061782
-0.047266
0.051812
0.061477
0.065136
-0.125955
-0.141591
-0.024781
-0.100196
-0.092387
0.027135
0.023266
0.082127
0.027239
-0.062171
-0.083150
-0.109575
-0.231870
-0.013950
-0.051792
-0.012145
-0.015521
-0.250217
-0.247980
0.025230
-0.052810
-0.042901
-0.154112
0.005092
0.000606
0.008254
-0.219388
-0.232717
0.042991
-0.146280
-0.079233
-0.303099
-0.266989
-0.257220
-0.143928
-0.045610
-0.006443
0.018644
0.024032
0.026080
-0.241275
-0.255167
-0.037122
-0.031163
-0.221252
-0.237051
-0.239080
-0.140649
-0.137292
0.018034
-0.221649
0.076698
0.074117
0.014468
-0.149627
-0.162151
-0.102753
-0.081827
-0.079863
-0.035751
-0.037294
-0.021302
-0.070201
-0.276817
-0.275380
-0.174718
-0.039770
-0.009278
0.019544
-0.023284
-0.162235
0.005157
0.004445
-0.021226
-0.059317
-0.034420
-0.045969
-0.096355
-0.055567
-0.018598
-0.000390
-0.007615
0.049384
-0.044216
0.028652
-0.066646
0.133856
0.133809
-0.159893
-0.146075
-0.072373
-0.075169
-0.093684
-0.108029
0.060459
0.071558
0.016287
-0.097643
0.043650
-0.034495
0.074031
0.057895
0.053193
-0.046671
0.079695
0.037860
-0.047565
0.011796
0.008414
-0.025110
0.035393
-0.474779
-0.447061
-0.473204
-0.144714
0.136287
0.050891
0.054940
0.043896
0.017905
-0.309124
0.146379
-0.150047
-0.130364
-0.108227
0.018826
0.027975
0.021988
0.024284
0.014651
-0.126912
-0.147291
-0.530081
-0.006112
0.116713
0.174281
-0.559097
-0.561845
-0.135456
0.009734
0.025777
0.008233
0.048081
0.139531
0.115044
0.031246
-0.014744
0.108609
-0.089304
-0.055861
0.009003
0.037653
-0.016587
0.005617
0.123954
0.001496
-0.114567
-0.204293
-0.219470
0.309178
0.280713
0.011993
0.114289
-0.247077
-0.254291
-0.267352
-0.027710
-0.024922
-0.019098
-0.009853
-0.142503
0.009573
0.103689
0.053294
-0.035081
-0.257031
-0.341701
-0.018880
0.260178
0.350856
0.311121
-0.334540
-0.352322
-0.299476
0.107719
0.101777
-0.272587
-0.074344
0.027578
0.024031
-0.141405
0.025229
-0.091250
-0.110341
0.113014
0.156699
0.045761
-0.000672
-0.019135
-0.370245
0.004083
0.021805
0.024252
-0.126385
0.293272
-0.462398
-0.008006
-0.017812
-0.261094
0.070333
0.041680
0.024807
-0.198835
0.031700
0.029530
-0.232968
0.094780
-0.219717
-0.035835
-0.057416
0.007412
-0.056752
0.021338
-0.202575
-0.050229
-0.000806
0.001097
-0.200179
0.204981
0.092162
-0.057202
-0.011058
-0.002190
0.092228
-0.475807
-0.508311
-0.479518
-0.122120
-0.144777
0.056995
-0.327709
0.059957
0.087135
0.082174
-0.034919
-0.313140
-0.342234
-0.030085
0.128763
0.122779
-0.012126
-0.007683
-0.011704
-0.044290
-0.250777
-0.271552
0.000528
-0.051012
-0.029796
-0.015501
-0.204772
-0.388533
0.072907
0.046652
0.049202
0.080980
-0.018640
0.106576
0.093126
-0.009598
-0.083148
-0.121585
0.080864
0.067785
-0.130221
0.024958
0.048319
-0.123788
0.205631
-0.001103
-0.085337
0.055960
0.078143
-0.109824
-0.120048
-0.187391
-0.108324
0.047710
0.054787
0.058604
-0.018379
0.024430
-0.065581
-0.044223
-0.125284
0.131349
0.006703
-0.032068
-0.071252
0.040088
0.064763
-0.053747
-0.040102
-0.024864
0.090333
0.148329
0.023448
-0.003183
-0.028158
-0.286816
0.072092
-0.155069
-0.027794
-0.018645
-0.014246
-0.031707
-0.205043
0.023415
-0.067979
0.021195
0.055300
-0.109917
-0.082322
-0.045113
-0.190390
-0.097589
-0.094750
-0.188030
0.037540
-0.036947
-0.016998
-0.055129
-0.047502
-0.010034
-0.043771
-0.014471
0.013623
-0.042262
-0.048786
-0.037133
-0.001488
-0.050263
-0.068726
-0.027806
-0.005770
-0.009100
0.015211
-0.060790
-0.037318
-0.014836
-0.065071
-0.017608
-0.119536
0.069941
0.188403
-0.053457
-0.063720
-0.056434
-0.065333
-0.027512
0.004970
0.033281
-0.078213
-0.039047
-0.040377
-0.056906
0.001023
0.023853
0.024694
0.073951
-0.177293
-0.033288
-0.143052
-0.017709
-0.152621
0.065541
0.000963
-0.004148
-0.185262
-0.027033
-0.023993
-0.029903
-0.023668
-0.008489
-0.001032
-0.011837
-0.020495
-0.022802
-0.170207
-0.034921
0.027279
-0.080940
-0.070848
-0.034594
SCALARS UY float 1
LOOKUP_TABLE default
-0.000006
-0.000006
-1.459997
-1.459998
-0.176130
-0.657195
-0.000001
-0.000002
-0.000002
-0.000002
-0.000002
-0.000002
-0.000002
-0.000002
-0.000002
-0.000002
-0.000002
-0.000002
-0.000002
-0.000002
-0.000002
-0.000001
-0.012190
-0.021149
-0.058578
-0.098774
-0.143876
-0.188946
-0.235177
-0.281186
-0.324889
-0.363526
-0.398816
-0.431049
-0.438497
-0.557449
-0.865250
-1.146436
-1.459998
-1.459998
-1.459998
-1.459998
-1.459998
-1.459998
-1.459998
-1.459998
-1.459998
-1.459998
-1.459998
-1.459998
-1.459998
-1.459998
-1.459998
-1.459998
-1.396021
-1.329993
-1.261433
-1.195148
-1.127715
-1.061795
-0.998645
-0.935361
-0.871816
-0.806615
-0.747665
-0.700320
-0.639608
-0.541652
-0.210687
-0.101441
-0.161147
-0.164659
-0.176330
-0.204379
-0.215352
-0.217539
-0.222753
-0.225011
-0.225028
-0.226181
-0.245790
-0.257624
-0.271740
-0.283088
-0.296118
-0.292206
-0.304200
-0.295275
-0.274792
-0.251972
-0.230683
-0.340288
-0.335456
-0.335340
-0.343959
-0.339998
-0.336665
-0.336132
-0.317964
-0.302496
-0.296672
-0.290757
-0.364678
-0.283457
-0.386674
-0.403074
-0.403317
-0.399635
-0.416910
-0.426940
-0.411564
-0.394510
-0.390037
-0.196212
-0.578712
-0.567265
-0.566041
-0.562074
-0.574770
-0.566031
-0.525963
-0.491170
-0.696994
-0.670240
-0.623564
-0.661607
-0.671127
-0.675737
-0.630838
-0.595111
-0.717408
-0.692076
-0.672509
-0.660482
-0.654843
-0.667193
-0.007112
-0.002586
-0.007584
-0.621074
-0.635387
-0.539365
-0.002741
-0.333025
-0.332263
-0.302352
-0.040913
-0.038928
-0.052503
-0.057142
-0.186299
-0.168421
-0.168267
-0.578352
-0.565518
-0.586924
-0.184219
-0.297957
-0.157956
-0.523424
-0.486949
-0.658927
-0.568868
-0.326051
-0.270772
-0.769297
-0.795424
-0.766225
-0.797436
-0.689974
-0.703603
-0.735859
-0.002442
-0.006923
-0.001925
-1.382380
-1.312920
-1.316038
-0.252833
-0.372165
-1.251177
-0.270660
-0.382844
-0.421055
-0.418993
-0.616433
-0.597542
-0.607825
-0.208423
-0.199026
-0.191195
-0.600076
-0.163286
-0.184683
-0.193290
-0.487020
-0.476580
-0.477641
-0.008629
-0.424873
-0.324328
-0.280144
-0.005352
-0.001977
-0.267882
-0.012464
-0.382740
-0.309683
-0.382932
-0.273040
-0.263450
-0.253105
-0.538868
-0.556015
-0.488379
-0.272812
-0.600030
-0.073009
-0.082371
-0.070166
-0.093034
-0.277286
-0.274419
-0.258813
-0.260903
-0.375488
-0.335615
-0.352302
-0.300582
-0.835334
-0.817012
-0.798775
-0.856120
-0.032433
-0.017347
-0.021958
-0.238277
-0.228533