# vtk DataFile Version 2.0
Test
ASCII
DATASET POLYDATA
POINTS 1818 float
0.000000 0.000000 0.000000
1.000000 0.000000 0.000000
1.000000 1.000000 0.000000
0.000000 1.000000 0.000000
0.300000 0.330000 0.000000
0.700000 0.680000 0.000000
0.058824 0.000000 0.000000
0.117647 0.000000 0.000000
0.176471 0.000000 0.000000
0.235294 0.000000 0.000000
0.294118 0.000000 0.000000
0.352941 0.000000 0.000000
0.411765 0.000000 0.000000
0.470588 0.000000 0.000000
0.529412 0.000000 0.000000
0.588235 0.000000 0.000000
0.647059 0.000000 0.000000
0.705882 0.000000 0.000000
0.764706 0.000000 0.000000
0.823529 0.000000 0.000000
0.882353 0.000000 0.000000
0.941176 0.000000 0.000000
1.000000 0.058824 0.000000
1.000000 0.117647 0.000000
1.000000 0.176471 0.000000
1.000000 0.235294 0.000000
1.000000 0.294118 0.000000
1.000000 0.352941 0.000000
1.000000 0.411765 0.000000
1.000000 0.470588 0.000000
1.000000 0.529412 0.000000
1.000000 0.588235 0.000000
1.000000 0.647059 0.000000
1.000000 0.705882 0.000000
1.000000 0.764706 0.000000
1.000000 0.823529 0.000000
1.000000 0.882353 0.000000
1.000000 0.941176 0.000000
0.941176 1.000000 0.000000
0.882353 1.000000 0.000000
0.823529 1.000000 0.000000
0.764706 1.000000 0.000000
0.705882 1.000000 0.000000
0.647059 1.000000 0.000000
0.588235 1.000000 0.000000
0.529412 1.000000 0.000000
0.470588 1.000000 0.000000
0.411765 1.000000 0.000000
0.352941 1.000000 0.000000
0.294118 1.000000 0.000000
0.235294 1.000000 0.000000
0.176471 1.000000 0.000000
0.117647 1.000000 0.000000
0.058824 1.000000 0.000000
0.000000 0.941176 0.000000
0.000000 0.882353 0.000000
0.000000 0.823529 0.000000
0.000000 0.764706 0.000000
0.000000 0.705882 0.000000
0.000000 0.647059 0.000000
0.000000 0.588235 0.000000
0.000000 0.529412 0.000000
0.000000 0.470588 0.000000
0.000000 0.411765 0.000000
0.000000 0.352941 0.000000
0.000000 0.294118 0.000000
0.000000 0.235294 0.000000
0.000000 0.176471 0.000000
0.000000 0.117647 0.000000
0.000000 0.058824 0.000000
0.305970 0.335224 0.000000
0.311940 0.340448 0.000000
0.317910 0.345672 0.000000
0.323881 0.350896 0.000000
0.329851 0.356119 0.000000
0.335821 0.361343 0.000000
0.341791 0.366567 0.000000
0.347761 0.371791 0.000000
0.353731 0.377015 0.000000
0.359701 0.382239 0.000000
0.365672 0.387463 0.000000
0.371642 0.392687 0.000000
0.377612 0.397910 0.000000
0.383582 0.403134 0.000000
0.389552 0.408358 0.000000
0.395522 0.413582 0.000000
0.401493 0.418806 0.000000
0.407463 0.424030 0.000000
0.413433 0.429254 0.000000
0.419403 0.434478 0.000000
0.425373 0.439701 0.000000
0.431343 0.444925 0.000000
0.437313 0.450149 0.000000
0.443284 0.455373 0.000000
0.449254 0.460597 0.000000
0.455224 0.465821 0.000000
0.461194 0.471045 0.000000
0.467164 0.476269 0.000000
0.473134 0.481493 0.000000
0.479104 0.486716 0.000000
0.485075 0.491940 0.000000
0.491045 0.497164 0.000000
0.497015 0.502388 0.000000
0.502985 0.507612 0.000000
0.508955 0.512836 0.000000
0.514925 0.518060 0.000000
0.520896 0.523284 0.000000
0.526866 0.528507 0.000000
0.532836 0.533731 0.000000
0.538806 0.538955 0.000000
0.544776 0.544179 0.000000
0.550746 0.549403 0.000000
0.556716 0.554627 0.000000
0.562687 0.559851 0.000000
0.568657 0.565075 0.000000
0.574627 0.570299 0.000000
0.580597 0.575522 0.000000
0.586567 0.580746 0.000000
0.592537 0.585970 0.000000
0.598507 0.591194 0.000000
0.604478 0.596418 0.000000
0.610448 0.601642 0.000000
0.616418 0.606866 0.000000
0.622388 0.612090 0.000000
0.628358 0.617313 0.000000
0.634328 0.622537 0.000000
0.640299 0.627761 0.000000
0.646269 0.632985 0.000000
0.652239 0.638209 0.000000
0.658209 0.643433 0.000000
0.664179 0.648657 0.000000
0.670149 0.653881 0.000000
0.676119 0.659104 0.000000
0.682090 0.664328 0.000000
0.688060 0.669552 0.000000
0.694030 0.674776 0.000000
0.516135 0.080917 0.000000
0.549338 0.042552 0.000000
0.567302 0.088709 0.000000
0.555658 0.563778 0.000000
0.559301 0.571359 0.000000
0.552318 0.570919 0.000000
0.603235 0.047100 0.000000
0.446553 0.448087 0.000000
0.438652 0.443189 0.000000
0.445116 0.440368 0.000000
0.437254 0.190586 0.000000
0.465954 0.201747 0.000000
0.439184 0.213838 0.000000
0.453137 0.228102 0.000000
0.522423 0.410182 0.000000
0.522098 0.390982 0.000000
0.537289 0.398500 0.000000
0.453388 0.527105 0.000000
0.462022 0.524948 0.000000
0.461218 0.533993 0.000000
0.324300 0.374550 0.000000
0.319287 0.386214 0.000000
0.314834 0.375138 0.000000
0.668809 0.628853 0.000000
0.677366 0.632907 0.000000
0.668274 0.639611 0.000000
0.469934 0.529282 0.000000
0.439703 0.436699 0.000000
0.446608 0.432083 0.000000
0.542854 0.633425 0.000000
0.535117 0.647070 0.000000
0.524302 0.633157 0.000000
0.519372 0.648877 0.000000
0.586338 0.611293 0.000000
0.591638 0.624149 0.000000
0.575478 0.621479 0.000000
0.437962 0.035513 0.000000
0.421505 0.085456 0.000000
0.394924 0.044162 0.000000
0.445207 0.955749 0.000000
0.429168 0.919510 0.000000
0.464409 0.914226 0.000000
0.317150 0.400904 0.000000
0.328626 0.395860 0.000000
0.439616 0.884412 0.000000
0.330406 0.381773 0.000000
0.676842 0.602700 0.000000
0.674982 0.614185 0.000000
0.665930 0.611798 0.000000
0.414707 0.535036 0.000000
0.420123 0.526072 0.000000
0.425338 0.533771 0.000000
0.398407 0.375558 0.000000
0.393804 0.363255 0.000000
0.407284 0.365452 0.000000
0.407758 0.523337 0.000000
0.899969 0.377867 0.000000
0.945915 0.378245 0.000000
0.914158 0.409130 0.000000
0.358219 0.436142 0.000000
0.361390 0.425428 0.000000
0.369309 0.432300 0.000000
0.465999 0.075074 0.000000
0.269944 0.367761 0.000000
0.266521 0.352125 0.000000
0.283474 0.357667 0.000000
0.385889 0.083020 0.000000
0.359482 0.060981 0.000000
0.279658 0.346766 0.000000
0.363604 0.104040 0.000000
0.511115 0.503731 0.000000
0.503243 0.499914 0.000000
0.509146 0.494910 0.000000
0.513188 0.475753 0.000000
0.504957 0.474656 0.000000
0.511959 0.464784 0.000000
0.311863 0.447505 0.000000
0.293019 0.442078 0.000000
0.305555 0.431691 0.000000
0.499204 0.464990 0.000000
0.293855 0.459576 0.000000
0.396676 0.236328 0.000000
0.371014 0.247362 0.000000
0.373003 0.229199 0.000000
0.384478 0.261522 0.000000
0.555704 0.523331 0.000000
0.551313 0.515879 0.000000
0.562752 0.515269 0.000000
0.554954 0.506854 0.000000
0.804236 0.611103 0.000000
0.819351 0.593503 0.000000
0.832061 0.615776 0.000000
0.509908 0.485173 0.000000
0.129738 0.481190 0.000000
0.110722 0.443736 0.000000
0.154857 0.452634 0.000000
0.089738 0.485299 0.000000
0.396427 0.153886 0.000000
0.393058 0.115469 0.000000
0.420333 0.126587 0.000000
0.442628 0.413512 0.000000
0.434815 0.404283 0.000000
0.446816 0.400259 0.000000
0.499770 0.482873 0.000000
0.353883 0.235057 0.000000
0.351360 0.254011 0.000000
0.332147 0.240870 0.000000
0.112307 0.405527 0.000000
0.140355 0.392788 0.000000
0.142004 0.423465 0.000000
0.334868 0.263052 0.000000
0.551239 0.594093 0.000000
0.560217 0.601969 0.000000
0.546711 0.604614 0.000000
0.398510 0.570197 0.000000
0.387124 0.557316 0.000000
0.399978 0.555748 0.000000
0.705281 0.743146 0.000000
0.722930 0.758853 0.000000
0.697202 0.758074 0.000000
0.380190 0.572638 0.000000
0.278345 0.431947 0.000000
0.292575 0.428097 0.000000
0.470820 0.540616 0.000000
0.478213 0.533042 0.000000
0.480161 0.543190 0.000000
0.415268 0.299334 0.000000
0.412465 0.313515 0.000000
0.400419 0.297680 0.000000
0.396495 0.317117 0.000000
0.718655 0.732879 0.000000
0.709319 0.677587 0.000000
0.715709 0.670111 0.000000
0.719283 0.682820 0.000000
0.212992 0.453899 0.000000
0.184619 0.470046 0.000000
0.186665 0.440862 0.000000
0.452307 0.386568 0.000000
0.460371 0.397715 0.000000
0.478664 0.456068 0.000000
0.476179 0.462123 0.000000
0.471250 0.456445 0.000000
0.464654 0.388544 0.000000
0.483415 0.461045 0.000000
0.357146 0.449596 0.000000
0.344653 0.443966 0.000000
0.554562 0.459423 0.000000
0.543333 0.457517 0.000000
0.553850 0.449505 0.000000
0.543131 0.445036 0.000000
0.347312 0.459318 0.000000
0.781088 0.538918 0.000000
0.810909 0.534152 0.000000
0.799399 0.553968 0.000000
0.402869 0.534333 0.000000
0.408011 0.546121 0.000000
0.703844 0.670118 0.000000
0.552234 0.794299 0.000000
0.528593 0.795589 0.000000
0.539188 0.770312 0.000000
0.596088 0.518714 0.000000
0.593029 0.508081 0.000000
0.604120 0.510731 0.000000
0.384880 0.468703 0.000000
0.382270 0.455963 0.000000
0.394062 0.458803 0.000000
0.374729 0.466839 0.000000
0.340939 0.294790 0.000000
0.324530 0.290188 0.000000
0.338473 0.279923 0.000000
0.465367 0.336545 0.000000
0.477337 0.352846 0.000000
0.459495 0.350024 0.000000
0.584947 0.516440 0.000000
0.326802 0.302636 0.000000
0.945343 0.420397 0.000000
0.779746 0.749037 0.000000
0.771533 0.774140 0.000000
0.758291 0.749848 0.000000
0.743435 0.765852 0.000000
0.751942 0.297541 0.000000
0.784264 0.292048 0.000000
0.772562 0.330207 0.000000
0.812744 0.305799 0.000000
0.655547 0.494535 0.000000
0.649767 0.472522 0.000000
0.671966 0.480244 0.000000
0.612062 0.502007 0.000000
0.616789 0.515227 0.000000
0.403059 0.898561 0.000000
0.391512 0.946883 0.000000
0.625780 0.504699 0.000000
0.635988 0.491275 0.000000
0.596252 0.650380 0.000000
0.583401 0.655132 0.000000
0.583737 0.644777 0.000000
0.713099 0.416502 0.000000
0.708474 0.388943 0.000000
0.733625 0.389568 0.000000
0.684835 0.406222 0.000000
0.656936 0.416423 0.000000
0.633624 0.425116 0.000000
0.634362 0.400237 0.000000
0.646884 0.740682 0.000000
0.654954 0.726002 0.000000
0.663305 0.741855 0.000000
0.732481 0.441235 0.000000
0.751303 0.460839 0.000000
0.721338 0.462235 0.000000
0.759622 0.437863 0.000000
0.462761 0.363156 0.000000
0.373644 0.622389 0.000000
0.346217 0.613642 0.000000
0.370315 0.594521 0.000000
0.351411 0.640635 0.000000
0.695337 0.690220 0.000000
0.705202 0.700133 0.000000
0.692303 0.700990 0.000000
0.521365 0.516400 0.000000
0.522992 0.510597 0.000000
0.527633 0.513574 0.000000
0.291567 0.329512 0.000000
0.294927 0.318154 0.000000
0.365771 0.366553 0.000000
0.366135 0.358691 0.000000
0.374180 0.368122 0.000000
0.408232 0.327056 0.000000
0.423479 0.328280 0.000000
0.411272 0.339740 0.000000
0.664110 0.670607 0.000000
0.667245 0.662649 0.000000
[...]
POINT_DATA 1818
SCALARS UX float 1
LOOKUP_TABLE default
-0.000005
0.000004
-0.044437
-0.433892
-0.132913
-0.072978
0.000001
-0.000000
-0.000000
-0.000000
-0.000000
-0.000000
-0.000000
-0.000000
-0.000000
0.000000
0.000000
0.000000
0.000000
0.000000
0.000001
-0.000000
0.026484
0.077076
0.105631
0.131994
0.159518
0.177906
0.215109
0.246241
0.287166
0.320471
0.337842
0.343972
0.327302
0.259357
0.112617
0.007513
-0.119929
-0.148966
-0.158008
-0.162888
-0.169317
-0.175269
-0.179556
-0.183101
-0.190007
-0.204603
-0.227548
-0.259319
-0.296915
-0.336553
-0.374216
-0.404514
-0.431454
-0.425005
-0.415620
-0.407799
-0.401850
-0.403949
-0.412750
-0.426136
-0.441624
-0.452815
-0.456565
-0.447787
-0.424586
-0.451962
-0.295899
-0.140057
-0.108816
-0.091128
-0.083684
-0.082481
-0.086029
-0.097783
-0.093751
-0.087694
-0.071690
-0.047491
-0.037357
-0.038821
-0.047963
-0.034398
-0.033189
-0.030699
-0.031561
-0.032158
-0.044572
-0.041180
-0.050302
-0.054350
-0.053674
-0.069005
-0.071220
-0.030043
-0.070762
-0.068910
-0.042895
-0.057276
-0.055661
-0.057642
-0.077637
-0.115381
-0.117535
-0.111488
-0.088941
-0.093237
-0.121325
-0.118648
-0.147538
-0.142686
-0.101952
-0.061089
-0.033342
-0.013757
-0.009328
-0.010089
-0.033767
-0.075126
-0.112050
-0.164386
-0.157841
-0.179093
-0.181151
-0.170821
-0.161868
-0.154227
-0.129177
-0.133106
-0.141524
-0.146899
-0.144307
-0.133685
-0.119662
-0.106748
0.003998
0.001871
0.003696
-0.268492
-0.271803
-0.282668
0.001897
0.034181
0.023155
0.031873
0.003078
0.001993
-0.000867
-0.002821
0.033067
0.025030
0.030821
-0.332253
-0.332228
-0.327697
-0.382867
-0.381936
-0.382836
0.210038
0.221213
0.175533
-0.328697
0.028402
0.031199
-0.265129
-0.258981
-0.269923
-0.262341
-0.262525
-0.253115
-0.262739
0.003332
0.006845
0.004694
-0.196405
-0.203928
-0.196145
-0.381325
-0.381674
-0.206926
-0.382997
0.194025
0.204233
0.202706
-0.333027
-0.336581
-0.332291
-0.004228
-0.009590
-0.005461
-0.339320
0.151634
0.162905
0.175175
-0.375266
-0.379246
-0.377375
0.005011
-0.390273
-0.388622
-0.384493
0.007542
0.007380
-0.379137
0.009064
0.071890
0.045167
0.072212
0.069753
0.067058
0.061917
-0.374965
-0.379771
-0.379463
0.059365
-0.375293
-0.008184
-0.014074
-0.006939
-0.017518
0.112650
0.105992
0.110193
0.101831
0.274306
0.266633
0.293187
0.074474
-0.408181
-0.426659
-0.411966
-0.417205
0.007407
0.008319
0.007490
0.022147
0.016084
0.016613
0.069531
-0.009423
-0.019902
-0.013997
-0.437153
-0.434673
-0.425666
-0.028310
-0.284537
-0.279340
-0.281155
-0.320448
-0.327517
-0.326163
-0.164770
-0.158816
-0.171803
-0.322609
-0.385037
-0.382588
-0.323193
-0.325547
-0.320744
-0.016021
-0.015847
-0.020148
-0.020434
-0.146698
0.157256
0.245880
0.127752
-0.395662
-0.397512
-0.407364
0.011636
0.017853
0.050467
0.052487
0.049091
0.014537
0.053990
-0.370889
-0.372647
0.066943
0.063244
0.060312
0.055193
-0.367913
0.195520
0.211525
0.217791
-0.334986
-0.329048
0.205335
-0.198839
-0.204250
-0.206816
0.120480
0.111265
0.115625
-0.364290
-0.368763
-0.367891
-0.365728
-0.049903
-0.057669
-0.041087
-0.001270
0.004662
0.000796
0.116168
-0.065979
0.196728
-0.025915
-0.106356
-0.094081
-0.141427
0.053966
0.062787
0.075437
0.079694
0.114150
0.099078
0.110424
0.110361
0.121432
-0.215078
-0.212961
0.114952
0.107465
-0.234456
-0.236487
-0.243400
0.093335
0.077752
0.088401
0.076475
0.070952
0.067462
0.055872
-0.179340
-0.174448
-0.175705
0.115279
0.135065
0.121291
0.126201
0.005008
-0.305267
-0.314192
-0.316165
-0.303793
-0.109467
-0.103829
-0.126093
0.048678
0.076739
0.079446
-0.175600
-0.130344
-0.018737
-0.019268
-0.013913
-0.015142
-0.011141
-0.011729
-0.168098
-0.165913
-0.154760
-0.358735
-0.352411
-0.358340
-0.353007
-0.211751
-0.209340
-0.219512
0.054391
0.004864
0.008913
0.008689
-0.056870
-0.071559
-0.061958
0.009767
0.007237
0.004430
-0.297087
-0.294715
-0.302223
-0.004488
-0.013337
-0.011936
-0.012355
-0.165077
-0.152674
-0.167353
-0.158891
-0.003743
-0.017382
-0.323556
-0.318950
-0.316512
-0.326951
-0.402001
-0.394568
-0.394939
-0.383600
-0.384974
-0.384235
0.000342
0.003690
-0.252730
0.107938
0.103437
-0.350392
-0.354688
-0.347845
-0.108982
-0.331598
-0.313789
-0.310867
-0.299275
-0.382236
-0.308509
-0.308035
-0.311756
-0.304194
-0.340977
-0.332723
0.218715
0.230726
0.230918
0.220075
-0.370031
-0.370083
-0.373317
-0.139742
-0.181679
-0.111034
-0.037830
-0.022294
-0.010183
0.002058
-0.060024
-0.104254
-0.178850
0.274771
0.170654
-0.217091
-0.329382
-0.325888
-0.235638
-0.244547
-0.247131
-0.322070
-0.330112
-0.314826
-0.221713
-0.216104
-0.214343
-0.330978
-0.360374
-0.024661
-0.024471
-0.051380
-0.049890
-0.040780
-0.060724
0.047956
0.049311
0.039457
-0.392971
-0.405617
-0.390358
-0.353129
-0.341198
-0.350670
-0.344311
-0.193644
-0.201397
-0.241058
-0.246098
-0.304410
-0.306728
-0.305785
-0.310292
-0.300360
-0.301580
-0.298345
-0.364874
-0.364819
-0.366542
-0.361029
-0.358009
-0.358956
-0.354511
-0.322494
0.021813
0.017211
0.015677
0.018168
0.011949
0.013743
0.016185
0.114721
0.097006
0.099407
0.121589
0.136407
-0.341341
-0.347609
-0.374836
0.127235
0.130863
0.097812
-0.347914
-0.344219
-0.343106
-0.227840
-0.217911
-0.345618
-0.225310
-0.237493
-0.233658
0.019157
0.025785
0.023093
0.094506
0.094324
0.102188
-0.035227
-0.029419
-0.223864
0.100241
-0.316315
-0.302982
-0.328997
-0.317935
-0.331498
0.006706
0.011103
0.066006
0.075533
0.073006
0.070558
0.046448
-0.431467
-0.183495
-0.179411
-0.180921
-0.182424
-0.400345
-0.419728
-0.345699
0.147471
0.152801
0.161293
-0.023978
0.037950
-0.132507
0.082598
0.077941
-0.169727
-0.156332
-0.164665
-0.376524
-0.379567
-0.376906
-0.225731
-0.233615
-0.376403
0.065567
0.074000
0.073403
0.010347
0.005505
-0.223246
-0.225438
-0.213955
0.006578
0.082688
-0.364459
-0.364160
-0.369787
-0.370516
-0.363366
-0.363546
0.063568
0.096368
0.082483
0.091234
0.053184
0.125559
0.107633
-0.338180
-0.286922
-0.319095
-0.014010
-0.011724
-0.354762
-0.354167
-0.345845
-0.016181
0.005087
0.002156
0.004250
-0.349096
-0.351665
-0.356305
-0.122834
-0.158538
-0.089331
-0.027457
-0.046007
-0.053001
-0.311813
-0.272163
0.100049
-0.411472
-0.426963
0.103673
0.074227
0.083230
-0.292189
0.063992
0.056747
-0.298295
-0.292107
0.137298
0.149169
0.150610
-0.303070
0.057903
0.067389
0.098888
-0.332320
-0.337656
-0.326162
-0.110124
-0.107098
-0.008961
-0.342340
0.022321
0.029010
-0.347397
-0.241709
-0.254017
-0.245376
-0.248057
0.189371
0.172791
0.162397
0.155577
0.069335
0.040433
-0.222684
-0.223423
-0.212210
-0.027432
-0.019669
0.083514
0.051728
0.050667
0.055066
0.005053
-0.378894
-0.380291
0.017979
0.026343
-0.380175
0.208903
0.274789
0.104108
0.218637
0.242510
0.010705
0.013301
0.015237
-0.386355
0.068011
-0.007910
-0.007046
-0.003792
-0.241570
-0.324450
-0.257177
-0.251509
0.162063
-0.343843
-0.280929
-0.365005
-0.365461
-0.368840
-0.318501
-0.314175
-0.312427
-0.376249
0.240853
0.236174
0.223819
-0.308270
0.004772
0.140796
0.120899
0.127264
0.084581
0.113109
0.066205
0.116455
0.108409
0.123181
0.004881
-0.362151
-0.226002
-0.375042
-0.380518
-0.313290
-0.323903
-0.005837
-0.002733
-0.091107
-0.097338
0.076032
-0.179762
-0.375995
-0.182951
-0.309473
-0.301730
-0.294794
-0.183383
0.166364
0.167429
0.155565
0.162849
-0.003940
-0.008929
-0.214263
-0.214934
-0.205689
0.135615
0.142194
0.133332
0.138638
0.086532
0.088659
-0.286063
-0.289987
0.122732
-0.392072
-0.357865
-0.385691
0.265413
0.297163
0.283184
-0.192533
-0.202178
-0.194682
0.303022
0.164990
0.058001
0.032440
0.045427
0.021634
-0.201613
0.025808
0.024819
0.018365
0.280094
0.295681
0.289683
-0.319906
-0.345732
-0.349352
0.308623
-0.332058
-0.308413
-0.353802
-0.236924
-0.289927
-0.398718
0.002977
0.000926
0.006279
0.326051
0.317792
0.332779
0.317835
0.286976
0.329728
0.322868
-0.191575
-0.188200
-0.449782
-0.437144
-0.442121
-0.189032
0.019010
-0.009830
-0.446405
-0.441432
-0.445477
-0.376000
-0.381264
-0.450242
0.013792
-0.006601
-0.240749
0.006417
-0.252692
-0.241708
-0.234942
0.248336
0.291185
-0.170232
-0.173234
-0.165547
-0.139122
-0.149526
-0.109308
-0.158255
-0.165001
-0.150552
-0.020984
-0.026663
-0.191120
-0.338205
-0.365639
-0.216441
-0.360462
-0.362387
-0.368557
-0.428499
-0.442670
0.009374
0.010272
0.009751
0.010964
0.008544
-0.182885
-0.174902
-0.180462
-0.441204
0.005791
0.005678
-0.260540
-0.269237
-0.273412
0.311420
0.299269
-0.371684
0.217327
0.214890
0.195839
0.237429
-0.391602
-0.399814
-0.387576
0.243014
0.005706
0.306070
-0.171405
0.005910
-0.006550
-0.006355
-0.277035
0.001708
0.006181
-0.191335
-0.187097
-0.186318
0.106386
-0.011483
-0.039477
-0.226373
-0.219646
-0.182435
-0.275078
0.029879
0.041155
0.030531
0.044535
-0.380252
-0.377128
-0.230105
-0.193127
0.002147
0.006537
0.008701
0.006914
0.006841
-0.002025
0.005411
-0.355050
-0.343932
-0.344944
-0.353118
-0.239820
-0.378076
-0.365099
-0.379731
-0.368015
-0.377955
-0.280145
-0.275229
-0.249048
-0.236725
-0.283099
-0.027975
-0.013180
-0.198022
-0.191149
-0.363655
-0.384001
-0.360522
0.037700
0.032207
0.030986
-0.285866
-0.290287
-0.004223
-0.008225
-0.375502
-0.386388
-0.382963
-0.345366
-0.347613
-0.340472
-0.071714
-0.102093
-0.344723
0.038650
0.008578
0.004841
-0.336524
-0.302358
-0.289502
-0.302584
-0.341472
-0.416864
0.060104
0.043895
-0.324063
-0.319523
-0.328087
-0.323536
0.004785
0.000617
-0.352211
0.099778
0.010342
0.013677
0.002906
0.002154
-0.001955
-0.275268
-0.002100
-0.292628
-0.281430
-0.270792
-0.279890
-0.275402
-0.334587
-0.332371
-0.342043
0.001166
0.000370
-0.339129
0.119915
0.127174
0.134114
-0.407985
-0.399569
-0.391095
-0.222727
-0.229044
-0.234987
-0.419111
0.230723
0.264945
0.246448
0.216626
0.229744
-0.428373
-0.431432
-0.314101
-0.324271
-0.312179
-0.160282
0.057747
-0.051599
0.210772
-0.335129
-0.333459
-0.264813
-0.272366
-0.257864
-0.417717
-0.440526
-0.271388
0.018957
0.022512
0.019819
-0.339670
-0.341028
-0.338002
0.206680
0.190097
0.206322
-0.211161
0.236469
0.237989
-0.427369
-0.230917
0.028762
-0.371471
-0.395441
-0.187021
-0.186621
0.133651
0.133330
0.126403
-0.037035
-0.032886
0.137593
-0.031603
0.145562
-0.421299
-0.419333
0.260178
0.236531
0.146370
0.013648
-0.027098
0.307417
0.289996
0.260564
0.317663
-0.190030
-0.196460
-0.187372
-0.194442
0.031319
-0.184662
-0.185627
0.038612
-0.298197
-0.264886
-0.284326
-0.285889
-0.287358
0.013032
0.020465
-0.268572
-0.270479
-0.278332
0.048865
0.042959
0.044850
-0.300830
-0.301395
-0.295080
-0.342727
0.229562
0.233604
0.265715
-0.390372
-0.391104
-0.398355
0.003963
0.005159
-0.000753
-0.393689
-0.212316
-0.001097
-0.201404
-0.182298
-0.416310
-0.404793
0.281971
0.045740
0.098610
0.084157
-0.289038
-0.294512
-0.178660
-0.179934
0.008845
-0.366018
-0.179636
-0.346403
-0.408377
-0.411455
-0.349945
-0.345672
-0.351265
0.150944
0.157504
0.166903
0.147104
0.013491
0.015924
0.010906
0.019051
-0.396440
-0.267373
-0.276830
-0.398876
-0.199096
-0.129356
-0.118265
-0.140644
0.229794
0.089358
0.035406
0.002142
-0.134149
-0.186192
-0.386178
-0.382502
-0.382953
-0.398606
-0.115449
-0.016505
-0.073171
-0.186255
-0.084485
0.014055
0.008730
0.006612
-0.015781
-0.010807
-0.012853
0.271333
0.007052
0.006670
0.003459
-0.147451
0.017476
-0.002192
0.003000
0.201596
-0.274706
-0.278155
-0.282546
-0.267458
-0.286466
0.188042
0.177079
0.182695
0.183339
0.184049
0.191783
-0.387767
0.000679
0.003801
0.004326
0.005846
0.010154
0.010107
0.013847
0.273680
0.289846
0.164301
-0.322683
-0.328262
-0.196794
-0.205955
0.145192
0.123102
0.107583
0.102316
-0.355660
-0.351731
-0.096283
-0.101736
-0.213751
-0.359996
-0.359685
-0.175999
-0.357407
0.054418
0.058365
0.057499
-0.168487
-0.157773
0.252968
0.244787
-0.272067
-0.282108
-0.272195
-0.282657
-0.263912
-0.262448
0.025612
0.024363
-0.435727
0.020348
0.045918
0.057133
0.309511
0.308420
0.035189
-0.173571
-0.169350
-0.175753
-0.188288
-0.212415
-0.015668
-0.030155
-0.033599
-0.333588
-0.340227
0.195297
0.031943
0.021242
0.025801
-0.141633
-0.203555
-0.205932
-0.207406
0.228733
0.231960
0.122668
-0.380402
-0.379937
-0.365413
-0.177702
-0.002330
0.005256
0.006360
-0.176849
-0.006798
-0.002175
0.005323
-0.223253
-0.170432
0.007093
0.170577
0.177391
0.186960
0.204279
0.179083
0.306737
-0.373537
-0.181676
-0.238956
-0.248590
-0.249992
-0.233202
-0.242103
-0.287163
0.008289
0.237850
-0.155931
-0.175471
-0.173236
0.194152
0.205186
0.061977
0.093056
0.093802
-0.349308
-0.377980
-0.192324
0.009008
-0.363378
0.196263
0.185090
0.185916
0.193238
-0.367152
-0.427533
-0.388241
0.120784
0.124728
0.042016
0.033525
0.033640
0.033837
0.110539
0.280305
-0.197101
0.186238
0.109795
0.147634
-0.013124
-0.283476
-0.245382
0.302099
0.005872
-0.278830
0.184409
0.155015
-0.198076
-0.206075
-0.232828
-0.244744
-0.238132
-0.250013
0.132666
0.126691
-0.028402
-0.042762
-0.037766
-0.259968
-0.289915
-0.450473
0.102405
0.095217
0.104121
0.087252
0.084624
-0.346539
0.164689
-0.373614
-0.217592
-0.307618
-0.368795
-0.288350
-0.269090
-0.269986
-0.337192
0.026324
-0.382611
-0.425583
0.007052
-0.159783
-0.178441
-0.371471
-0.365423
-0.284935
0.197987
0.001969
-0.000027
-0.334287
-0.247879
0.175945
0.243531
-0.294912
-0.294339
-0.305668
0.081646
-0.346044
0.174600
0.175726
-0.003336
-0.284335
-0.290065
-0.288703
-0.283593
-0.275911
-0.047024
-0.152326
0.178764
0.203779
0.115732
-0.065874
0.060400
-0.024830
-0.022829
0.140607
-0.023416
-0.020700
0.271801
-0.190538
-0.378195
-0.379363
0.155102
0.058945
0.055539
0.256730
0.052564
0.054772
0.024130
-0.360354
-0.351391
-0.192016
-0.203672
-0.372955
-0.373065
-0.374337
0.201746
-0.376166
-0.293563
-0.319039
0.132310
-0.242487
-0.076273
-0.075456
-0.319136
0.001629
-0.000924
0.103589
-0.289002
-0.293658
0.136243
0.143492
0.140403
0.146923
0.136373
0.079284
-0.352953
-0.267049
-0.331867
-0.295158
-0.041724
-0.177503
-0.179274
0.041728
0.046870
-0.241256
-0.068092
0.061240
0.081486
0.157949
0.005721
0.003850
0.008598
0.006785
-0.292327
-0.353859
-0.345359
0.159184
0.166631
0.165918
-0.298637
-0.294557
-0.000557
-0.355285
-0.358741
0.004928
0.006467
0.164151
0.002833
-0.383617
-0.401212
-0.371863
-0.289582
0.004745
-0.338405
-0.016324
-0.019462
-0.382961
-0.390541
0.003796
0.017496
0.049006
-0.293274
0.022073
0.002171
0.016842
-0.334424
-0.329832
0.027092
-0.311118
-0.381104
-0.416140
-0.431116
-0.372427
-0.299049
-0.313194
-0.294536
0.120903
0.124632
0.118297
-0.298035
-0.286052
-0.008927
-0.012977
-0.312323
-0.305978
-0.313978
-0.197614
-0.192836
-0.334773
-0.305672
0.168573
0.175345
-0.009315
-0.346590
-0.340946
-0.380129
-0.379211
-0.379624
0.008340
0.011792
0.134080
0.098838
-0.245706
-0.234996
-0.291108
-0.159966
-0.142508
0.007928
0.027731
-0.336263
0.001254
0.000623
-0.258654
-0.310766
0.026201
0.023087
-0.314602
-0.311979
-0.022847
0.051822
0.055289
0.168831
-0.381036
0.178659
0.019604
0.144209
0.152433
-0.356009
-0.360030
-0.182414
-0.177927
-0.213736
-0.214453
0.117132
0.183469
0.014712
-0.268468
0.204858
-0.382165
0.056920
0.035834
0.035214
-0.383504
0.212499
0.024585
0.036994
0.088843
0.087258
-0.156541
0.020680
-0.346750
-0.331709
-0.333718
-0.407747
0.138380
0.064070
0.075545
0.069268
0.006253
-0.368236
0.149489
-0.363317
-0.352234
-0.351892
-0.007443
0.000536
-0.005946
0.109367
0.027999
-0.274686
-0.260885
-0.377750
-0.006877
-0.063484
-0.029624
-0.406040
-0.407004
-0.267206
0.002757
0.025630
0.006011
-0.125266
-0.064284
-0.054244
-0.122791
-0.376148
-0.077511
-0.380783
-0.028616
0.094079
0.149136
0.141442
0.080431
0.160098
0.213622
-0.355657
-0.306428
-0.299154
0.265827
0.275637
0.005275
0.252019
-0.259621
-0.266157
-0.262213
0.046103
0.050688
0.041147
0.038014
-0.270431
-0.000813
0.174515
0.028845
-0.364195
-0.233647
-0.359747
-0.060459
0.057874
0.194039
0.203097
-0.243781
-0.249260
-0.363695
0.141643
0.127161
-0.254387
-0.223035
0.000443
-0.000467
-0.376041
-0.002450
-0.178345
-0.272009
0.156876
0.209782
-0.097714
-0.136663
-0.148003
-0.405356
-0.016725
-0.004144
-0.004617
-0.361020
0.311210
-0.321389
0.030491
0.035926
-0.376513
0.059080
0.080166
0.053108
-0.214358
0.056921
0.073804
-0.260440
0.104208
-0.256145
0.015560
0.018576
0.002087
-0.171421
0.008151
-0.248921
-0.162054
0.009588
0.009977
-0.261510
0.299202
0.070189
-0.367237
-0.369380
-0.003733
-0.070798
-0.365916
-0.386471
-0.379222
-0.303010
-0.350153
0.156072
-0.254516
0.120365
0.091282
0.095040
-0.166687
-0.226591
-0.241352
-0.345902
0.119761
0.115428
0.088081
0.090957
-0.267661
-0.292977
-0.336546
-0.334183
0.091176
-0.377914
-0.057837
-0.068701
-0.320311
-0.304077
0.044145
0.021711
0.082965
0.050751
-0.074464
0.084292
0.060491
-0.016737
-0.333568
-0.334036
0.060806
0.046031
-0.316728
0.115939
-0.120213
-0.363499
0.266185
-0.293195
-0.385861
0.140707
0.083045
-0.223345
-0.216838
-0.307119
-0.370873
0.153163
0.148180
0.152703
-0.028936
0.044630
-0.167285
-0.348306
-0.414565
-0.072047
0.048348
-0.349748
-0.362531
0.156659
0.173527
0.046324
0.043006
0.011518
0.078772
0.146099
-0.235516
-0.230671
-0.292399
-0.329229
0.043742
-0.312653
-0.032335
-0.038897
-0.174876
0.094490
-0.312820
0.151967
-0.357999
-0.078707
0.181641
-0.352347
-0.300567
-0.328324
-0.320033
-0.237710
-0.230711
-0.314196
0.156255
-0.286153
-0.179176
-0.007073
-0.017049
0.039540
-0.246161
-0.243980
0.049673
-0.349227
-0.352677
-0.031661
-0.205506
-0.010670
-0.274087
-0.297308
-0.271940
-0.326829
-0.248765
-0.013442
-0.299504
-0.269311
-0.027324
-0.177846
-0.314421
0.207941
0.127504
-0.226857
-0.340586
-0.316639
-0.019115
0.033514
0.026567
-0.240333
0.036993
-0.363383
-0.376190
0.038258
0.084456
0.085337
0.131610
0.161627
-0.322460
0.108130
-0.316213
-0.131534
-0.318329
0.051328
-0.085007
0.095740
-0.326487
0.063905
0.040988
0.038287
-0.382720
0.053182
-0.290505
-0.312657
-0.195439
-0.049645
-0.329340
0.019538
0.091321
-0.255117
-0.308771
-0.004884
SCALARS UY float 1
LOOKUP_TABLE default
-0.000006
-0.000005
-1.309997
-1.309998
-0.138365
-1.089120
-0.000001
-0.000002
-0.000002
-0.000002
-0.000001
-0.000001
-0.000001
-0.000001
-0.000001
-0.000001
-0.000001
-0.000001
-0.000002
-0.000002
-0.000002
-0.000001
-0.064038
-0.120220
-0.153883
-0.187876
-0.226170
-0.257476
-0.314865
-0.342695
-0.381531
-0.407430
-0.427279
-0.447071
-0.481973
-0.591773
-0.800334
-1.053448
-1.309999
-1.309998
-1.309999
-1.309998
-1.309998
-1.309998
-1.309998
-1.309998
-1.309998
-1.309998
-1.309998
-1.309998
-1.309998
-1.309998
-1.309998
-1.309998
-1.246982
-1.182406
-1.115123
-1.046761
-0.980846
-0.921272
-0.867779
-0.825122
-0.795036
-0.776094
-0.764251
-0.755465
-0.738708
-0.694525
-0.522549
-0.237181
-0.102948
-0.088276
-0.096673
-0.113376
-0.166632
-0.227235
-0.248250
-0.206361
-0.168312
-0.119359
-0.079473
-0.111153
-0.130271
-0.152020
-0.141230
-0.125260
-0.126019
-0.137008
-0.175507
-0.222100
-0.212770
-0.249018
-0.296157
-0.256160
-0.298835
-0.327354
-0.345635
-0.342060
-0.276012
-0.450767
-0.428353
-0.282793
-0.346187
-0.587819
-0.713608
-0.613534
-0.434220
-0.406991
-0.579183
-0.757828
-0.758831
-0.740310
-0.648028
-0.625247
-0.537932
-0.505365
-0.477484
-0.499101
-0.541561
-0.666427
-0.860877
-0.978136
-0.978660
-0.966280
-0.986037
-1.031023
-1.048935
-0.998778
-0.837804
-0.927769
-1.058797
-1.088501
-1.095555
-1.099578
-1.085351
-1.090451
-0.001197
-0.001180
-0.002530
-1.025539
-1.049933
-1.059757
-0.001102
-0.061151
-0.074587
-0.049189
-0.000707
-0.001317
-0.002356
-0.004140
-0.057174
-0.051656
-0.059599
-1.027590
-1.032640
-1.034948
-0.846977
-0.850887
-0.841467
-0.259092
-0.261553
-0.318926
-1.038612
-0.050771
-0.041695
-1.107379
-1.111946
-1.100050
-1.106479
-1.103266
-1.120528
-1.112720
-0.000811
-0.001201
-0.001444
-1.276220
-1.243493
-1.252398
-0.857250
-0.863533
-1.221263
-0.858113
-0.251203
-0.249622
-0.244149
-1.000487
-1.001726
-1.008493
-0.028321
-0.026686
-0.026223
-0.990618
-0.212968
-0.234215
-0.242471
-0.921159
-0.924360
-0.930746
-0.000262
-0.797669
-0.771565
-0.802122
-0.002112
-0.004111
-0.780348
-0.004116
-0.122890
-0.145051
-0.091755
-0.071281
-0.066586
-0.066412
-0.881908
-0.865853
-0.867881
-0.059956
-0.876504
-0.003104
-0.006111
-0.004982
-0.006332
-0.129397
-0.118876
-0.122567
-0.112484
-0.408635
-0.380482
-0.411758
-0.075379
-0.826293
-0.800172
-0.817086
-0.818521
-0.001753
-0.001935
-0.001039
-0.036215
-0.034079
-0.033864
-0.072911
-0.008542
-0.011044