# vtk DataFile Version 2.0
Test
ASCII
DATASET POLYDATA
POINTS 1818 float
0.000000 0.000000 0.000000
1.000000 0.000000 0.000000
1.000000 1.000000 0.000000
0.000000 1.000000 0.000000
0.300000 0.330000 0.000000
0.700000 0.680000 0.000000
0.058824 0.000000 0.000000
0.117647 0.000000 0.000000
0.176471 0.000000 0.000000
0.235294 0.000000 0.000000
0.294118 0.000000 0.000000
0.352941 0.000000 0.000000
0.411765 0.000000 0.000000
0.470588 0.000000 0.000000
0.529412 0.000000 0.000000
0.588235 0.000000 0.000000
0.647059 0.000000 0.000000
0.705882 0.000000 0.000000
0.764706 0.000000 0.000000
0.823529 0.000000 0.000000
0.882353 0.000000 0.000000
0.941176 0.000000 0.000000
1.000000 0.058824 0.000000
1.000000 0.117647 0.000000
1.000000 0.176471 0.000000
1.000000 0.235294 0.000000
1.000000 0.294118 0.000000
1.000000 0.352941 0.000000
1.000000 0.411765 0.000000
1.000000 0.470588 0.000000
1.000000 0.529412 0.000000
1.000000 0.588235 0.000000
1.000000 0.647059 0.000000
1.000000 0.705882 0.000000
1.000000 0.764706 0.000000
1.000000 0.823529 0.000000
1.000000 0.882353 0.000000
1.000000 0.941176 0.000000
0.941176 1.000000 0.000000
0.882353 1.000000 0.000000
0.823529 1.000000 0.000000
0.764706 1.000000 0.000000
0.705882 1.000000 0.000000
0.647059 1.000000 0.000000
0.588235 1.000000 0.000000
0.529412 1.000000 0.000000
0.470588 1.000000 0.000000
0.411765 1.000000 0.000000
0.352941 1.000000 0.000000
0.294118 1.000000 0.000000
0.235294 1.000000 0.000000
0.176471 1.000000 0.000000
0.117647 1.000000 0.000000
0.058824 1.000000 0.000000
0.000000 0.941176 0.000000
0.000000 0.882353 0.000000
0.000000 0.823529 0.000000
0.000000 0.764706 0.000000
0.000000 0.705882 0.000000
0.000000 0.647059 0.000000
0.000000 0.588235 0.000000
0.000000 0.529412 0.000000
0.000000 0.470588 0.000000
0.000000 0.411765 0.000000
0.000000 0.352941 0.000000
0.000000 0.294118 0.000000
0.000000 0.235294 0.000000
0.000000 0.176471 0.000000
0.000000 0.117647 0.000000
0.000000 0.058824 0.000000
0.305970 0.335224 0.000000
0.311940 0.340448 0.000000
0.317910 0.345672 0.000000
0.323881 0.350896 0.000000
0.329851 0.356119 0.000000
0.335821 0.361343 0.000000
0.341791 0.366567 0.000000
0.347761 0.371791 0.000000
0.353731 0.377015 0.000000
0.359701 0.382239 0.000000
0.365672 0.387463 0.000000
0.371642 0.392687 0.000000
0.377612 0.397910 0.000000
0.383582 0.403134 0.000000
0.389552 0.408358 0.000000
0.395522 0.413582 0.000000
0.401493 0.418806 0.000000
0.407463 0.424030 0.000000
0.413433 0.429254 0.000000
0.419403 0.434478 0.000000
0.425373 0.439701 0.000000
0.431343 0.444925 0.000000
0.437313 0.450149 0.000000
0.443284 0.455373 0.000000
0.449254 0.460597 0.000000
0.455224 0.465821 0.000000
0.461194 0.471045 0.000000
0.467164 0.476269 0.000000
0.473134 0.481493 0.000000
0.479104 0.486716 0.000000
0.485075 0.491940 0.000000
0.491045 0.497164 0.000000
0.497015 0.502388 0.000000
0.502985 0.507612 0.000000
0.508955 0.512836 0.000000
0.514925 0.518060 0.000000
0.520896 0.523284 0.000000
0.526866 0.528507 0.000000
0.532836 0.533731 0.000000
0.538806 0.538955 0.000000
0.544776 0.544179 0.000000
0.550746 0.549403 0.000000
0.556716 0.554627 0.000000
0.562687 0.559851 0.000000
0.568657 0.565075 0.000000
0.574627 0.570299 0.000000
0.580597 0.575522 0.000000
0.586567 0.580746 0.000000
0.592537 0.585970 0.000000
0.598507 0.591194 0.000000
0.604478 0.596418 0.000000
0.610448 0.601642 0.000000
0.616418 0.606866 0.000000
0.622388 0.612090 0.000000
0.628358 0.617313 0.000000
0.634328 0.622537 0.000000
0.640299 0.627761 0.000000
0.646269 0.632985 0.000000
0.652239 0.638209 0.000000
0.658209 0.643433 0.000000
0.664179 0.648657 0.000000
0.670149 0.653881 0.000000
0.676119 0.659104 0.000000
0.682090 0.664328 0.000000
0.688060 0.669552 0.000000
0.694030 0.674776 0.000000
0.516135 0.080917 0.000000
0.549338 0.042552 0.000000
0.567302 0.088709 0.000000
0.555658 0.563778 0.000000
0.559301 0.571359 0.000000
0.552318 0.570919 0.000000
0.603235 0.047100 0.000000
0.446553 0.448087 0.000000
0.438652 0.443189 0.000000
0.445116 0.440368 0.000000
0.437254 0.190586 0.000000
0.465954 0.201747 0.000000
0.439184 0.213838 0.000000
0.453137 0.228102 0.000000
0.522423 0.410182 0.000000
0.522098 0.390982 0.000000
0.537289 0.398500 0.000000
0.453388 0.527105 0.000000
0.462022 0.524948 0.000000
0.461218 0.533993 0.000000
0.324300 0.374550 0.000000
0.319287 0.386214 0.000000
0.314834 0.375138 0.000000
0.668809 0.628853 0.000000
0.677366 0.632907 0.000000
0.668274 0.639611 0.000000
0.469934 0.529282 0.000000
0.439703 0.436699 0.000000
0.446608 0.432083 0.000000
0.542854 0.633425 0.000000
0.535117 0.647070 0.000000
0.524302 0.633157 0.000000
0.519372 0.648877 0.000000
0.586338 0.611293 0.000000
0.591638 0.624149 0.000000
0.575478 0.621479 0.000000
0.437962 0.035513 0.000000
0.421505 0.085456 0.000000
0.394924 0.044162 0.000000
0.445207 0.955749 0.000000
0.429168 0.919510 0.000000
0.464409 0.914226 0.000000
0.317150 0.400904 0.000000
0.328626 0.395860 0.000000
0.439616 0.884412 0.000000
0.330406 0.381773 0.000000
0.676842 0.602700 0.000000
0.674982 0.614185 0.000000
0.665930 0.611798 0.000000
0.414707 0.535036 0.000000
0.420123 0.526072 0.000000
0.425338 0.533771 0.000000
0.398407 0.375558 0.000000
0.393804 0.363255 0.000000
0.407284 0.365452 0.000000
0.407758 0.523337 0.000000
0.899969 0.377867 0.000000
0.945915 0.378245 0.000000
0.914158 0.409130 0.000000
0.358219 0.436142 0.000000
0.361390 0.425428 0.000000
0.369309 0.432300 0.000000
0.465999 0.075074 0.000000
0.269944 0.367761 0.000000
0.266521 0.352125 0.000000
0.283474 0.357667 0.000000
0.385889 0.083020 0.000000
0.359482 0.060981 0.000000
0.279658 0.346766 0.000000
0.363604 0.104040 0.000000
0.511115 0.503731 0.000000
0.503243 0.499914 0.000000
0.509146 0.494910 0.000000
0.513188 0.475753 0.000000
0.504957 0.474656 0.000000
0.511959 0.464784 0.000000
0.311863 0.447505 0.000000
0.293019 0.442078 0.000000
0.305555 0.431691 0.000000
0.499204 0.464990 0.000000
0.293855 0.459576 0.000000
0.396676 0.236328 0.000000
0.371014 0.247362 0.000000
0.373003 0.229199 0.000000
0.384478 0.261522 0.000000
0.555704 0.523331 0.000000
0.551313 0.515879 0.000000
0.562752 0.515269 0.000000
0.554954 0.506854 0.000000
0.804236 0.611103 0.000000
0.819351 0.593503 0.000000
0.832061 0.615776 0.000000
0.509908 0.485173 0.000000
0.129738 0.481190 0.000000
0.110722 0.443736 0.000000
0.154857 0.452634 0.000000
0.089738 0.485299 0.000000
0.396427 0.153886 0.000000
0.393058 0.115469 0.000000
0.420333 0.126587 0.000000
0.442628 0.413512 0.000000
0.434815 0.404283 0.000000
0.446816 0.400259 0.000000
0.499770 0.482873 0.000000
0.353883 0.235057 0.000000
0.351360 0.254011 0.000000
0.332147 0.240870 0.000000
0.112307 0.405527 0.000000
0.140355 0.392788 0.000000
0.142004 0.423465 0.000000
0.334868 0.263052 0.000000
0.551239 0.594093 0.000000
0.560217 0.601969 0.000000
0.546711 0.604614 0.000000
0.398510 0.570197 0.000000
0.387124 0.557316 0.000000
0.399978 0.555748 0.000000
0.705281 0.743146 0.000000
0.722930 0.758853 0.000000
0.697202 0.758074 0.000000
0.380190 0.572638 0.000000
0.278345 0.431947 0.000000
0.292575 0.428097 0.000000
0.470820 0.540616 0.000000
0.478213 0.533042 0.000000
0.480161 0.543190 0.000000
0.415268 0.299334 0.000000
0.412465 0.313515 0.000000
0.400419 0.297680 0.000000
0.396495 0.317117 0.000000
0.718655 0.732879 0.000000
0.709319 0.677587 0.000000
0.715709 0.670111 0.000000
0.719283 0.682820 0.000000
0.212992 0.453899 0.000000
0.184619 0.470046 0.000000
0.186665 0.440862 0.000000
0.452307 0.386568 0.000000
0.460371 0.397715 0.000000
0.478664 0.456068 0.000000
0.476179 0.462123 0.000000
0.471250 0.456445 0.000000
0.464654 0.388544 0.000000
0.483415 0.461045 0.000000
0.357146 0.449596 0.000000
0.344653 0.443966 0.000000
0.554562 0.459423 0.000000
0.543333 0.457517 0.000000
0.553850 0.449505 0.000000
0.543131 0.445036 0.000000
0.347312 0.459318 0.000000
0.781088 0.538918 0.000000
0.810909 0.534152 0.000000
0.799399 0.553968 0.000000
0.402869 0.534333 0.000000
0.408011 0.546121 0.000000
0.703844 0.670118 0.000000
0.552234 0.794299 0.000000
0.528593 0.795589 0.000000
0.539188 0.770312 0.000000
0.596088 0.518714 0.000000
0.593029 0.508081 0.000000
0.604120 0.510731 0.000000
0.384880 0.468703 0.000000
0.382270 0.455963 0.000000
0.394062 0.458803 0.000000
0.374729 0.466839 0.000000
0.340939 0.294790 0.000000
0.324530 0.290188 0.000000
0.338473 0.279923 0.000000
0.465367 0.336545 0.000000
0.477337 0.352846 0.000000
0.459495 0.350024 0.000000
0.584947 0.516440 0.000000
0.326802 0.302636 0.000000
0.945343 0.420397 0.000000
0.779746 0.749037 0.000000
0.771533 0.774140 0.000000
0.758291 0.749848 0.000000
0.743435 0.765852 0.000000
0.751942 0.297541 0.000000
0.784264 0.292048 0.000000
0.772562 0.330207 0.000000
0.812744 0.305799 0.000000
0.655547 0.494535 0.000000
0.649767 0.472522 0.000000
0.671966 0.480244 0.000000
0.612062 0.502007 0.000000
0.616789 0.515227 0.000000
0.403059 0.898561 0.000000
0.391512 0.946883 0.000000
0.625780 0.504699 0.000000
0.635988 0.491275 0.000000
0.596252 0.650380 0.000000
0.583401 0.655132 0.000000
0.583737 0.644777 0.000000
0.713099 0.416502 0.000000
0.708474 0.388943 0.000000
0.733625 0.389568 0.000000
0.684835 0.406222 0.000000
0.656936 0.416423 0.000000
0.633624 0.425116 0.000000
0.634362 0.400237 0.000000
0.646884 0.740682 0.000000
0.654954 0.726002 0.000000
0.663305 0.741855 0.000000
0.732481 0.441235 0.000000
0.751303 0.460839 0.000000
0.721338 0.462235 0.000000
0.759622 0.437863 0.000000
0.462761 0.363156 0.000000
0.373644 0.622389 0.000000
0.346217 0.613642 0.000000
0.370315 0.594521 0.000000
0.351411 0.640635 0.000000
0.695337 0.690220 0.000000
0.705202 0.700133 0.000000
0.692303 0.700990 0.000000
0.521365 0.516400 0.000000
0.522992 0.510597 0.000000
0.527633 0.513574 0.000000
0.291567 0.329512 0.000000
0.294927 0.318154 0.000000
0.365771 0.366553 0.000000
0.366135 0.358691 0.000000
0.374180 0.368122 0.000000
0.408232 0.327056 0.000000
0.423479 0.328280 0.000000
0.411272 0.339740 0.000000
0.664110 0.670607 0.000000
0.667245 0.662649 0.000000
[...]
POINT_DATA 1818
SCALARS UX float 1
LOOKUP_TABLE default
-0.000004
0.000003
0.062323
-0.561134
-0.169782
-0.034766
0.000001
-0.000000
-0.000000
-0.000000
-0.000000
-0.000000
-0.000000
-0.000000
-0.000000
0.000000
0.000000
0.000000
0.000000
0.000000
0.000001
-0.000000
0.082705
0.131503
0.172188
0.205762
0.229907
0.247142
0.262553
0.275003
0.284870
0.291472
0.293184
0.292546
0.281205
0.235908
0.154913
0.093517
0.011477
-0.029398
-0.060340
-0.089633
-0.118852
-0.147807
-0.176482
-0.205550
-0.235878
-0.267800
-0.301260
-0.336682
-0.374690
-0.415963
-0.460144
-0.509751
-0.552888
-0.546735
-0.543898
-0.541371
-0.539633
-0.540394
-0.542200
-0.543823
-0.543724
-0.538363
-0.526947
-0.499851
-0.465285
-0.421929
-0.305593
-0.177266
-0.163781
-0.163139
-0.162409
-0.162605
-0.160236
-0.159654
-0.156699
-0.156487
-0.154529
-0.151688
-0.152820
-0.151407
-0.151463
-0.154024
-0.149709
-0.150240
-0.155026
-0.153062
-0.152676
-0.147711
-0.145336
-0.142535
-0.140816
-0.137117
-0.135003
-0.133655
-0.131007
-0.127595
-0.127945
-0.125738
-0.130047
-0.133086
-0.129607
-0.128894
-0.119396
-0.114951
-0.112993
-0.105336
-0.102707
-0.093234
-0.090057
-0.084456
-0.081813
-0.080325
-0.080620
-0.078695
-0.078403
-0.074777
-0.073574
-0.072154
-0.068778
-0.069670
-0.067965
-0.065263
-0.065504
-0.063040
-0.063127
-0.064022
-0.062169
-0.060594
-0.055899
-0.052948
-0.049824
-0.042165
-0.043423
-0.041724
-0.002722
0.000171
0.003521
-0.220127
-0.227131
-0.243247
0.004075
-0.027750
-0.043990
-0.012086
-0.020206
-0.013235
-0.020404
-0.016369
0.035009
0.030232
0.037318
-0.313731
-0.309826
-0.309192
-0.327699
-0.350298
-0.340121
0.094707
0.102331
0.062926
-0.305406
-0.017732
0.002398
-0.245029
-0.244026
-0.254093
-0.251109
-0.222869
-0.220114
-0.231331
-0.005332
-0.013232
-0.008950
-0.248872
-0.257931
-0.239260
-0.362708
-0.351566
-0.253591
-0.332119
0.120839
0.114688
0.110668
-0.327591
-0.327167
-0.323747
-0.022194
-0.024843
-0.018143
-0.332387
0.198318
0.223783
0.215041
-0.353787
-0.347818
-0.346158
-0.007635
-0.374403
-0.366159
-0.353570
-0.016440
-0.014317
-0.335089
-0.023099
0.008243
-0.021180
0.021854
0.043242
0.038106
0.042461
-0.376548
-0.385117
-0.377623
0.035108
-0.385875
-0.033193
-0.041897
-0.039970
-0.037702
0.064407
0.062322
0.071132
0.065965
0.186800
0.195388
0.202123
0.038147
-0.470902
-0.483818
-0.458326
-0.493148
-0.026023
-0.021138
-0.018370
0.003458
-0.002090
0.004102
0.027775
-0.046635
-0.049217
-0.054736
-0.483419
-0.466169
-0.465810
-0.056477
-0.252167
-0.244969
-0.252662
-0.326975
-0.334493
-0.329356
-0.117003
-0.103521
-0.125517
-0.334585
-0.391392
-0.383427
-0.303954
-0.300726
-0.299271
-0.024632
-0.023953
-0.030275
-0.029643
-0.097556
0.029697
0.077243
0.041535
-0.427514
-0.442289
-0.440924
0.003884
0.009553
0.022074
0.015008
0.014334
0.009170
0.024296
-0.356775
-0.361502
0.058102
0.053704
0.055515
0.050676
-0.361648
0.171474
0.186476
0.182573
-0.332340
-0.328053
0.044380
-0.201977
-0.213994
-0.211678
0.087435
0.083900
0.088900
-0.346382
-0.346815
-0.340776
-0.350768
-0.057103
-0.066327
-0.057227
-0.001455
0.005879
-0.000989
0.082264
-0.066790
0.234796
0.002427
-0.050485
-0.045396
-0.083537
0.100037
0.112564
0.119185
0.130274
0.105738
0.098404
0.109736
0.089971
0.094807
-0.272784
-0.278126
0.095945
0.096915
-0.211548
-0.216999
-0.220264
0.114356
0.105433
0.117373
0.098737
0.088580
0.080462
0.075021
-0.157722
-0.153894
-0.147762
0.129464
0.143042
0.128696
0.142018
0.002828
-0.327724
-0.343189
-0.334938
-0.335432
-0.091604
-0.082554
-0.110063
-0.026905
0.011743
0.018378
-0.216487
-0.130519
-0.050048
-0.042172
-0.037200
-0.023649
-0.017748
-0.020463
-0.142813
-0.120593
-0.116641
-0.350269
-0.353165
-0.357860
-0.360027
-0.156300
-0.171201
-0.185585
-0.010349
0.017576
0.026737
0.024484
-0.072880
-0.078867
-0.064501
-0.031824
-0.054430
-0.058751
-0.281481
-0.284354
-0.289540
-0.053163
-0.089002
-0.082265
-0.018610
-0.109741
-0.091943
-0.113767
-0.098663
-0.048601
-0.035255
-0.287510
-0.269880
-0.263789
-0.289028
-0.400282
-0.387078
-0.394662
-0.350513
-0.364344
-0.350782
-0.055573
-0.055644
-0.244310
0.079500
0.080006
-0.370771
-0.367581
-0.362117
-0.116602
-0.419705
-0.395438
-0.390733
-0.375397
-0.325108
-0.284661
-0.287846
-0.288893
-0.281339
-0.258351
-0.248501
0.116046
0.110442
0.103291
0.127361
-0.378723
-0.373098
-0.368438
-0.142387
-0.197710
-0.131844
-0.129046
-0.104237
-0.083552
-0.046251
-0.164121
-0.211920
-0.273235
0.096082
0.055516
-0.230822
-0.299830
-0.295191
-0.181608
-0.206728
-0.207224
-0.294867
-0.272329
-0.264634
-0.222143
-0.211775
-0.213593
-0.271727
-0.296718
-0.034544
-0.036363
-0.054106
-0.053374
-0.046856
-0.060269
0.058929
0.056190
0.049481
-0.516303
-0.520402
-0.496289
-0.456855
-0.437014
-0.452569
-0.439077
-0.157480
-0.173329
-0.184025
-0.191660
-0.272407
-0.279610
-0.273558
-0.282712
-0.263381
-0.269152
-0.261541
-0.332549
-0.338176
-0.331489
-0.331736
-0.330507
-0.335300
-0.332644
-0.307201
-0.021764
-0.045951
-0.045662
0.038421
0.028342
0.033033
0.032567
0.159965
0.141282
0.149783
0.174801
0.177514
-0.247417
-0.264335
-0.300504
0.064674
0.067087
0.020554
-0.315754
-0.311149
-0.318004
-0.194334
-0.173479
-0.303171
-0.181522
-0.199625
-0.204905
0.014778
0.020052
0.014577
0.066298
0.069892
0.071157
-0.049751
-0.051206
-0.200657
0.075156
-0.396772
-0.377411
-0.415741
-0.393828
-0.413535
0.019146
0.024915
0.051569
0.056304
0.051558
0.057324
0.051489
-0.503686
-0.169311
-0.154605
-0.166448
-0.159783
-0.363666
-0.386991
-0.369256
0.069305
0.083585
0.095123
-0.044343
0.044658
-0.068437
0.059810
0.061078
-0.155057
-0.143350
-0.146792
-0.362826
-0.355629
-0.355731
-0.209353
-0.218176
-0.486700
0.065093
0.070681
0.066842
-0.002407
-0.002488
-0.237519
-0.231900
-0.223316
0.001375
0.073634
-0.378129
-0.384568
-0.386020
-0.331436
-0.315754
-0.317380
0.002599
0.045337
0.018249
0.039673
-0.012242
0.029016
0.029632
-0.282492
-0.230487
-0.249667
-0.028816
-0.023335
-0.386085
-0.379254
-0.375067
-0.026191
0.000058
-0.004307
-0.006873
-0.386839
-0.397846
-0.394311
-0.118259
-0.155957
-0.097187
-0.063780
-0.066107
-0.077360
-0.387143
-0.346924
0.057520
-0.386443
-0.411578
0.050826
0.062707
0.069490
-0.366767
0.059935
0.048426
-0.278120
-0.273758
0.138304
0.149088
0.145597
-0.285279
0.045472
0.047578
0.103970
-0.317492
-0.318242
-0.312762
-0.201469
-0.187042
-0.076684
-0.323768
0.009910
0.015855
-0.322936
-0.226697
-0.235399
-0.225262
-0.235650
0.191736
0.173032
0.176843
0.060550
0.021837
0.004341
-0.254972
-0.246061
-0.237289
-0.041571
-0.034243
0.025048
-0.026817
-0.001347
0.013796
0.000620
-0.363726
-0.360107
-0.059376
-0.054265
-0.318163
0.091834
0.137158
0.084348
0.249734
0.149732
0.034466
0.041387
0.044453
-0.364909
0.017109
-0.015145
-0.012148
-0.009788
-0.214114
-0.273471
-0.232823
-0.225325
0.071526
-0.287309
-0.244747
-0.365228
-0.371340
-0.367073
-0.307445
-0.301538
-0.303419
-0.317703
0.132174
0.123803
0.138724
-0.297069
-0.013700
0.204737
0.103390
0.101360
0.015705
0.054964
0.009296
0.061889
0.041533
0.070414
-0.028073
-0.296746
-0.168911
-0.316282
-0.319860
-0.379628
-0.396564
-0.007726
-0.001567
-0.086730
-0.113692
0.047456
-0.151621
-0.470965
-0.162419
-0.365401
-0.362061
-0.346857
-0.166677
0.140077
0.133355
0.129616
0.126357
-0.007104
-0.013473
-0.205397
-0.202093
-0.194960
0.123039
0.123698
0.118150
0.116797
0.153888
0.159514
-0.355594
-0.356371
0.194061
-0.502869
-0.452260
-0.483500
0.148538
0.142983
0.132902
-0.208244
-0.219226
-0.200698
0.156751
0.197229
0.128507
0.096379
0.112261
0.076985
-0.228316
0.038713
0.033986
0.029230
0.140366
0.161631
0.161487
-0.396446
-0.423573
-0.432971
0.180387
-0.268616
-0.250311
-0.299562
-0.308155
-0.320893
-0.408806
0.033420
0.023073
0.056260
0.252426
0.248781
0.274199
0.227064
0.222384
0.261143
0.263234
-0.186740
-0.184061
-0.498676
-0.468992
-0.472952
-0.193463
0.042858
-0.014364
-0.487917
-0.477462
-0.497642
-0.395390
-0.394520
-0.519166
0.035494
-0.008164
-0.313088
-0.018485
-0.305813
-0.287023
-0.286395
0.252005
0.267994
-0.123284
-0.133311
-0.106904
-0.032068
-0.060979
-0.016174
-0.069104
-0.101260
-0.040726
-0.031808
-0.036186
-0.277805
-0.354473
-0.373434
-0.285835
-0.385935
-0.394852
-0.393420
-0.519124
-0.522739
-0.023486
-0.033043
-0.019299
-0.034020
-0.036634
-0.168178
-0.158642
-0.164032
-0.503555
-0.011602
-0.014976
-0.207855
-0.224527
-0.224742
0.262192
0.237770
-0.405203
0.165733
0.156916
0.157287
0.166833
-0.457530
-0.454551
-0.441589
0.178866
-0.006873
0.222566
-0.120887
-0.003238
-0.019041
-0.024380
-0.232929
0.008787
-0.010448
-0.181026
-0.172876
-0.170576
0.071031
0.006668
-0.048060
-0.267967
-0.268302
-0.156181
-0.235082
0.074532
0.086780
0.070858
0.095249
-0.370123
-0.370173
-0.289956
-0.222333
-0.014120
-0.030621
0.030412
0.024046
0.017514
-0.019596
-0.059019
-0.435387
-0.417055
-0.430488
-0.421858
-0.233128
-0.441955
-0.436942
-0.456947
-0.427422
-0.430187
-0.261512
-0.252318
-0.289186
-0.273130
-0.259088
-0.074418
-0.064171
-0.196515
-0.182573
-0.473654
-0.508614
-0.456081
0.031177
0.026313
0.029487
-0.275932
-0.284121
-0.013197
-0.017810
-0.417114
-0.428445
-0.415293
-0.353754
-0.348875
-0.344291
-0.161655
-0.177755
-0.407941
0.035281
0.027136
0.017496
-0.348153
-0.342779
-0.331724
-0.350348
-0.356228
-0.449562
0.100894
0.085285
-0.370874
-0.373453
-0.384087
-0.386529
0.018274
0.009358
-0.347558
0.168694
-0.051939
-0.026637
0.011819
0.011890
0.001561
-0.230168
0.001907
-0.326703
-0.283249
-0.276165
-0.287173
-0.288993
-0.368661
-0.374965
-0.382427
-0.003450
-0.007847
-0.390932
0.035038
0.111568
0.109664
-0.504314
-0.477438
-0.482632
-0.215406
-0.225151
-0.225731
-0.410524
0.225359
0.240801
0.219379
0.206867
0.203274
-0.427747
-0.435509
-0.353293
-0.359919
-0.359693
-0.085391
0.052671
-0.014198
0.142283
-0.398878
-0.407065
-0.332558
-0.338733
-0.318515
-0.421697
-0.465211
-0.330979
0.024323
0.024057
0.027620
-0.304925
-0.297151
-0.312589
0.136431
0.140660
0.145444
-0.242695
0.196056
0.186807
-0.453075
-0.219414
-0.018326
-0.481099
-0.517589
-0.205265
-0.218245
0.098934
0.095510
0.093032
-0.045534
-0.041426
0.104469
-0.040762
0.109219
-0.405303
-0.423364
0.133783
0.143916
0.114907
0.038181
-0.038322
0.171209
0.140851
0.201808
0.119890
-0.176087
-0.181049
-0.171860
-0.176244
0.041559
-0.180847
-0.191928
0.041895
-0.373876
-0.336523
-0.356856
-0.270228
-0.266468
0.025014
0.035409
-0.257932
-0.263129
-0.266124
0.035507
0.031602
0.036289
-0.298777
-0.293753
-0.290499
-0.364272
0.151307
0.159175
0.162467
-0.386643
-0.396595
-0.406640
-0.026988
-0.034679
-0.034515
-0.408232
-0.248182
-0.041481
-0.237712
-0.178078
-0.436772
-0.428806
0.214842
0.029680
0.135811
0.120087
-0.287662
-0.294537
-0.141020
-0.147871
-0.029203
-0.450347
-0.145377
-0.343287
-0.419334
-0.407830
-0.337697
-0.338553
-0.342127
0.122270
0.119040
0.120679
0.131222
0.041289
0.050356
0.038817
0.054926
-0.379347
-0.265784
-0.270824
-0.386946
-0.225725
-0.085053
-0.095249
-0.120769
0.203425
0.128449
0.080721
0.010783
-0.124494
-0.173867
-0.384103
-0.377878
-0.372525
-0.417983
-0.123997
-0.050446
-0.075171
-0.170680
-0.079372
0.021834
0.016950
-0.012550
-0.027403
-0.022109
-0.020491
0.112292
0.044773
0.032702
0.026862
-0.131378
0.053934
-0.055132
-0.044503
0.189438
-0.312892
-0.325730
-0.317896
-0.318238
-0.344482
0.174249
0.137788
0.146056
0.127128
0.121322
0.115951
-0.402269
-0.011627
0.010274
0.020363
0.016907
0.006570
0.010513
0.011497
0.228646
0.247641
0.158272
-0.348646
-0.345888
-0.184275
-0.191109
0.103165
0.145725
0.129514
0.131840
-0.338926
-0.334875
-0.089603
-0.097327
-0.185571
-0.371243
-0.364758
-0.139434
-0.376106
0.066521
0.066698
0.062830
-0.142278
-0.135213
0.117111
0.097403
-0.302277
-0.309764
-0.294607
-0.301621
-0.297014
-0.303473
0.050248
0.044168
-0.454405
0.048282
0.062377
0.071439
0.202529
0.202604
0.049434
-0.126144
-0.119191
-0.136022
-0.175302
-0.229228
-0.084081
-0.089947
-0.107587
-0.335941
-0.338107
0.148894
0.066512
0.053817
0.054031
-0.092370
-0.185202
-0.198918
-0.203452
0.078130
0.069437
0.027735
-0.339206
-0.337742
-0.311601
-0.152716
-0.066445
-0.060566
-0.052783
-0.133626
-0.079429
-0.075057
-0.059684
-0.211560
-0.132990
-0.038861
0.149843
0.160492
0.159832
0.120464
0.150157
0.184246
-0.350325
-0.187523
-0.245326
-0.260809
-0.255537
-0.244989
-0.260142
-0.258850
0.026307
0.094567
-0.084172
-0.144783
-0.136515
0.127895
0.127616
0.085577
0.082322
0.076665
-0.259616
-0.310193
-0.120212
0.029466
-0.360541
0.133622
0.133488
0.114953
0.108259
-0.357320
-0.457546
-0.376760
0.119512
0.116405
0.063731
0.052864
0.057602
0.062759
0.116162
0.233426
-0.124212
0.085761
0.032042
0.053791
-0.030634
-0.245685
-0.218254
0.210338
0.015649
-0.237236
0.097743
0.113107
-0.191876
-0.205602
-0.234096
-0.245465
-0.235683
-0.282331
0.091599
0.085444
-0.066737
-0.102096
-0.089193
-0.285205
-0.265064
-0.507473
0.089690
0.089568
0.084535
0.088881
0.093547
-0.333257
0.063864
-0.308684
-0.152786
-0.291846
-0.352823
-0.239979
-0.210718
-0.210689
-0.257666
-0.011936
-0.330903
-0.438906
-0.034345
-0.142175
-0.158577
-0.328036
-0.308021
-0.246355
0.093609
0.004997
0.004136
-0.262997
-0.201423
0.030295
0.071844
-0.311631
-0.319267
-0.320193
0.039430
-0.285072
0.124276
0.116764
-0.001221
-0.246676
-0.255020
-0.256163
-0.279666
-0.275032
-0.057587
-0.139964
0.195850
0.208657
0.034239
-0.063919
0.012040
-0.048938
-0.054049
0.068267
-0.042203
-0.099935
0.175642
-0.164109
-0.336405
-0.337112
0.107820
0.024123
0.030029
0.210975
0.033451
-0.003169
-0.049183
-0.413633
-0.409224
-0.171030
-0.180183
-0.332424
-0.341876
-0.333298
0.222209
-0.341797
-0.232407
-0.277951
0.125646
-0.211991
-0.074218
-0.070528
-0.288680
-0.020798
-0.029719
0.041437
-0.248233
-0.261931
0.078684
0.084934
0.091660
0.093737
0.086668
0.006094
-0.449193
-0.225098
-0.266018
-0.238147
-0.068077
-0.159350
-0.164612
0.040612
0.046585
-0.186261
-0.077083
0.009685
0.009986
0.060759
-0.019205
-0.014277
-0.013270
-0.008636
-0.263553
-0.308683
-0.287088
0.102334
0.100801
0.107659
-0.269241
-0.268898
-0.017009
-0.322196
-0.324134
0.008882
0.014555
0.115781
0.003929
-0.348615
-0.371703
-0.347379
-0.294349
-0.006638
-0.282172
-0.028404
-0.033028
-0.405105
-0.413251
0.010007
-0.062051
-0.000965
-0.271339
0.019916
-0.002998
0.016502
-0.341386
-0.340722
0.043476
-0.292638
-0.352068
-0.427799
-0.445605
-0.379435
-0.274504
-0.255421
-0.243257
0.073096
0.078540
0.077928
-0.307169
-0.298020
-0.030138
-0.031273
-0.317453
-0.315067
-0.324895
-0.187813
-0.182564
-0.282049
-0.309987
0.112381
0.109307
-0.014647
-0.328272
-0.328126
-0.347365
-0.337604
-0.334789
-0.021477
-0.016848
0.068125
0.020041
-0.269462
-0.262879
-0.277077
-0.130327
-0.118334
0.012512
0.009272
-0.322987
0.014572
0.014649
-0.210026
-0.247726
0.000492
-0.006360
-0.280696
-0.266640
-0.038000
0.040611
0.039189
0.090953
-0.331150
0.089849
-0.045242
0.157152
0.156380
-0.344766
-0.343755
-0.165758
-0.162785
-0.190783
-0.195556
0.014994
0.109561
0.018205
-0.231251
0.092691
-0.362173
0.115136
0.091573
0.095420
-0.364937
0.110391
0.070846
0.006005
0.062330
0.057226
-0.118597
0.076451
-0.443288
-0.422338
-0.418592
-0.391518
0.162125
0.073376
0.081574
0.072097
0.006025
-0.417016
0.177260
-0.355293
-0.327271
-0.319826
-0.014090
0.006682
-0.007460
0.076364
0.029994
-0.246173
-0.238211
-0.465072
-0.031637
0.032791
0.068530
-0.509544
-0.508036
-0.239630
0.034376
0.078967
0.035914
0.000263
0.052096
-0.035141
-0.090077
-0.326408
-0.041532
-0.345199
-0.080647
0.060515
0.089284
0.076023
0.054061
0.148319
0.080544
-0.327635
-0.305652
-0.301706
0.197632
0.182432
0.007731
0.091412
-0.268601
-0.277161
-0.278248
0.023140
0.028231
0.024425
0.026879
-0.245758
-0.027302
0.130933
0.077949
-0.300679
-0.253300
-0.424101
-0.093938
0.069758
0.167698
0.149439
-0.301644
-0.314144
-0.406021
0.135101
0.128282
-0.274047
-0.194954
-0.000531
-0.008690
-0.367300
-0.005663
-0.146412
-0.238783
0.140468
0.171553
-0.032102
-0.054758
-0.078064
-0.418925
-0.075289
-0.012058
-0.006534
-0.338250
0.231893
-0.401292
0.020979
0.020309
-0.403011
0.123597
0.076041
0.052881
-0.217780
0.058511
0.005516
-0.264550
0.117091
-0.256425
-0.011159
-0.019866
0.017040
-0.212207
0.053015
-0.244993
-0.101782
-0.047553
-0.043888
-0.255448
0.187116
0.104546
-0.318682
-0.318346
-0.079788
-0.000341
-0.478708
-0.510482
-0.501636
-0.275230
-0.331369
0.056823
-0.300543
0.033388
0.107680
0.106142
-0.152017
-0.292051
-0.308690
-0.276170
0.156293
0.145997
0.043357
0.041650
-0.212168
-0.248726
-0.354768
-0.359577
0.052716
-0.331462
-0.101378
-0.105911
-0.321253
-0.373326
0.076088
0.062491
0.081622
0.087170
-0.127763
0.142638
0.115338
-0.104417
-0.296893
-0.305922
0.090403
0.072915
-0.293703
0.071520
-0.069486
-0.342505
0.101843
-0.223434
-0.376175
0.096886
0.098686
-0.203808
-0.200504
-0.301320
-0.339892
0.096982
0.098907
0.102228
-0.043262
0.047664
-0.115498
-0.285989
-0.385530
-0.034276
0.041885
-0.285727
-0.323163
0.055032
0.102139
-0.009316
0.013455
-0.007413
0.140853
0.199870
-0.175939
-0.171291
-0.230270
-0.359712
0.097920
-0.297318
-0.050940
-0.049771
-0.125137
0.011763
-0.313093
0.088027
-0.312155
-0.115375
0.102592
-0.296150
-0.239635
-0.248743
-0.316382
-0.188277
-0.167322
-0.309396
0.094790
-0.281506
-0.150699
-0.037899
-0.089019
-0.041715
-0.193461
-0.186344
0.045817
-0.306650
-0.312284
-0.060263
-0.132806
-0.039122
-0.223832
-0.258388
-0.217959
-0.270731
-0.212305
-0.054222
-0.259021
-0.205454
-0.087665
-0.113991
-0.288193
0.105880
0.047135
-0.167631
-0.320757
-0.297790
-0.068352
0.013539
0.024012
-0.211648
-0.021024
-0.294644
-0.323159
-0.031309
0.049974
0.065726
0.080762
0.111124
-0.314591
0.028778
-0.297196
-0.193318
-0.302255
0.074407
-0.093258
0.053103
-0.321570
0.029462
0.020000
0.015623
-0.354766
-0.019436
-0.225376
-0.255436
-0.132596
-0.105349
-0.319033
-0.005427
0.071429
-0.215408
-0.274246
-0.029296
SCALARS UY float 1
LOOKUP_TABLE default
-0.000005
-0.000005
-1.234997
-1.234999
-0.350999
-0.831685
-0.000001
-0.000002
-0.000001
-0.000002
-0.000001
-0.000001
-0.000001
-0.000001
-0.000001
-0.000001
-0.000001
-0.000001
-0.000001
-0.000001
-0.000002
-0.000001
-0.089712
-0.154678
-0.216988
-0.277118
-0.341531
-0.403702
-0.462910
-0.520276
-0.577759
-0.634572
-0.691507
-0.749838
-0.810979
-0.893310
-1.001826
-1.116283
-1.234999
-1.234998
-1.234999
-1.234998
-1.234999
-1.234999
-1.234999
-1.234999
-1.234999
-1.234999
-1.234998
-1.234998
-1.234998
-1.234998
-1.234998
-1.234998
-1.160576
-1.088114
-1.018390
-0.950468
-0.885712
-0.824553
-0.765705
-0.710422
-0.660771
-0.619644
-0.585986
-0.556491
-0.510192
-0.430568
-0.284458
-0.138449
-0.358390
-0.360939
-0.371316
-0.374906
-0.381851
-0.386903
-0.395492
-0.401453
-0.406068
-0.412024
-0.415531
-0.427046
-0.436225
-0.437944
-0.447977
-0.452972
-0.462177
-0.470014
-0.476829
-0.486246
-0.493098
-0.499042
-0.503518
-0.513015
-0.521723
-0.519829
-0.530381
-0.540264
-0.543415
-0.554062
-0.563871
-0.575525
-0.587290
-0.586192
-0.596503
-0.601141
-0.600523
-0.608932
-0.608294
-0.617780
-0.620811
-0.629008
-0.632823
-0.644010
-0.655067
-0.663439
-0.670596
-0.681424
-0.689364
-0.697270
-0.708388
-0.713068
-0.717531
-0.729720
-0.737781
-0.747207
-0.755768
-0.764428
-0.771980
-0.780471
-0.788152
-0.794950
-0.801717
-0.811764
-0.814042
-0.819525
-0.057177
-0.029710
-0.064535
-0.765072
-0.785571
-0.792743
-0.033678
-0.413211
-0.415308
-0.388490
-0.139646
-0.150582
-0.159164
-0.172365
-0.347011
-0.329179
-0.338989
-0.748032
-0.746786
-0.756399
-0.539515
-0.565683
-0.545431
-0.637792
-0.641091
-0.675271
-0.752244
-0.385512
-0.366222
-0.869970
-0.881793
-0.865916
-0.880475
-0.849766
-0.864764
-0.863128
-0.023416
-0.057863
-0.028583
-1.188820
-1.150431
-1.146463
-0.588000
-0.580109
-1.114220
-0.553135
-0.595097
-0.610614
-0.605926
-0.748960
-0.741231
-0.749798
-0.302973
-0.290691
-0.292031
-0.736079
-0.394656
-0.410685
-0.432769
-0.633857
-0.620087
-0.628927
-0.051656
-0.554241
-0.534478
-0.528110
-0.055320
-0.039490
-0.504613
-0.069499
-0.469945
-0.489166
-0.445352
-0.410038
-0.409280
-0.397507
-0.642876
-0.637042
-0.625302
-0.397216
-0.655876
-0.175621
-0.184322
-0.168814
-0.197067
-0.469181
-0.458403
-0.458337
-0.446992
-0.627378
-0.609181
-0.635743
-0.423149
-0.675536
-0.638038
-0.648664
-0.677496