# vtk DataFile Version 2.0
Test
ASCII
DATASET POLYDATA
POINTS 1818 float
0.000000 0.000000 0.000000
1.000000 0.000000 0.000000
1.000000 1.000000 0.000000
0.000000 1.000000 0.000000
0.300000 0.330000 0.000000
0.700000 0.680000 0.000000
0.058824 0.000000 0.000000
0.117647 0.000000 0.000000
0.176471 0.000000 0.000000
0.235294 0.000000 0.000000
0.294118 0.000000 0.000000
0.352941 0.000000 0.000000
0.411765 0.000000 0.000000
0.470588 0.000000 0.000000
0.529412 0.000000 0.000000
0.588235 0.000000 0.000000
0.647059 0.000000 0.000000
0.705882 0.000000 0.000000
0.764706 0.000000 0.000000
0.823529 0.000000 0.000000
0.882353 0.000000 0.000000
0.941176 0.000000 0.000000
1.000000 0.058824 0.000000
1.000000 0.117647 0.000000
1.000000 0.176471 0.000000
1.000000 0.235294 0.000000
1.000000 0.294118 0.000000
1.000000 0.352941 0.000000
1.000000 0.411765 0.000000
1.000000 0.470588 0.000000
1.000000 0.529412 0.000000
1.000000 0.588235 0.000000
1.000000 0.647059 0.000000
1.000000 0.705882 0.000000
1.000000 0.764706 0.000000
1.000000 0.823529 0.000000
1.000000 0.882353 0.000000
1.000000 0.941176 0.000000
0.941176 1.000000 0.000000
0.882353 1.000000 0.000000
0.823529 1.000000 0.000000
0.764706 1.000000 0.000000
0.705882 1.000000 0.000000
0.647059 1.000000 0.000000
0.588235 1.000000 0.000000
0.529412 1.000000 0.000000
0.470588 1.000000 0.000000
0.411765 1.000000 0.000000
0.352941 1.000000 0.000000
0.294118 1.000000 0.000000
0.235294 1.000000 0.000000
0.176471 1.000000 0.000000
0.117647 1.000000 0.000000
0.058824 1.000000 0.000000
0.000000 0.941176 0.000000
0.000000 0.882353 0.000000
0.000000 0.823529 0.000000
0.000000 0.764706 0.000000
0.000000 0.705882 0.000000
0.000000 0.647059 0.000000
0.000000 0.588235 0.000000
0.000000 0.529412 0.000000
0.000000 0.470588 0.000000
0.000000 0.411765 0.000000
0.000000 0.352941 0.000000
0.000000 0.294118 0.000000
0.000000 0.235294 0.000000
0.000000 0.176471 0.000000
0.000000 0.117647 0.000000
0.000000 0.058824 0.000000
0.305970 0.335224 0.000000
0.311940 0.340448 0.000000
0.317910 0.345672 0.000000
0.323881 0.350896 0.000000
0.329851 0.356119 0.000000
0.335821 0.361343 0.000000
0.341791 0.366567 0.000000
0.347761 0.371791 0.000000
0.353731 0.377015 0.000000
0.359701 0.382239 0.000000
0.365672 0.387463 0.000000
0.371642 0.392687 0.000000
0.377612 0.397910 0.000000
0.383582 0.403134 0.000000
0.389552 0.408358 0.000000
0.395522 0.413582 0.000000
0.401493 0.418806 0.000000
0.407463 0.424030 0.000000
0.413433 0.429254 0.000000
0.419403 0.434478 0.000000
0.425373 0.439701 0.000000
0.431343 0.444925 0.000000
0.437313 0.450149 0.000000
0.443284 0.455373 0.000000
0.449254 0.460597 0.000000
0.455224 0.465821 0.000000
0.461194 0.471045 0.000000
0.467164 0.476269 0.000000
0.473134 0.481493 0.000000
0.479104 0.486716 0.000000
0.485075 0.491940 0.000000
0.491045 0.497164 0.000000
0.497015 0.502388 0.000000
0.502985 0.507612 0.000000
0.508955 0.512836 0.000000
0.514925 0.518060 0.000000
0.520896 0.523284 0.000000
0.526866 0.528507 0.000000
0.532836 0.533731 0.000000
0.538806 0.538955 0.000000
0.544776 0.544179 0.000000
0.550746 0.549403 0.000000
0.556716 0.554627 0.000000
0.562687 0.559851 0.000000
0.568657 0.565075 0.000000
0.574627 0.570299 0.000000
0.580597 0.575522 0.000000
0.586567 0.580746 0.000000
0.592537 0.585970 0.000000
0.598507 0.591194 0.000000
0.604478 0.596418 0.000000
0.610448 0.601642 0.000000
0.616418 0.606866 0.000000
0.622388 0.612090 0.000000
0.628358 0.617313 0.000000
0.634328 0.622537 0.000000
0.640299 0.627761 0.000000
0.646269 0.632985 0.000000
0.652239 0.638209 0.000000
0.658209 0.643433 0.000000
0.664179 0.648657 0.000000
0.670149 0.653881 0.000000
0.676119 0.659104 0.000000
0.682090 0.664328 0.000000
0.688060 0.669552 0.000000
0.694030 0.674776 0.000000
0.516135 0.080917 0.000000
0.549338 0.042552 0.000000
0.567302 0.088709 0.000000
0.555658 0.563778 0.000000
0.559301 0.571359 0.000000
0.552318 0.570919 0.000000
0.603235 0.047100 0.000000
0.446553 0.448087 0.000000
0.438652 0.443189 0.000000
0.445116 0.440368 0.000000
0.437254 0.190586 0.000000
0.465954 0.201747 0.000000
0.439184 0.213838 0.000000
0.453137 0.228102 0.000000
0.522423 0.410182 0.000000
0.522098 0.390982 0.000000
0.537289 0.398500 0.000000
0.453388 0.527105 0.000000
0.462022 0.524948 0.000000
0.461218 0.533993 0.000000
0.324300 0.374550 0.000000
0.319287 0.386214 0.000000
0.314834 0.375138 0.000000
0.668809 0.628853 0.000000
0.677366 0.632907 0.000000
0.668274 0.639611 0.000000
0.469934 0.529282 0.000000
0.439703 0.436699 0.000000
0.446608 0.432083 0.000000
0.542854 0.633425 0.000000
0.535117 0.647070 0.000000
0.524302 0.633157 0.000000
0.519372 0.648877 0.000000
0.586338 0.611293 0.000000
0.591638 0.624149 0.000000
0.575478 0.621479 0.000000
0.437962 0.035513 0.000000
0.421505 0.085456 0.000000
0.394924 0.044162 0.000000
0.445207 0.955749 0.000000
0.429168 0.919510 0.000000
0.464409 0.914226 0.000000
0.317150 0.400904 0.000000
0.328626 0.395860 0.000000
0.439616 0.884412 0.000000
0.330406 0.381773 0.000000
0.676842 0.602700 0.000000
0.674982 0.614185 0.000000
0.665930 0.611798 0.000000
0.414707 0.535036 0.000000
0.420123 0.526072 0.000000
0.425338 0.533771 0.000000
0.398407 0.375558 0.000000
0.393804 0.363255 0.000000
0.407284 0.365452 0.000000
0.407758 0.523337 0.000000
0.899969 0.377867 0.000000
0.945915 0.378245 0.000000
0.914158 0.409130 0.000000
0.358219 0.436142 0.000000
0.361390 0.425428 0.000000
0.369309 0.432300 0.000000
0.465999 0.075074 0.000000
0.269944 0.367761 0.000000
0.266521 0.352125 0.000000
0.283474 0.357667 0.000000
0.385889 0.083020 0.000000
0.359482 0.060981 0.000000
0.279658 0.346766 0.000000
0.363604 0.104040 0.000000
0.511115 0.503731 0.000000
0.503243 0.499914 0.000000
0.509146 0.494910 0.000000
0.513188 0.475753 0.000000
0.504957 0.474656 0.000000
0.511959 0.464784 0.000000
0.311863 0.447505 0.000000
0.293019 0.442078 0.000000
0.305555 0.431691 0.000000
0.499204 0.464990 0.000000
0.293855 0.459576 0.000000
0.396676 0.236328 0.000000
0.371014 0.247362 0.000000
0.373003 0.229199 0.000000
0.384478 0.261522 0.000000
0.555704 0.523331 0.000000
0.551313 0.515879 0.000000
0.562752 0.515269 0.000000
0.554954 0.506854 0.000000
0.804236 0.611103 0.000000
0.819351 0.593503 0.000000
0.832061 0.615776 0.000000
0.509908 0.485173 0.000000
0.129738 0.481190 0.000000
0.110722 0.443736 0.000000
0.154857 0.452634 0.000000
0.089738 0.485299 0.000000
0.396427 0.153886 0.000000
0.393058 0.115469 0.000000
0.420333 0.126587 0.000000
0.442628 0.413512 0.000000
0.434815 0.404283 0.000000
0.446816 0.400259 0.000000
0.499770 0.482873 0.000000
0.353883 0.235057 0.000000
0.351360 0.254011 0.000000
0.332147 0.240870 0.000000
0.112307 0.405527 0.000000
0.140355 0.392788 0.000000
0.142004 0.423465 0.000000
0.334868 0.263052 0.000000
0.551239 0.594093 0.000000
0.560217 0.601969 0.000000
0.546711 0.604614 0.000000
0.398510 0.570197 0.000000
0.387124 0.557316 0.000000
0.399978 0.555748 0.000000
0.705281 0.743146 0.000000
0.722930 0.758853 0.000000
0.697202 0.758074 0.000000
0.380190 0.572638 0.000000
0.278345 0.431947 0.000000
0.292575 0.428097 0.000000
0.470820 0.540616 0.000000
0.478213 0.533042 0.000000
0.480161 0.543190 0.000000
0.415268 0.299334 0.000000
0.412465 0.313515 0.000000
0.400419 0.297680 0.000000
0.396495 0.317117 0.000000
0.718655 0.732879 0.000000
0.709319 0.677587 0.000000
0.715709 0.670111 0.000000
0.719283 0.682820 0.000000
0.212992 0.453899 0.000000
0.184619 0.470046 0.000000
0.186665 0.440862 0.000000
0.452307 0.386568 0.000000
0.460371 0.397715 0.000000
0.478664 0.456068 0.000000
0.476179 0.462123 0.000000
0.471250 0.456445 0.000000
0.464654 0.388544 0.000000
0.483415 0.461045 0.000000
0.357146 0.449596 0.000000
0.344653 0.443966 0.000000
0.554562 0.459423 0.000000
0.543333 0.457517 0.000000
0.553850 0.449505 0.000000
0.543131 0.445036 0.000000
0.347312 0.459318 0.000000
0.781088 0.538918 0.000000
0.810909 0.534152 0.000000
0.799399 0.553968 0.000000
0.402869 0.534333 0.000000
0.408011 0.546121 0.000000
0.703844 0.670118 0.000000
0.552234 0.794299 0.000000
0.528593 0.795589 0.000000
0.539188 0.770312 0.000000
0.596088 0.518714 0.000000
0.593029 0.508081 0.000000
0.604120 0.510731 0.000000
0.384880 0.468703 0.000000
0.382270 0.455963 0.000000
0.394062 0.458803 0.000000
0.374729 0.466839 0.000000
0.340939 0.294790 0.000000
0.324530 0.290188 0.000000
0.338473 0.279923 0.000000
0.465367 0.336545 0.000000
0.477337 0.352846 0.000000
0.459495 0.350024 0.000000
0.584947 0.516440 0.000000
0.326802 0.302636 0.000000
0.945343 0.420397 0.000000
0.779746 0.749037 0.000000
0.771533 0.774140 0.000000
0.758291 0.749848 0.000000
0.743435 0.765852 0.000000
0.751942 0.297541 0.000000
0.784264 0.292048 0.000000
0.772562 0.330207 0.000000
0.812744 0.305799 0.000000
0.655547 0.494535 0.000000
0.649767 0.472522 0.000000
0.671966 0.480244 0.000000
0.612062 0.502007 0.000000
0.616789 0.515227 0.000000
0.403059 0.898561 0.000000
0.391512 0.946883 0.000000
0.625780 0.504699 0.000000
0.635988 0.491275 0.000000
0.596252 0.650380 0.000000
0.583401 0.655132 0.000000
0.583737 0.644777 0.000000
0.713099 0.416502 0.000000
0.708474 0.388943 0.000000
0.733625 0.389568 0.000000
0.684835 0.406222 0.000000
0.656936 0.416423 0.000000
0.633624 0.425116 0.000000
0.634362 0.400237 0.000000
0.646884 0.740682 0.000000
0.654954 0.726002 0.000000
0.663305 0.741855 0.000000
0.732481 0.441235 0.000000
0.751303 0.460839 0.000000
0.721338 0.462235 0.000000
0.759622 0.437863 0.000000
0.462761 0.363156 0.000000
0.373644 0.622389 0.000000
0.346217 0.613642 0.000000
0.370315 0.594521 0.000000
0.351411 0.640635 0.000000
0.695337 0.690220 0.000000
0.705202 0.700133 0.000000
0.692303 0.700990 0.000000
0.521365 0.516400 0.000000
0.522992 0.510597 0.000000
0.527633 0.513574 0.000000
0.291567 0.329512 0.000000
0.294927 0.318154 0.000000
0.365771 0.366553 0.000000
0.366135 0.358691 0.000000
0.374180 0.368122 0.000000
0.408232 0.327056 0.000000
0.423479 0.328280 0.000000
0.411272 0.339740 0.000000
0.664110 0.670607 0.000000
0.667245 0.662649 0.000000
[...]
POINT_DATA 1818
SCALARS UX float 1
LOOKUP_TABLE default
-0.000003
0.000002
-0.167614
-0.737519
-0.220371
-0.198144
0.000000
-0.000000
-0.000000
-0.000000
-0.000000
-0.000000
-0.000000
-0.000000
-0.000000
0.000000
0.000000
0.000000
0.000000
0.000000
0.000000
-0.000000
0.044140
0.066336
0.082748
0.097694
0.110951
0.123514
0.135432
0.146312
0.156470
0.165587
0.170695
0.173513
0.171740
0.126507
0.054343
-0.061855
-0.260917
-0.351526
-0.395551
-0.423558
-0.448691
-0.471623
-0.493846
-0.516768
-0.540852
-0.565773
-0.591802
-0.619108
-0.646545
-0.672631
-0.696922
-0.717653
-0.732706
-0.725364
-0.715584
-0.705070
-0.693288
-0.680906
-0.668569
-0.656548
-0.645065
-0.633131
-0.620186
-0.604014
-0.584544
-0.530377
-0.356483
-0.181099
-0.216306
-0.208629
-0.206893
-0.204791
-0.200220
-0.192032
-0.190898
-0.183604
-0.182000
-0.176622
-0.173795
-0.171996
-0.169265
-0.168398
-0.167911
-0.164474
-0.215118
-0.211447
-0.209305
-0.206121
-0.206957
-0.201778
-0.201492
-0.199279
-0.195879
-0.200741
-0.203361
-0.199789
-0.201918
-0.208927
-0.209955
-0.204462
-0.197984
-0.202479
-0.202473
-0.202669
-0.205183
-0.201413
-0.202306
-0.197960
-0.199222
-0.197746
-0.196558
-0.191134
-0.198227
-0.196148
-0.188635
-0.181591
-0.207171
-0.210159
-0.199864
-0.211961
-0.209878
-0.218884
-0.230240
-0.222883
-0.227254
-0.228899
-0.222571
-0.220574
-0.217414
-0.215749
-0.208238
-0.206209
-0.201233
-0.202010
-0.000186
0.000453
0.001664
-0.326442
-0.346506
-0.371274
0.001522
-0.107666
-0.124492
-0.083157
-0.010628
-0.007739
-0.012699
-0.011737
-0.010546
-0.009001
-0.004555
-0.467344
-0.456451
-0.464491
-0.367926
-0.420047
-0.391075
-0.009772
-0.004706
-0.059508
-0.451308
-0.088881
-0.061486
-0.453170
-0.466033
-0.469688
-0.479277
-0.374758
-0.381678
-0.408438
-0.000591
-0.002914
-0.001153
-0.548436
-0.553094
-0.537939
-0.457545
-0.428935
-0.546879
-0.380486
0.026385
0.015887
0.007417
-0.502932
-0.494311
-0.494315
-0.066596
-0.061970
-0.053319
-0.501962
0.101236
0.114241
0.111341
-0.468979
-0.443617
-0.444020
-0.001445
-0.446271
-0.419634
-0.403326
-0.003525
-0.002264
-0.371843
-0.006038
-0.070683
-0.103949
-0.060494
-0.027777
-0.033608
-0.023920
-0.516772
-0.525960
-0.507847
-0.032534
-0.537083
-0.023923
-0.033012
-0.028031
-0.031976
-0.021168
-0.018249
-0.005816
-0.007846
0.102239
0.108738
0.114474
-0.039370
-0.606978
-0.603374
-0.591853
-0.619753
-0.010665
-0.006275
-0.006071
-0.048261
-0.049865
-0.040086
-0.052862
-0.034399
-0.041446
-0.042929
-0.594137
-0.580119
-0.587678
-0.052340
-0.418533
-0.412042
-0.433537
-0.528850
-0.531117
-0.522356
-0.341704
-0.327618
-0.372252
-0.540594
-0.527724
-0.513994
-0.460415
-0.445585
-0.454016
-0.030215
-0.034302
-0.034535
-0.041475
-0.294187
-0.072459
-0.012020
-0.024296
-0.573528
-0.588112
-0.577915
-0.034009
-0.032612
-0.044741
-0.057725
-0.056583
-0.029127
-0.042746
-0.487110
-0.490313
-0.000925
-0.005921
-0.000951
-0.005533
-0.500366
0.089609
0.100627
0.098334
-0.510819
-0.512778
-0.048858
-0.491844
-0.502633
-0.494728
0.009958
0.010910
0.015213
-0.484667
-0.473391
-0.462792
-0.491197
-0.065665
-0.077919
-0.059824
-0.021449
-0.019538
-0.025284
0.005441
-0.084285
0.122257
-0.158816
-0.253761
-0.224290
-0.297614
0.045016
0.052059
0.056267
0.062465
0.037823
0.035601
0.043712
0.019817
0.020630
-0.563477
-0.570910
0.025614
0.030406
-0.405155
-0.422744
-0.414297
0.052586
0.047814
0.055134
0.042917
0.035212
0.028253
0.027049
-0.418010
-0.399527
-0.401618
0.061137
0.069185
0.059457
0.069159
-0.025966
-0.556226
-0.567137
-0.551882
-0.569284
-0.256178
-0.248761
-0.292736
-0.111619
-0.071019
-0.067578
-0.264486
-0.189583
-0.104889
-0.087861
-0.087988
-0.039671
-0.034041
-0.042092
-0.306440
-0.270003
-0.267408
-0.502469
-0.520380
-0.516668
-0.532400
-0.293853
-0.326249
-0.342423
-0.090503
0.003007
0.007836
0.005126
-0.125823
-0.131680
-0.103419
-0.095698
-0.121069
-0.125599
-0.471566
-0.486512
-0.478866
-0.116121
-0.140033
-0.137241
-0.028874
-0.362873
-0.342017
-0.393214
-0.378358
-0.032022
-0.072063
-0.416906
-0.381830
-0.375991
-0.410055
-0.514769
-0.491435
-0.512332
-0.408191
-0.445680
-0.404019
-0.122934
-0.125352
-0.481878
0.006752
0.010147
-0.556147
-0.542848
-0.546216
-0.172517
-0.657863
-0.640389
-0.644126
-0.630369
-0.365685
-0.443521
-0.455493
-0.446939
-0.448780
-0.321689
-0.312997
0.018410
0.013859
-0.001127
0.034254
-0.532793
-0.520140
-0.500187
-0.202716
-0.260447
-0.181568
-0.115435
-0.091899
-0.058614
-0.026004
-0.155346
-0.226097
-0.287436
-0.013387
-0.031621
-0.288149
-0.433775
-0.430029
-0.300903
-0.349809
-0.340664
-0.438512
-0.305633
-0.288737
-0.487632
-0.471521
-0.482568
-0.330868
-0.367648
-0.041650
-0.038758
-0.078800
-0.067479
-0.061208
-0.079129
0.012536
0.007839
0.005621
-0.665914
-0.654665
-0.647185
-0.659547
-0.653104
-0.665222
-0.646519
-0.314389
-0.352038
-0.297927
-0.306470
-0.416299
-0.432576
-0.410221
-0.429175
-0.399885
-0.416744
-0.401297
-0.448869
-0.462383
-0.433926
-0.455687
-0.461279
-0.471657
-0.473419
-0.471534
-0.089604
-0.121025
-0.116856
0.010013
0.004954
0.008560
0.005065
0.079732
0.069046
0.073722
0.087794
0.089973
-0.272846
-0.287931
-0.333080
-0.043376
-0.040007
-0.103042
-0.444697
-0.438611
-0.459667
-0.352669
-0.312765
-0.422524
-0.319422
-0.344724
-0.379524
-0.025976
-0.025634
-0.031066
-0.003505
0.001468
-0.001090
-0.050575
-0.048141
-0.394919
0.005366
-0.634433
-0.625720
-0.640754
-0.626317
-0.632205
0.000353
0.001372
-0.011245
-0.008469
-0.014560
-0.004292
0.002881
-0.617322
-0.470829
-0.458988
-0.473852
-0.456374
-0.410747
-0.464832
-0.381018
-0.051916
-0.031495
-0.008085
-0.039866
-0.000392
-0.310364
-0.006744
-0.002437
-0.369527
-0.344271
-0.371076
-0.482190
-0.455440
-0.468945
-0.426636
-0.437337
-0.654253
0.010465
0.013577
0.008615
-0.043634
-0.037086
-0.515833
-0.502915
-0.504044
-0.031294
0.012972
-0.542601
-0.554779
-0.547710
-0.425958
-0.397414
-0.407283
-0.084431
-0.041704
-0.077022
-0.046512
-0.098580
-0.102608
-0.109457
-0.366705
-0.301323
-0.322287
-0.061739
-0.051447
-0.571781
-0.562867
-0.569511
-0.046283
-0.000520
-0.003652
-0.003465
-0.579807
-0.589388
-0.579970
-0.167901
-0.218881
-0.130096
-0.059248
-0.071319
-0.087868
-0.653266
-0.624758
-0.020869
-0.463283
-0.505671
-0.037501
0.002025
0.007031
-0.636992
0.003762
-0.010575
-0.458363
-0.463978
0.064902
0.072679
0.069454
-0.464405
-0.016395
-0.018945
0.041712
-0.477508
-0.469587
-0.477419
-0.227624
-0.217066
-0.067973
-0.475460
-0.037704
-0.035942
-0.464765
-0.447583
-0.448412
-0.430357
-0.464823
0.101563
0.089558
0.091156
-0.073123
-0.115036
-0.139282
-0.539893
-0.528080
-0.525639
-0.041201
-0.032433
-0.054894
-0.110468
-0.081906
-0.060150
0.000667
-0.474745
-0.458499
-0.139575
-0.136453
-0.352335
-0.020112
0.043274
-0.031844
0.131859
0.059391
0.012501
0.015549
0.016691
-0.442164
-0.059070
-0.038259
-0.031800
-0.035227
-0.282540
-0.362678
-0.429307
-0.411499
-0.043953
-0.319026
-0.285806
-0.514940
-0.526838
-0.509500
-0.481878
-0.477381
-0.487429
-0.376154
0.038277
0.024970
0.053596
-0.481841
-0.006542
0.102402
0.032066
0.026199
-0.079072
-0.042805
-0.085166
-0.029938
-0.065894
-0.027700
-0.089093
-0.351582
-0.291336
-0.371179
-0.356381
-0.613765
-0.621131
-0.022435
-0.017160
-0.132768
-0.171659
-0.022770
-0.420227
-0.637135
-0.435048
-0.600753
-0.605479
-0.593971
-0.429997
0.061772
0.053649
0.051059
0.044552
-0.027823
-0.027854
-0.452749
-0.435452
-0.443007
0.049017
0.047082
0.044029
0.040392
0.073598
0.076951
-0.616124
-0.611833
0.094820
-0.701444
-0.678903
-0.699643
0.069688
0.052692
0.029544
-0.508471
-0.512065
-0.496499
0.070456
0.101977
0.059022
0.040288
0.050891
0.030860
-0.523288
0.002797
-0.002984
-0.002356
0.045303
0.068617
0.069461
-0.656269
-0.675386
-0.675583
0.094694
-0.345211
-0.322416
-0.379761
-0.387622
-0.381743
-0.522420
0.010611
0.006900
0.019352
0.152132
0.147161
0.162510
0.135785
0.126546
0.158551
0.157778
-0.479344
-0.483039
-0.598598
-0.580962
-0.576264
-0.494708
0.013762
-0.023371
-0.588839
-0.583990
-0.599725
-0.553839
-0.542753
-0.616218
0.011102
-0.017913
-0.598309
-0.007723
-0.581279
-0.566139
-0.569074
0.136551
0.149667
-0.445580
-0.443570
-0.425348
-0.335563
-0.374454
-0.282482
-0.399250
-0.429071
-0.361671
-0.050889
-0.049126
-0.289767
-0.383181
-0.411195
-0.309961
-0.562914
-0.572856
-0.562153
-0.633350
-0.625397
-0.005442
-0.011109
-0.003765
-0.010643
-0.012227
-0.409505
-0.393785
-0.414979
-0.608938
-0.001623
-0.003093
-0.336020
-0.368216
-0.356863
0.151238
0.137179
-0.574331
0.084625
0.076199
0.077742
0.085218
-0.608766
-0.598418
-0.596737
0.095721
-0.001785
0.129389
-0.376241
-0.001163
-0.015543
-0.017751
-0.363443
0.002862
-0.004002
-0.459716
-0.444522
-0.452826
-0.051203
-0.145672
-0.054762
-0.552849
-0.556427
-0.441000
-0.388689
0.030717
0.037516
0.029113
0.041849
-0.484823
-0.494080
-0.575420
-0.522954
-0.003849
-0.011787
0.011132
0.008471
0.006374
-0.008613
-0.027362
-0.624889
-0.618902
-0.632993
-0.613044
-0.476936
-0.606413
-0.614910
-0.619466
-0.602318
-0.594753
-0.463376
-0.450111
-0.563938
-0.552906
-0.447390
-0.070394
-0.050157
-0.482363
-0.467851
-0.659574
-0.672015
-0.640449
-0.020896
-0.022948
-0.016852
-0.487911
-0.497552
-0.043131
-0.045206
-0.583716
-0.584372
-0.573322
-0.535486
-0.521433
-0.526236
-0.156046
-0.196439
-0.608170
-0.015675
0.009070
0.005439
-0.541225
-0.580625
-0.580569
-0.589861
-0.547028
-0.579230
0.045713
0.036880
-0.590666
-0.598711
-0.601144
-0.609406
0.004751
0.000144
-0.509448
0.083501
-0.120818
-0.089522
0.002558
-0.000990
-0.004825
-0.362790
-0.007227
-0.570607
-0.515956
-0.521259
-0.526680
-0.536869
-0.575437
-0.585698
-0.583403
-0.031616
-0.039954
-0.596334
-0.104541
0.039037
0.033646
-0.637671
-0.620543
-0.633313
-0.462331
-0.478300
-0.463608
-0.496536
0.122539
0.133693
0.121688
0.112250
0.111831
-0.533077
-0.526973
-0.580646
-0.576965
-0.590726
-0.410249
-0.094859
-0.199411
0.050314
-0.609556
-0.621036
-0.606015
-0.607437
-0.593043
-0.488025
-0.568206
-0.597577
-0.010646
-0.015585
-0.006601
-0.428386
-0.411921
-0.453345
0.054044
0.061510
0.065453
-0.290290
0.108249
0.102021
-0.573867
-0.451281
-0.117099
-0.684598
-0.700193
-0.510362
-0.524086
0.019113
0.014442
0.015272
-0.067508
-0.056604
0.024549
-0.048249
0.026831
-0.508535
-0.540648
0.036674
0.061807
0.034514
0.013477
-0.059216
0.088067
0.044094
0.113188
0.016986
-0.418461
-0.412755
-0.399939
-0.392193
0.001370
-0.485220
-0.497448
-0.005451
-0.638414
-0.613291
-0.622633
-0.471912
-0.456594
-0.001476
0.003946
-0.483674
-0.492747
-0.481353
-0.023941
-0.024784
-0.019634
-0.507322
-0.492753
-0.501396
-0.558236
0.070704
0.077677
0.079416
-0.500032
-0.525351
-0.534054
-0.013649
-0.016922
-0.021013
-0.544973
-0.538281
-0.025578
-0.533414
-0.486625
-0.565122
-0.565174
0.122494
-0.029866
0.066045
0.056896
-0.509445
-0.512687
-0.423703
-0.439897
-0.010638
-0.627474
-0.418815
-0.512658
-0.545002
-0.521023
-0.493201
-0.503487
-0.500743
0.042705
0.035142
0.033950
0.055044
0.015103
0.019065
0.014343
0.021366
-0.456246
-0.505783
-0.497239
-0.486278
-0.271427
-0.237226
-0.251383
-0.279197
0.106610
-0.017474
-0.103279
-0.004080
-0.301543
-0.470343
-0.504957
-0.499441
-0.479620
-0.555317
-0.135576
-0.055667
-0.096215
-0.460963
-0.109540
-0.007846
-0.007388
-0.003765
-0.027453
-0.020427
-0.024607
0.007808
0.015389
0.011188
0.008664
-0.334209
0.020045
-0.034994
-0.024346
0.101570
-0.571628
-0.584394
-0.569974
-0.585029
-0.599806
0.091230
0.058660
0.067440
0.040548
0.029746
0.017163
-0.544812
-0.049528
0.003753
0.006993
0.006181
-0.027317
-0.020513
-0.024335
0.129152
0.140378
0.079199
-0.563645
-0.551311
-0.431674
-0.422404
0.017658
0.071681
0.061930
0.063676
-0.485702
-0.484437
-0.125149
-0.141926
-0.366474
-0.538587
-0.526742
-0.396959
-0.552386
0.018393
0.016587
0.012018
-0.379072
-0.352326
0.019387
0.003789
-0.560383
-0.559484
-0.549483
-0.546945
-0.561654
-0.571118
0.016504
0.011100
-0.566310
0.017483
0.018029
0.022795
0.115936
0.114616
0.008900
-0.404610
-0.416486
-0.430587
-0.433237
-0.515009
-0.062915
-0.084671
-0.093484
-0.522014
-0.513334
0.069603
0.026669
0.020746
0.019599
-0.243851
-0.402967
-0.460626
-0.473136
-0.031266
-0.027857
-0.095251
-0.401369
-0.398052
-0.352052
-0.463154
-0.040922
-0.028241
-0.026622
-0.401278
-0.047358
-0.040773
-0.026292
-0.444740
-0.371115
-0.016712
0.071599
0.080796
0.080230
0.026505
0.071639
0.097590
-0.467205
-0.498789
-0.509844
-0.525347
-0.514202
-0.516690
-0.531204
-0.431844
0.009545
-0.007060
-0.392567
-0.461426
-0.459596
0.040268
0.037917
0.034980
0.018978
0.011113
-0.290737
-0.344691
-0.267705
0.010539
-0.509647
0.050582
0.051892
0.017555
0.005720
-0.494914
-0.575217
-0.471328
0.050459
0.045598
0.021435
0.014283
0.019225
0.023638
0.050431
0.131836
-0.274272
-0.026722
-0.104546
-0.092956
-0.025462
-0.396230
-0.398190
0.120506
-0.004287
-0.383807
-0.001662
0.026938
-0.468225
-0.482768
-0.495126
-0.501300
-0.488744
-0.554813
0.009506
0.002290
-0.123213
-0.154898
-0.146421
-0.549708
-0.443380
-0.605149
0.023685
0.026948
0.015974
0.029583
0.035678
-0.490569
-0.062620
-0.342529
-0.280828
-0.469153
-0.486409
-0.360950
-0.317080
-0.318719
-0.290228
-0.080592
-0.371983
-0.558240
-0.099448
-0.313650
-0.343505
-0.356306
-0.343865
-0.269383
-0.010149
-0.015710
-0.012331
-0.323755
-0.332474
-0.079454
-0.014094
-0.545630
-0.558164
-0.543130
-0.038249
-0.352769
0.037596
0.023729
-0.012640
-0.384998
-0.395604
-0.410369
-0.503146
-0.509154
-0.096053
-0.321039
0.102625
0.111580
-0.108037
-0.093228
-0.136735
-0.094798
-0.107582
-0.054639
-0.079051
-0.069261
0.092703
-0.340228
-0.413466
-0.409868
0.018485
-0.047119
-0.036180
0.118328
-0.029314
-0.084574
-0.138593
-0.596524
-0.601955
-0.370605
-0.377718
-0.424153
-0.449320
-0.425665
0.117690
-0.442873
-0.336042
-0.402345
0.053127
-0.379791
-0.115270
-0.099521
-0.428195
-0.071965
-0.087295
-0.051509
-0.375701
-0.412981
-0.017090
-0.011714
0.003975
0.001562
-0.000914
-0.115037
-0.644731
-0.289854
-0.336589
-0.305844
-0.121148
-0.477317
-0.477078
-0.010501
-0.005459
-0.294881
-0.094925
-0.071767
-0.133005
-0.074301
-0.073121
-0.060758
-0.063913
-0.052060
-0.427261
-0.420944
-0.362517
0.006962
0.000339
0.011393
-0.427979
-0.440233
-0.060372
-0.446434
-0.442710
0.002409
0.004911
0.026300
-0.000435
-0.389576
-0.441175
-0.466100
-0.523045
-0.044608
-0.369635
-0.053503
-0.059709
-0.558605
-0.559543
-0.010151
-0.141689
-0.082706
-0.453089
-0.021471
-0.000273
-0.020236
-0.531830
-0.539260
0.007942
-0.460490
-0.436619
-0.527095
-0.533689
-0.435461
-0.444718
-0.330562
-0.354268
-0.013875
-0.009251
-0.001622
-0.532401
-0.536253
-0.077383
-0.071923
-0.524491
-0.532714
-0.537214
-0.449774
-0.451975
-0.398800
-0.522356
0.018333
0.010401
-0.019028
-0.479190
-0.488166
-0.437524
-0.408858
-0.396726
-0.079867
-0.072803
-0.039850
-0.104113
-0.541368
-0.541369
-0.476383
-0.350134
-0.315069
-0.013577
-0.045330
-0.484245
0.004418
0.004299
-0.343202
-0.345842
-0.059604
-0.067141
-0.414583
-0.384689
-0.067559
-0.019325
-0.024020
-0.016140
-0.380898
-0.020456
-0.122136
0.078610
0.078081
-0.497482
-0.487493
-0.377410
-0.389561
-0.389316
-0.408050
-0.117879
0.010488
-0.014614
-0.392393
-0.015645
-0.450434
0.052548
0.038743
0.040267
-0.452277
0.010290
0.027347
-0.063061
-0.005999
-0.012756
-0.328719
0.029696
-0.667062
-0.652273
-0.662494
-0.492524
0.081605
0.021873
0.026173
0.017857
0.002210
-0.591392
0.090546
-0.501305
-0.467019
-0.446371
-0.015101
-0.008373
-0.013617
0.001630
-0.012718
-0.431140
-0.439780
-0.696150
-0.022799
-0.199422
-0.128049
-0.714682
-0.717333
-0.428196
0.010988
0.034807
0.014180
-0.277370
-0.159183
-0.194547
-0.269527
-0.399169
-0.206429
-0.420996
-0.138760
-0.011204
-0.009970
-0.039208
-0.014200
0.071005
-0.034588
-0.459855
-0.510042
-0.518463
0.102638
0.096419
0.003117
0.002873
-0.524361
-0.529886
-0.536969
-0.040571
-0.035341
-0.034239
-0.027770
-0.441356
-0.016628
0.049027
0.031857
-0.348468
-0.529443
-0.607919
-0.112667
-0.089232
0.055456
0.043725
-0.581746
-0.593621
-0.584582
0.060744
0.057622
-0.539258
-0.373011
-0.003632
-0.007200
-0.424755
-0.007456
-0.445838
-0.411962
0.063498
0.089806
-0.263799
-0.338263
-0.357961
-0.539038
-0.060271
-0.010971
-0.010074
-0.472395
0.136998
-0.655179
-0.029403
-0.036115
-0.565104
0.056620
0.017385
-0.000124
-0.492596
0.006130
-0.133030
-0.515693
0.052929
-0.506150
-0.065942
-0.083180
0.005432
-0.265338
0.018534
-0.491995
-0.404927
-0.018488
-0.017210
-0.493286
0.103008
0.047762
-0.388950
-0.386857
-0.045384
-0.229100
-0.672925
-0.689953
-0.677587
-0.433346
-0.479446
-0.072961
-0.573640
-0.096866
0.047475
0.045087
-0.346707
-0.579765
-0.591976
-0.295044
0.077866
0.071954
-0.036048
-0.040877
-0.315946
-0.372017
-0.552832
-0.563830
-0.022559
-0.382323
-0.159176
-0.162851
-0.515346
-0.617555
0.031242
0.024638
0.022997
0.037851
-0.155226
0.069284
0.053273
-0.073052
-0.418131
-0.441283
0.039004
0.028391
-0.447967
-0.011135
-0.251726
-0.476585
0.001245
-0.322393
-0.474543
0.011441
0.041334
-0.410792
-0.421364
-0.496791
-0.447488
0.002122
0.008734
0.010856
-0.072085
-0.001716
-0.422851
-0.307904
-0.469605
-0.195636
-0.014549
-0.305860
-0.427891
-0.078662
0.000740
-0.090341
-0.054424
-0.054591
0.067531
0.101397
-0.299072
-0.298436
-0.331251
-0.570559
0.042889
-0.470012
-0.089697
-0.079682
-0.275084
-0.111104
-0.512559
-0.016978
-0.420722
-0.170807
0.000565
-0.379425
-0.314225
-0.325039
-0.502922
-0.321086
-0.292961
-0.498949
-0.005483
-0.329248
-0.313075
-0.100745
-0.140006
-0.136601
-0.306983
-0.301982
-0.009203
-0.420832
-0.429834
-0.112158
-0.271983
-0.094017
-0.285445
-0.383547
-0.317918
-0.394539
-0.307169
-0.116212
-0.377519
-0.302269
-0.143317
-0.264339
-0.436855
0.003334
-0.073527
-0.300909
-0.353581
-0.334810
-0.129236
-0.045114
-0.020384
-0.310445
-0.101331
-0.345302
-0.380285
-0.110428
-0.022524
0.000523
-0.010057
0.019765
-0.491672
-0.105623
-0.459798
-0.227027
-0.468725
0.028125
-0.148874
-0.024938
-0.501569
-0.044847
-0.041132
-0.046668
-0.422762
-0.116116
-0.329302
-0.366496
-0.281445
-0.160208
-0.487971
-0.060516
0.005221
-0.359787
-0.405541
-0.082623
SCALARS UY float 1
LOOKUP_TABLE default
-0.000003
-0.000003
-0.909999
-0.909999
-0.253435
-0.521309
-0.000001
-0.000001
-0.000001
-0.000001
-0.000001
-0.000001
-0.000001
-0.000001
-0.000001
-0.000001
-0.000001
-0.000001
-0.000001
-0.000001
-0.000001
-0.000001
-0.044900
-0.076888
-0.102264
-0.126938
-0.151113
-0.175774
-0.200633
-0.225268
-0.249711
-0.272944
-0.293374
-0.312588
-0.335196
-0.377849
-0.564845
-0.726911
-0.909999
-0.909999
-0.909999
-0.909999
-0.909999
-0.909999
-0.909999
-0.909999
-0.909999
-0.909999
-0.909999
-0.909999
-0.909999
-0.909999
-0.909999
-0.909999
-0.881657
-0.853254
-0.825282
-0.798230
-0.771608
-0.745781
-0.720016
-0.693505
-0.665370
-0.637498
-0.611305
-0.587492
-0.554228
-0.481797
-0.311555
-0.157689
-0.253313
-0.253581
-0.253650
-0.250932
-0.251193
-0.252406
-0.249969
-0.254472
-0.244226
-0.244145
-0.241876
-0.241234
-0.242143
-0.240382
-0.239332
-0.241880
-0.293758
-0.296080
-0.296976
-0.300013
-0.296762
-0.300454
-0.300400
-0.304122
-0.309071
-0.302706
-0.311346
-0.320108
-0.326136
-0.323975
-0.328831
-0.341830
-0.354566
-0.353261
-0.358098
-0.363104
-0.363242
-0.370421
-0.367891
-0.371884
-0.373384
-0.378809
-0.383658
-0.398484
-0.394039
-0.395703
-0.404064
-0.412304
-0.439415
-0.435147
-0.446985
-0.420910
-0.419236
-0.496886
-0.484295
-0.492256
-0.485322
-0.480924
-0.491262
-0.494153
-0.497701
-0.498881
-0.508528
-0.512369
-0.519244
-0.518690
-0.016509
-0.008493
-0.018629
-0.508731
-0.531272
-0.548946
-0.009652
-0.224532
-0.231057
-0.195433
-0.044562
-0.047746
-0.052166
-0.056784
-0.131347
-0.121816
-0.124609
-0.580914
-0.574650
-0.585850
-0.410732
-0.452274
-0.424508
-0.302696
-0.302094
-0.357697
-0.575991
-0.197676
-0.172537
-0.656217
-0.672610
-0.660259
-0.676830
-0.597944
-0.621942
-0.628561
-0.007063
-0.017640
-0.009305
-0.884196
-0.862647
-0.860374
-0.485144
-0.463245
-0.842246
-0.420981
-0.256597
-0.273389
-0.271045
-0.600546
-0.590328
-0.596126
-0.142331
-0.134099
-0.128146
-0.591944
-0.162522
-0.173546
-0.179800
-0.516117
-0.491515
-0.499624
-0.015165
-0.477910
-0.423693
-0.416850
-0.017926
-0.013637
-0.389566
-0.023595
-0.235217
-0.271896
-0.213805
-0.172140
-0.173197