# vtk DataFile Version 2.0
Test
ASCII
DATASET POLYDATA
POINTS 1818 float
0.000000 0.000000 0.000000
1.000000 0.000000 0.000000
1.000000 1.000000 0.000000
0.000000 1.000000 0.000000
0.300000 0.330000 0.000000
0.700000 0.680000 0.000000
0.058824 0.000000 0.000000
0.117647 0.000000 0.000000
0.176471 0.000000 0.000000
0.235294 0.000000 0.000000
0.294118 0.000000 0.000000
0.352941 0.000000 0.000000
0.411765 0.000000 0.000000
0.470588 0.000000 0.000000
0.529412 0.000000 0.000000
0.588235 0.000000 0.000000
0.647059 0.000000 0.000000
0.705882 0.000000 0.000000
0.764706 0.000000 0.000000
0.823529 0.000000 0.000000
0.882353 0.000000 0.000000
0.941176 0.000000 0.000000
1.000000 0.058824 0.000000
1.000000 0.117647 0.000000
1.000000 0.176471 0.000000
1.000000 0.235294 0.000000
1.000000 0.294118 0.000000
1.000000 0.352941 0.000000
1.000000 0.411765 0.000000
1.000000 0.470588 0.000000
1.000000 0.529412 0.000000
1.000000 0.588235 0.000000
1.000000 0.647059 0.000000
1.000000 0.705882 0.000000
1.000000 0.764706 0.000000
1.000000 0.823529 0.000000
1.000000 0.882353 0.000000
1.000000 0.941176 0.000000
0.941176 1.000000 0.000000
0.882353 1.000000 0.000000
0.823529 1.000000 0.000000
0.764706 1.000000 0.000000
0.705882 1.000000 0.000000
0.647059 1.000000 0.000000
0.588235 1.000000 0.000000
0.529412 1.000000 0.000000
0.470588 1.000000 0.000000
0.411765 1.000000 0.000000
0.352941 1.000000 0.000000
0.294118 1.000000 0.000000
0.235294 1.000000 0.000000
0.176471 1.000000 0.000000
0.117647 1.000000 0.000000
0.058824 1.000000 0.000000
0.000000 0.941176 0.000000
0.000000 0.882353 0.000000
0.000000 0.823529 0.000000
0.000000 0.764706 0.000000
0.000000 0.705882 0.000000
0.000000 0.647059 0.000000
0.000000 0.588235 0.000000
0.000000 0.529412 0.000000
0.000000 0.470588 0.000000
0.000000 0.411765 0.000000
0.000000 0.352941 0.000000
0.000000 0.294118 0.000000
0.000000 0.235294 0.000000
0.000000 0.176471 0.000000
0.000000 0.117647 0.000000
0.000000 0.058824 0.000000
0.305970 0.335224 0.000000
0.311940 0.340448 0.000000
0.317910 0.345672 0.000000
0.323881 0.350896 0.000000
0.329851 0.356119 0.000000
0.335821 0.361343 0.000000
0.341791 0.366567 0.000000
0.347761 0.371791 0.000000
0.353731 0.377015 0.000000
0.359701 0.382239 0.000000
0.365672 0.387463 0.000000
0.371642 0.392687 0.000000
0.377612 0.397910 0.000000
0.383582 0.403134 0.000000
0.389552 0.408358 0.000000
0.395522 0.413582 0.000000
0.401493 0.418806 0.000000
0.407463 0.424030 0.000000
0.413433 0.429254 0.000000
0.419403 0.434478 0.000000
0.425373 0.439701 0.000000
0.431343 0.444925 0.000000
0.437313 0.450149 0.000000
0.443284 0.455373 0.000000
0.449254 0.460597 0.000000
0.455224 0.465821 0.000000
0.461194 0.471045 0.000000
0.467164 0.476269 0.000000
0.473134 0.481493 0.000000
0.479104 0.486716 0.000000
0.485075 0.491940 0.000000
0.491045 0.497164 0.000000
0.497015 0.502388 0.000000
0.502985 0.507612 0.000000
0.508955 0.512836 0.000000
0.514925 0.518060 0.000000
0.520896 0.523284 0.000000
0.526866 0.528507 0.000000
0.532836 0.533731 0.000000
0.538806 0.538955 0.000000
0.544776 0.544179 0.000000
0.550746 0.549403 0.000000
0.556716 0.554627 0.000000
0.562687 0.559851 0.000000
0.568657 0.565075 0.000000
0.574627 0.570299 0.000000
0.580597 0.575522 0.000000
0.586567 0.580746 0.000000
0.592537 0.585970 0.000000
0.598507 0.591194 0.000000
0.604478 0.596418 0.000000
0.610448 0.601642 0.000000
0.616418 0.606866 0.000000
0.622388 0.612090 0.000000
0.628358 0.617313 0.000000
0.634328 0.622537 0.000000
0.640299 0.627761 0.000000
0.646269 0.632985 0.000000
0.652239 0.638209 0.000000
0.658209 0.643433 0.000000
0.664179 0.648657 0.000000
0.670149 0.653881 0.000000
0.676119 0.659104 0.000000
0.682090 0.664328 0.000000
0.688060 0.669552 0.000000
0.694030 0.674776 0.000000
0.516135 0.080917 0.000000
0.549338 0.042552 0.000000
0.567302 0.088709 0.000000
0.555658 0.563778 0.000000
0.559301 0.571359 0.000000
0.552318 0.570919 0.000000
0.603235 0.047100 0.000000
0.446553 0.448087 0.000000
0.438652 0.443189 0.000000
0.445116 0.440368 0.000000
0.437254 0.190586 0.000000
0.465954 0.201747 0.000000
0.439184 0.213838 0.000000
0.453137 0.228102 0.000000
0.522423 0.410182 0.000000
0.522098 0.390982 0.000000
0.537289 0.398500 0.000000
0.453388 0.527105 0.000000
0.462022 0.524948 0.000000
0.461218 0.533993 0.000000
0.324300 0.374550 0.000000
0.319287 0.386214 0.000000
0.314834 0.375138 0.000000
0.668809 0.628853 0.000000
0.677366 0.632907 0.000000
0.668274 0.639611 0.000000
0.469934 0.529282 0.000000
0.439703 0.436699 0.000000
0.446608 0.432083 0.000000
0.542854 0.633425 0.000000
0.535117 0.647070 0.000000
0.524302 0.633157 0.000000
0.519372 0.648877 0.000000
0.586338 0.611293 0.000000
0.591638 0.624149 0.000000
0.575478 0.621479 0.000000
0.437962 0.035513 0.000000
0.421505 0.085456 0.000000
0.394924 0.044162 0.000000
0.445207 0.955749 0.000000
0.429168 0.919510 0.000000
0.464409 0.914226 0.000000
0.317150 0.400904 0.000000
0.328626 0.395860 0.000000
0.439616 0.884412 0.000000
0.330406 0.381773 0.000000
0.676842 0.602700 0.000000
0.674982 0.614185 0.000000
0.665930 0.611798 0.000000
0.414707 0.535036 0.000000
0.420123 0.526072 0.000000
0.425338 0.533771 0.000000
0.398407 0.375558 0.000000
0.393804 0.363255 0.000000
0.407284 0.365452 0.000000
0.407758 0.523337 0.000000
0.899969 0.377867 0.000000
0.945915 0.378245 0.000000
0.914158 0.409130 0.000000
0.358219 0.436142 0.000000
0.361390 0.425428 0.000000
0.369309 0.432300 0.000000
0.465999 0.075074 0.000000
0.269944 0.367761 0.000000
0.266521 0.352125 0.000000
0.283474 0.357667 0.000000
0.385889 0.083020 0.000000
0.359482 0.060981 0.000000
0.279658 0.346766 0.000000
0.363604 0.104040 0.000000
0.511115 0.503731 0.000000
0.503243 0.499914 0.000000
0.509146 0.494910 0.000000
0.513188 0.475753 0.000000
0.504957 0.474656 0.000000
0.511959 0.464784 0.000000
0.311863 0.447505 0.000000
0.293019 0.442078 0.000000
0.305555 0.431691 0.000000
0.499204 0.464990 0.000000
0.293855 0.459576 0.000000
0.396676 0.236328 0.000000
0.371014 0.247362 0.000000
0.373003 0.229199 0.000000
0.384478 0.261522 0.000000
0.555704 0.523331 0.000000
0.551313 0.515879 0.000000
0.562752 0.515269 0.000000
0.554954 0.506854 0.000000
0.804236 0.611103 0.000000
0.819351 0.593503 0.000000
0.832061 0.615776 0.000000
0.509908 0.485173 0.000000
0.129738 0.481190 0.000000
0.110722 0.443736 0.000000
0.154857 0.452634 0.000000
0.089738 0.485299 0.000000
0.396427 0.153886 0.000000
0.393058 0.115469 0.000000
0.420333 0.126587 0.000000
0.442628 0.413512 0.000000
0.434815 0.404283 0.000000
0.446816 0.400259 0.000000
0.499770 0.482873 0.000000
0.353883 0.235057 0.000000
0.351360 0.254011 0.000000
0.332147 0.240870 0.000000
0.112307 0.405527 0.000000
0.140355 0.392788 0.000000
0.142004 0.423465 0.000000
0.334868 0.263052 0.000000
0.551239 0.594093 0.000000
0.560217 0.601969 0.000000
0.546711 0.604614 0.000000
0.398510 0.570197 0.000000
0.387124 0.557316 0.000000
0.399978 0.555748 0.000000
0.705281 0.743146 0.000000
0.722930 0.758853 0.000000
0.697202 0.758074 0.000000
0.380190 0.572638 0.000000
0.278345 0.431947 0.000000
0.292575 0.428097 0.000000
0.470820 0.540616 0.000000
0.478213 0.533042 0.000000
0.480161 0.543190 0.000000
0.415268 0.299334 0.000000
0.412465 0.313515 0.000000
0.400419 0.297680 0.000000
0.396495 0.317117 0.000000
0.718655 0.732879 0.000000
0.709319 0.677587 0.000000
0.715709 0.670111 0.000000
0.719283 0.682820 0.000000
0.212992 0.453899 0.000000
0.184619 0.470046 0.000000
0.186665 0.440862 0.000000
0.452307 0.386568 0.000000
0.460371 0.397715 0.000000
0.478664 0.456068 0.000000
0.476179 0.462123 0.000000
0.471250 0.456445 0.000000
0.464654 0.388544 0.000000
0.483415 0.461045 0.000000
0.357146 0.449596 0.000000
0.344653 0.443966 0.000000
0.554562 0.459423 0.000000
0.543333 0.457517 0.000000
0.553850 0.449505 0.000000
0.543131 0.445036 0.000000
0.347312 0.459318 0.000000
0.781088 0.538918 0.000000
0.810909 0.534152 0.000000
0.799399 0.553968 0.000000
0.402869 0.534333 0.000000
0.408011 0.546121 0.000000
0.703844 0.670118 0.000000
0.552234 0.794299 0.000000
0.528593 0.795589 0.000000
0.539188 0.770312 0.000000
0.596088 0.518714 0.000000
0.593029 0.508081 0.000000
0.604120 0.510731 0.000000
0.384880 0.468703 0.000000
0.382270 0.455963 0.000000
0.394062 0.458803 0.000000
0.374729 0.466839 0.000000
0.340939 0.294790 0.000000
0.324530 0.290188 0.000000
0.338473 0.279923 0.000000
0.465367 0.336545 0.000000
0.477337 0.352846 0.000000
0.459495 0.350024 0.000000
0.584947 0.516440 0.000000
0.326802 0.302636 0.000000
0.945343 0.420397 0.000000
0.779746 0.749037 0.000000
0.771533 0.774140 0.000000
0.758291 0.749848 0.000000
0.743435 0.765852 0.000000
0.751942 0.297541 0.000000
0.784264 0.292048 0.000000
0.772562 0.330207 0.000000
0.812744 0.305799 0.000000
0.655547 0.494535 0.000000
0.649767 0.472522 0.000000
0.671966 0.480244 0.000000
0.612062 0.502007 0.000000
0.616789 0.515227 0.000000
0.403059 0.898561 0.000000
0.391512 0.946883 0.000000
0.625780 0.504699 0.000000
0.635988 0.491275 0.000000
0.596252 0.650380 0.000000
0.583401 0.655132 0.000000
0.583737 0.644777 0.000000
0.713099 0.416502 0.000000
0.708474 0.388943 0.000000
0.733625 0.389568 0.000000
0.684835 0.406222 0.000000
0.656936 0.416423 0.000000
0.633624 0.425116 0.000000
0.634362 0.400237 0.000000
0.646884 0.740682 0.000000
0.654954 0.726002 0.000000
0.663305 0.741855 0.000000
0.732481 0.441235 0.000000
0.751303 0.460839 0.000000
0.721338 0.462235 0.000000
0.759622 0.437863 0.000000
0.462761 0.363156 0.000000
0.373644 0.622389 0.000000
0.346217 0.613642 0.000000
0.370315 0.594521 0.000000
0.351411 0.640635 0.000000
0.695337 0.690220 0.000000
0.705202 0.700133 0.000000
0.692303 0.700990 0.000000
0.521365 0.516400 0.000000
0.522992 0.510597 0.000000
0.527633 0.513574 0.000000
0.291567 0.329512 0.000000
0.294927 0.318154 0.000000
0.365771 0.366553 0.000000
0.366135 0.358691 0.000000
0.374180 0.368122 0.000000
0.408232 0.327056 0.000000
0.423479 0.328280 0.000000
0.411272 0.339740 0.000000
0.664110 0.670607 0.000000
0.667245 0.662649 0.000000
[...]
POINT_DATA 1818
SCALARS UX float 1
LOOKUP_TABLE default
-0.000003
0.000002
-0.077960
-0.723490
-0.194414
-0.166826
0.000000
-0.000000
-0.000000
-0.000000
-0.000000
-0.000000
-0.000000
-0.000000
-0.000000
0.000000
0.000000
0.000000
0.000000
0.000000
0.000000
-0.000000
0.048676
0.073834
0.091830
0.108017
0.121904
0.134560
0.146326
0.156785
0.166182
0.174364
0.182624
0.192427
0.202083
0.172548
0.084816
-0.025153
-0.223723
-0.301145
-0.339021
-0.366207
-0.392507
-0.417587
-0.443520
-0.470508
-0.499168
-0.529367
-0.560388
-0.591806
-0.622693
-0.651861
-0.679116
-0.701814
-0.717431
-0.707917
-0.694863
-0.680938
-0.665779
-0.651545
-0.638149
-0.625324
-0.612724
-0.600559
-0.589580
-0.575385
-0.555619
-0.502224
-0.332231
-0.136923
-0.179382
-0.181237
-0.181305
-0.174101
-0.175083
-0.181940
-0.175110
-0.168631
-0.169338
-0.163816
-0.168277
-0.170297
-0.170014
-0.168749
-0.176018
-0.177814
-0.177448
-0.179568
-0.179495
-0.177484
-0.181410
-0.178574
-0.180953
-0.183204
-0.182936
-0.181308
-0.184908
-0.188315
-0.186357
-0.191573
-0.191026
-0.186843
-0.188287
-0.195613
-0.188467
-0.186965
-0.189590
-0.189747
-0.186651
-0.182656
-0.184327
-0.182053
-0.183193
-0.200246
-0.191045
-0.192870
-0.191167
-0.191356
-0.190361
-0.191907
-0.195166
-0.195931
-0.199206
-0.198677
-0.197250
-0.192899
-0.186330
-0.183080
-0.201299
-0.194154
-0.189207
-0.185914
-0.182142
-0.179021
-0.176109
-0.168706
-0.000556
0.000297
0.001489
-0.294993
-0.312804
-0.332853
0.001486
-0.083103
-0.101658
-0.069285
-0.010450
-0.007325
-0.011992
-0.010647
-0.008522
-0.007271
-0.002955
-0.427314
-0.417450
-0.424943
-0.334852
-0.373553
-0.355392
-0.017402
-0.009647
-0.042850
-0.413059
-0.072413
-0.054611
-0.409501
-0.421513
-0.424673
-0.434190
-0.339371
-0.347758
-0.368660
-0.001107
-0.003842
-0.002016
-0.508128
-0.513704
-0.495557
-0.413823
-0.388824
-0.506435
-0.343000
0.030267
0.015623
0.005842
-0.460893
-0.452430
-0.452736
-0.053707
-0.050110
-0.043127
-0.459647
0.109997
0.123929
0.120201
-0.422883
-0.401991
-0.404512
-0.002050
-0.416169
-0.378057
-0.363777
-0.004741
-0.003605
-0.341706
-0.007455
-0.082132
-0.105372
-0.059379
-0.022251
-0.029861
-0.019896
-0.476016
-0.483063
-0.466746
-0.027984
-0.494172
-0.022275
-0.030311
-0.026301
-0.028947
-0.016854
-0.014674
-0.002181
-0.004665
0.110150
0.116161
0.123515
-0.033697
-0.571199
-0.570196
-0.556303
-0.585844
-0.011237
-0.007345
-0.006847
-0.042089
-0.043412
-0.034722
-0.043292
-0.031964
-0.037611
-0.039434
-0.561353
-0.546993
-0.554460
-0.046548
-0.377463
-0.373101
-0.391056
-0.486141
-0.488241
-0.479805
-0.294055
-0.282761
-0.321569
-0.497485
-0.484195
-0.471160
-0.420966
-0.408222
-0.414838
-0.025324
-0.028052
-0.029587
-0.034278
-0.252107
-0.077842
-0.029557
-0.055747
-0.531766
-0.547939
-0.540483
-0.029030
-0.028179
-0.039866
-0.050104
-0.049721
-0.024929
-0.037923
-0.442536
-0.447116
0.000857
-0.003548
0.000880
-0.003283
-0.459321
0.096156
0.107152
0.104667
-0.468461
-0.470568
-0.055919
-0.443105
-0.455943
-0.447610
0.014333
0.014179
0.019172
-0.441839
-0.431170
-0.422378
-0.447669
-0.056083
-0.065980
-0.051982
-0.017341
-0.016032
-0.020725
0.008791
-0.070496
0.131702
-0.120139
-0.207545
-0.186671
-0.254957
0.047752
0.055763
0.060573
0.067658
0.042466
0.039166
0.048467
0.023414
0.025162
-0.525754
-0.535076
0.029714
0.034138
-0.365299
-0.381766
-0.375083
0.057037
0.051341
0.059612
0.046025
0.037588
0.030038
0.028436
-0.364432
-0.347041
-0.348725
0.067145
0.076357
0.065695
0.075965
-0.021588
-0.513454
-0.524405
-0.508724
-0.527073
-0.219587
-0.212997
-0.252078
-0.112081
-0.071711
-0.068962
-0.239579
-0.152933
-0.081495
-0.067191
-0.066894
-0.031975
-0.027402
-0.033895
-0.266579
-0.233754
-0.232983
-0.460440
-0.478863
-0.475021
-0.490300
-0.257402
-0.283000
-0.301777
-0.096807
0.003869
0.008394
0.005917
-0.099675
-0.105601
-0.083251
-0.081100
-0.105870
-0.110096
-0.429321
-0.443904
-0.436963
-0.096849
-0.124271
-0.121983
-0.023479
-0.313411
-0.290139
-0.338169
-0.321292
-0.030378
-0.056015
-0.382620
-0.350168
-0.342967
-0.379066
-0.482760
-0.456721
-0.476306
-0.367641
-0.409282
-0.362694
-0.102491
-0.108799
-0.436950
0.009968
0.013085
-0.513066
-0.500261
-0.503462
-0.142070
-0.628803
-0.608160
-0.614415
-0.597726
-0.338583
-0.404600
-0.415321
-0.407875
-0.408383
-0.298766
-0.290155
0.019250
0.013366
-0.008151
0.040808
-0.490693
-0.478874
-0.461482
-0.159855
-0.245558
-0.155690
-0.092685
-0.078283
-0.048533
-0.023256
-0.132106
-0.217823
-0.277034
0.001424
-0.031140
-0.272095
-0.398346
-0.394016
-0.282416
-0.322233
-0.315442
-0.401157
-0.300862
-0.284007
-0.442361
-0.424947
-0.436038
-0.313874
-0.352180
-0.035715
-0.033858
-0.064720
-0.056704
-0.051630
-0.065721
0.013483
0.008954
0.006751
-0.633386
-0.622007
-0.611931
-0.626366
-0.619864
-0.634389
-0.611023
-0.274753
-0.307870
-0.280309
-0.285677
-0.378510
-0.394459
-0.374463
-0.392508
-0.362772
-0.378436
-0.363409
-0.410611
-0.423038
-0.400111
-0.417486
-0.421081
-0.432001
-0.432390
-0.431251
-0.076327
-0.102078
-0.100382
0.010699
0.005821
0.009220
0.005949
0.087063
0.075130
0.080381
0.096038
0.097992
-0.290946
-0.309500
-0.321383
-0.034308
-0.028105
-0.066405
-0.407476
-0.401867
-0.419552
-0.315680
-0.277648
-0.381384
-0.289030
-0.314953
-0.341456
-0.022592
-0.022877
-0.027447
-0.000866
0.004032
0.002079
-0.044340
-0.042791
-0.350412
0.008263
-0.599861
-0.590941
-0.605912
-0.589707
-0.595274
0.001557
0.002478
-0.008128
-0.006038
-0.011286
-0.002221
0.004258
-0.584743
-0.418286
-0.405414
-0.421412
-0.402889
-0.388992
-0.431048
-0.367237
-0.033744
-0.016209
-0.005762
-0.035773
0.001121
-0.257502
-0.004151
-0.000352
-0.321650
-0.298762
-0.321369
-0.439774
-0.411732
-0.421931
-0.382191
-0.394652
-0.618640
0.011685
0.014983
0.010031
-0.037390
-0.031161
-0.471931
-0.458420
-0.458824
-0.026291
0.014724
-0.499962
-0.511456
-0.504515
-0.391948
-0.372699
-0.378904
-0.083885
-0.038316
-0.073925
-0.045819
-0.089923
-0.063585
-0.058579
-0.354425
-0.302240
-0.334772
-0.048462
-0.041218
-0.528365
-0.519586
-0.526344
-0.037030
-0.000432
-0.003179
-0.003436
-0.536793
-0.546675
-0.536596
-0.134251
-0.180209
-0.107563
-0.052425
-0.061356
-0.074706
-0.629416
-0.597237
-0.017182
-0.451410
-0.478275
-0.033990
0.003741
0.008814
-0.609986
0.005192
-0.007790
-0.416433
-0.421027
0.072160
0.080198
0.076976
-0.422990
-0.012962
-0.014743
0.045671
-0.436771
-0.429148
-0.436944
-0.224060
-0.215313
-0.060717
-0.434336
-0.032982
-0.032605
-0.424008
-0.404809
-0.404916
-0.389330
-0.420585
0.108876
0.096995
0.098807
-0.037095
-0.085274
-0.104078
-0.498137
-0.485110
-0.482357
-0.036331
-0.028790
-0.058766
-0.110954
-0.068918
-0.051889
0.000423
-0.433088
-0.416365
-0.127576
-0.121121
-0.326738
-0.005602
0.058107
-0.014376
0.141552
0.073899
0.012822
0.015894
0.017090
-0.404550
-0.057410
-0.030858
-0.025649
-0.028606
-0.283635
-0.348174
-0.387363
-0.372772
-0.032383
-0.292947
-0.296512
-0.473676
-0.485146
-0.468374
-0.441037
-0.436315
-0.445992
-0.352146
0.044256
0.032241
0.057213
-0.440213
-0.006585
0.112149
0.037016
0.031706
-0.073115
-0.036860
-0.078970
-0.025899
-0.057253
-0.021386
-0.073335
-0.330476
-0.270451
-0.350868
-0.331902
-0.575463
-0.583072
-0.018024
-0.013675
-0.106277
-0.136060
-0.018375
-0.366409
-0.598927
-0.381200
-0.560951
-0.566965
-0.554459
-0.376624
0.068537
0.060133
0.058479
0.051940
-0.022498
-0.022434
-0.404761
-0.387020
-0.392261
0.055906
0.054467
0.050471
0.047033
0.081510
0.084850
-0.581592
-0.575703
0.104455
-0.679208
-0.653736
-0.679065
0.067364
0.058585
0.044820
-0.460804
-0.466200
-0.447570
0.077114
0.110216
0.064489
0.043053
0.055440
0.032790
-0.478874
0.003878
-0.001615
-0.001041
0.064785
0.087785
0.084241
-0.631382
-0.654018
-0.652270
0.109391
-0.329546
-0.302296
-0.360148
-0.380943
-0.376763
-0.499979
0.011038
0.007187
0.020082
0.162640
0.155604
0.172351
0.144066
0.139806
0.172904
0.179682
-0.428211
-0.431870
-0.569348
-0.552277
-0.546869
-0.444915
0.014315
-0.018945
-0.557522
-0.551264
-0.567804
-0.509495
-0.498317
-0.584330
0.011630
-0.014345
-0.566950
-0.008089
-0.543323
-0.526577
-0.530674
0.145636
0.158381
-0.388469
-0.386966
-0.365736
-0.278680
-0.312871
-0.225594
-0.340774
-0.371057
-0.308047
-0.041317
-0.041699
-0.278279
-0.372744
-0.400525
-0.297213
-0.519445
-0.529047
-0.518167
-0.600926
-0.593041
-0.007160
-0.012380
-0.005675
-0.012166
-0.013668
-0.357663
-0.342740
-0.362296
-0.576669
-0.002871
-0.004929
-0.306124
-0.334092
-0.326107
0.159544
0.146165
-0.529743
0.090662
0.081926
0.083621
0.091373
-0.569420
-0.559889
-0.555079
0.102264
-0.002258
0.139131
-0.325792
-0.001358
-0.013773
-0.016331
-0.327201
0.002935
-0.004334
-0.407347
-0.391343
-0.399406
-0.033474
-0.107541
-0.047047
-0.512551
-0.517171
-0.386913
-0.353498
0.031886
0.039354
0.030115
0.044217
-0.444004
-0.455600
-0.538817
-0.477691
-0.005820
-0.012654
0.011362
0.008728
0.006473
-0.008822
-0.026586
-0.584945
-0.578966
-0.594847
-0.571942
-0.432619
-0.564504
-0.573395
-0.579315
-0.559518
-0.551476
-0.418743
-0.406149
-0.523550
-0.511842
-0.403440
-0.062631
-0.046262
-0.432566
-0.415847
-0.625075
-0.639816
-0.602365
-0.018267
-0.020471
-0.014609
-0.444335
-0.454538
-0.034957
-0.036369
-0.539310
-0.540932
-0.528361
-0.493294
-0.479869
-0.484106
-0.133677
-0.172987
-0.567132
-0.013157
0.009464
0.005815
-0.498434
-0.539243
-0.539964
-0.549317
-0.504258
-0.544931
0.048586
0.038663
-0.549107
-0.558084
-0.560308
-0.569711
0.005346
0.001065
-0.468052
0.091751
-0.105468
-0.076825
0.003112
0.000269
-0.003394
-0.327575
-0.005290
-0.529005
-0.472528
-0.477347
-0.483431
-0.493878
-0.532657
-0.543490
-0.540815
-0.026076
-0.032842
-0.554652
-0.050076
0.044643
0.039641
-0.603738
-0.583966
-0.596594
-0.417003
-0.433880
-0.419902
-0.477529
0.130349
0.141981
0.129082
0.119384
0.118617
-0.507262
-0.502064
-0.538690
-0.534465
-0.549696
-0.349931
-0.063249
-0.154646
0.061981
-0.569197
-0.582142
-0.572225
-0.572844
-0.556933
-0.481002
-0.533159
-0.560832
-0.008785
-0.013438
-0.005040
-0.394333
-0.372096
-0.414596
0.057388
0.066262
0.070528
-0.266056
0.114837
0.108470
-0.541164
-0.407591
-0.109364
-0.657921
-0.676017
-0.462628
-0.478851
0.025412
0.020233
0.020151
-0.056670
-0.048121
0.031199
-0.041567
0.033952
-0.484279
-0.512703
0.045147
0.063742
0.041738
0.013893
-0.049441
0.097359
0.052940
0.120376
0.025076
-0.366428
-0.361435
-0.349120
-0.342732
0.002619
-0.434048
-0.447760
-0.003531
-0.609974
-0.582265
-0.590576
-0.427980
-0.412735
-0.000215
0.004916
-0.438539
-0.447786
-0.436595
-0.020516
-0.021739
-0.016615
-0.464774
-0.450500
-0.458645
-0.515144
0.075615
0.083296
0.085437
-0.463042
-0.485660
-0.497216
-0.013627
-0.017125
-0.020253
-0.504364
-0.496557
-0.024617
-0.490569
-0.435456
-0.531671
-0.527229
0.130816
-0.026641
0.071820
0.061417
-0.466353
-0.469813
-0.369656
-0.385704
-0.011592
-0.587565
-0.365074
-0.471021
-0.511587
-0.490407
-0.451331
-0.461430
-0.459292
0.050476
0.043856
0.043072
0.062669
0.015469
0.019559
0.014644
0.021910
-0.433622
-0.461034
-0.452885
-0.454884
-0.267313
-0.204769
-0.214430
-0.243238
0.123108
0.016098
-0.056592
-0.002440
-0.259764
-0.417881
-0.462655
-0.457006
-0.436446
-0.515951
-0.121814
-0.035147
-0.079916
-0.407924
-0.090268
-0.006109
-0.005487
-0.004408
-0.023859
-0.017814
-0.020563
0.013110
0.015873
0.011470
0.008981
-0.288628
0.020633
-0.033496
-0.024060
0.108444
-0.531028
-0.544975
-0.528815
-0.546484
-0.561844
0.098178
0.063773
0.073074
0.046626
0.037909
0.020772
-0.501173
-0.040716
0.003738
0.007135
0.006230
-0.023079
-0.017173
-0.020728
0.137306
0.148977
0.086698
-0.520606
-0.508087
-0.379680
-0.371457
0.025169
0.078492
0.067627
0.069351
-0.444541
-0.442461
-0.101675
-0.115621
-0.320092
-0.496209
-0.484968
-0.344399
-0.509366
0.019455
0.017660
0.013069
-0.328194
-0.304637
0.022134
-0.000071
-0.518882
-0.517595
-0.507181
-0.504403
-0.520449
-0.531014
0.017151
0.011823
-0.532450
0.017992
0.018945
0.024007
0.127431
0.126727
0.009841
-0.351214
-0.358999
-0.375778
-0.380450
-0.470602
-0.055947
-0.073416
-0.079857
-0.479468
-0.471140
0.074953
0.027547
0.021292
0.020233
-0.212478
-0.352647
-0.410795
-0.424330
-0.034722
-0.037573
-0.059012
-0.367129
-0.364017
-0.334609
-0.409056
-0.038488
-0.027671
-0.026408
-0.348282
-0.042894
-0.037165
-0.025822
-0.399548
-0.320959
-0.017398
0.078536
0.087804
0.086664
0.029502
0.077970
0.113639
-0.422841
-0.449132
-0.465422
-0.481259
-0.469512
-0.472633
-0.487726
-0.389202
0.009708
-0.012466
-0.331739
-0.406625
-0.404022
0.044859
0.042860
0.037060
0.021349
0.013462
-0.294604
-0.319214
-0.228349
0.010743
-0.468097
0.054443
0.056092
0.022969
0.005069
-0.452441
-0.546627
-0.430847
0.056269
0.051388
0.022372
0.015063
0.019989
0.024454
0.055590
0.152778
-0.231507
-0.026415
-0.066880
-0.039504
-0.023038
-0.357826
-0.361549
0.131465
-0.002636
-0.348677
-0.009216
0.035332
-0.417364
-0.434478
-0.450650
-0.456435
-0.444147
-0.513253
0.014618
0.007213
-0.099834
-0.132780
-0.127026
-0.507413
-0.400217
-0.574154
0.026768
0.029772
0.018876
0.032197
0.038590
-0.448180
-0.055234
-0.317965
-0.256452
-0.427930
-0.440397
-0.327231
-0.292356
-0.291337
-0.302083
-0.068368
-0.340419
-0.526889
-0.083804
-0.273874
-0.299331
-0.330075
-0.332604
-0.267812
-0.019400
-0.012594
-0.009609
-0.303264
-0.304254
-0.067292
-0.027661
-0.502853
-0.515807
-0.500194
-0.033479
-0.337584
0.045628
0.033661
-0.009874
-0.346413
-0.355928
-0.369878
-0.459647
-0.465134
-0.077828
-0.279964
0.110384
0.119107
-0.056096
-0.076584
-0.087837
-0.075037
-0.084069
-0.028400
-0.062861
-0.057936
0.100325
-0.297429
-0.385294
-0.380418
0.026040
-0.039957
-0.032180
0.125592
-0.025977
-0.072564
-0.125381
-0.553621
-0.560032
-0.323831
-0.330031
-0.389982
-0.409507
-0.389366
0.126003
-0.401801
-0.305953
-0.368122
0.059924
-0.345681
-0.094059
-0.081117
-0.391599
-0.058509
-0.069806
-0.048116
-0.338833
-0.373089
-0.012139
-0.006111
0.009093
0.008183
0.002987
-0.077121
-0.608179
-0.300429
-0.334324
-0.267726
-0.100326
-0.424218
-0.424458
-0.008085
-0.003356
-0.279601
-0.079496
-0.059063
-0.077156
-0.042526
-0.060522
-0.050200
-0.053665
-0.043740
-0.385733
-0.386906
-0.353806
0.012088
0.005040
0.020135
-0.388176
-0.398371
-0.049195
-0.406679
-0.403004
0.002708
0.005120
0.036215
0.000119
-0.361343
-0.404774
-0.423326
-0.479997
-0.037341
-0.352553
-0.042390
-0.047270
-0.513576
-0.516334
-0.007796
-0.121176
-0.065289
-0.410403
-0.018814
-0.000582
-0.017368
-0.489119
-0.496251
0.008816
-0.420031
-0.396247
-0.507296
-0.510219
-0.422628
-0.403502
-0.334886
-0.295507
-0.010147
-0.005190
0.000739
-0.489475
-0.493339
-0.062510
-0.056105
-0.481954
-0.489893
-0.494290
-0.398013
-0.399757
-0.356023
-0.479720
0.028804
0.019507
-0.015658
-0.437425
-0.446135
-0.397803
-0.377348
-0.367584
-0.066443
-0.061666
-0.028746
-0.067716
-0.498592
-0.499093
-0.433363
-0.303023
-0.272415
-0.010998
-0.040301
-0.442889
0.004639
0.004506
-0.310883
-0.315404
-0.051823
-0.057871
-0.379122
-0.349794
-0.054210
-0.015627
-0.019694
-0.009946
-0.348334
-0.012560
-0.102057
0.086143
0.085587
-0.456051
-0.445792
-0.328931
-0.339498
-0.340938
-0.359089
-0.096976
0.015506
-0.012231
-0.355447
-0.021657
-0.405143
0.056575
0.040927
0.042787
-0.408834
0.008315
0.028506
-0.057406
-0.003530
-0.009399
-0.283900
0.031236
-0.638243
-0.620508
-0.635771
-0.461070
0.089102
0.023194
0.028133
0.019168
0.002205
-0.547722
0.098414
-0.458604
-0.424750
-0.409001
-0.012699
-0.006187
-0.010897
0.005022
-0.010720
-0.389627
-0.397204
-0.676845
-0.019183
-0.154591
-0.095866
-0.697140
-0.701147
-0.386934
0.011303
0.037465
0.014866
-0.236640
-0.119753
-0.159998
-0.230470
-0.373396
-0.168143
-0.384594
-0.113098
-0.008191
-0.002268
-0.020946
-0.011262
0.078459
-0.036900
-0.418401
-0.467711
-0.475676
0.121075
0.108557
0.003026
-0.008118
-0.480211
-0.486270
-0.493675
-0.036457
-0.031902
-0.031375
-0.025042
-0.398632
-0.015929
0.054715
0.033220
-0.314081
-0.486147
-0.565963
-0.097151
-0.059723
0.069877
0.060599
-0.544909
-0.558901
-0.540854
0.068198
0.064189
-0.496159
-0.329672
-0.002687
-0.006263
-0.418233
-0.006058
-0.391767
-0.373251
0.070898
0.095918
-0.210465
-0.279939
-0.299358
-0.513399
-0.054259
-0.009410
-0.008093
-0.432464
0.148267
-0.628571
-0.026768
-0.033469
-0.520246
0.061492
0.019118
0.001548
-0.446635
0.007370
-0.086403
-0.471081
0.057889
-0.461106
-0.056812
-0.071674
0.005630
-0.244007
0.019214
-0.447029
-0.344820
-0.019200
-0.018068
-0.448057
0.112804
0.051060
-0.365815
-0.362947
-0.041384
-0.178814
-0.642166
-0.662519
-0.646867
-0.393916
-0.437239
-0.057539
-0.534286
-0.059371
0.051471
0.049087
-0.302706
-0.544791
-0.558204
-0.304969
0.085020
0.078607
-0.032864
-0.037692
-0.293574
-0.337248
-0.509820
-0.520759
-0.017637
-0.355623
-0.130271
-0.133104
-0.473217
-0.580815
0.032615
0.025444
0.025034
0.039820
-0.133369
0.075628
0.057233
-0.064215
-0.383965
-0.404411
0.041332
0.029648
-0.408872
-0.006992
-0.215103
-0.434721
0.012738
-0.294458
-0.437895
0.018422
0.044576
-0.365537
-0.373093
-0.454778
-0.409974
0.007873
0.016075
0.017978
-0.060162
0.000017
-0.363970
-0.306750
-0.441038
-0.164282
-0.011453
-0.303625
-0.394144
-0.061956
0.004982
-0.070307
-0.052149
-0.046797
0.073854
0.110498
-0.270591
-0.269110
-0.304539
-0.527691
0.045488
-0.428975
-0.074906
-0.065966
-0.238110
-0.083948
-0.470459
-0.009149
-0.382326
-0.143125
0.003761
-0.361349
-0.296150
-0.291534
-0.461297
-0.297744
-0.273031
-0.457335
-0.000748
-0.305806
-0.272347
-0.082265
-0.122773
-0.121364
-0.286260
-0.281401
-0.006637
-0.382416
-0.389800
-0.092721
-0.241304
-0.076134
-0.283662
-0.346987
-0.298329
-0.343519
-0.269517
-0.094494
-0.344380
-0.287291
-0.119864
-0.230103
-0.399060
-0.000597
-0.029789
-0.270725
-0.329121
-0.310773
-0.103408
-0.041652
-0.017966
-0.272544
-0.074756
-0.320699
-0.356940
-0.079131
-0.018849
0.002566
-0.006211
0.029600
-0.450528
-0.058459
-0.419663
-0.200908
-0.428221
0.029541
-0.120005
-0.021262
-0.459903
-0.036130
-0.038290
-0.043304
-0.382972
-0.097678
-0.297986
-0.332546
-0.244636
-0.138345
-0.446825
-0.052463
0.007548
-0.328136
-0.371078
-0.066960
SCALARS UY float 1
LOOKUP_TABLE default
-0.000003
-0.000003
-0.884999
-0.884999
-0.226107
-0.503432
-0.000001
-0.000001
-0.000001
-0.000001
-0.000001
-0.000001
-0.000001
-0.000001
-0.000001
-0.000001
-0.000001
-0.000001
-0.000001
-0.000001
-0.000001
-0.000001
-0.048450
-0.083328
-0.110014
-0.135744
-0.160450
-0.185547
-0.210998
-0.236307
-0.261441
-0.285914
-0.309689
-0.332800
-0.356524
-0.414268
-0.529499
-0.685703
-0.884999
-0.884999
-0.884999
-0.884999
-0.884999
-0.884999
-0.884999
-0.884999
-0.884999
-0.884999
-0.884999
-0.884999
-0.884999
-0.884999
-0.884999
-0.884999
-0.857267
-0.829092
-0.800719
-0.772571
-0.743663
-0.714251
-0.684581
-0.655007
-0.626268
-0.598091
-0.571325
-0.547613
-0.514468
-0.449483
-0.302598
-0.135703
-0.236916
-0.228414
-0.229492
-0.238489
-0.235124
-0.230139
-0.239787
-0.250512
-0.246345
-0.249276
-0.242111
-0.246419
-0.247967
-0.256478
-0.251109
-0.255107
-0.265065
-0.265928
-0.269358
-0.273915
-0.274960
-0.279610
-0.279979
-0.282177
-0.287437
-0.297599
-0.304371
-0.302406
-0.309852
-0.309571
-0.324206
-0.336097
-0.342132
-0.333441
-0.345810
-0.350831
-0.349339
-0.350045
-0.354901
-0.359651
-0.362169
-0.369148
-0.380381
-0.373375
-0.394032
-0.397616
-0.405658
-0.410486
-0.416067
-0.425456
-0.434281
-0.443376
-0.447936
-0.450481
-0.455683
-0.461303
-0.471798
-0.481871
-0.473489
-0.482430
-0.486698
-0.490650
-0.494167
-0.495315
-0.498153
-0.503892
-0.017039
-0.008728
-0.019170
-0.490294
-0.507301
-0.524079
-0.009881
-0.196391
-0.209623
-0.178846
-0.045806
-0.049130
-0.053504
-0.058282
-0.130269
-0.120913
-0.124389
-0.542823
-0.536864
-0.547012
-0.405568
-0.437246
-0.410166
-0.322033
-0.324567
-0.351295
-0.537854
-0.182100
-0.164141
-0.616843
-0.632504
-0.621750
-0.637426
-0.564871
-0.582642
-0.591371
-0.007221
-0.018129
-0.009347
-0.855753
-0.831377
-0.829172
-0.475269
-0.449742
-0.808535
-0.416169
-0.269111
-0.288446
-0.286155
-0.562612
-0.552777
-0.558006
-0.139288
-0.131454
-0.126933
-0.554603
-0.171563
-0.182994
-0.189201
-0.489450
-0.469875
-0.473685
-0.015659
-0.463624
-0.407535
-0.405104
-0.018181
-0.013568
-0.382468
-0.023719
-0.240154
-0.261353
-0.214578
-0.170144
-0.171004
-0.160756