# vtk DataFile Version 2.0
Test
ASCII
DATASET POLYDATA
POINTS 1818 float
0.000000 0.000000 0.000000
1.000000 0.000000 0.000000
1.000000 1.000000 0.000000
0.000000 1.000000 0.000000
0.300000 0.330000 0.000000
0.700000 0.680000 0.000000
0.058824 0.000000 0.000000
0.117647 0.000000 0.000000
0.176471 0.000000 0.000000
0.235294 0.000000 0.000000
0.294118 0.000000 0.000000
0.352941 0.000000 0.000000
0.411765 0.000000 0.000000
0.470588 0.000000 0.000000
0.529412 0.000000 0.000000
0.588235 0.000000 0.000000
0.647059 0.000000 0.000000
0.705882 0.000000 0.000000
0.764706 0.000000 0.000000
0.823529 0.000000 0.000000
0.882353 0.000000 0.000000
0.941176 0.000000 0.000000
1.000000 0.058824 0.000000
1.000000 0.117647 0.000000
1.000000 0.176471 0.000000
1.000000 0.235294 0.000000
1.000000 0.294118 0.000000
1.000000 0.352941 0.000000
1.000000 0.411765 0.000000
1.000000 0.470588 0.000000
1.000000 0.529412 0.000000
1.000000 0.588235 0.000000
1.000000 0.647059 0.000000
1.000000 0.705882 0.000000
1.000000 0.764706 0.000000
1.000000 0.823529 0.000000
1.000000 0.882353 0.000000
1.000000 0.941176 0.000000
0.941176 1.000000 0.000000
0.882353 1.000000 0.000000
0.823529 1.000000 0.000000
0.764706 1.000000 0.000000
0.705882 1.000000 0.000000
0.647059 1.000000 0.000000
0.588235 1.000000 0.000000
0.529412 1.000000 0.000000
0.470588 1.000000 0.000000
0.411765 1.000000 0.000000
0.352941 1.000000 0.000000
0.294118 1.000000 0.000000
0.235294 1.000000 0.000000
0.176471 1.000000 0.000000
0.117647 1.000000 0.000000
0.058824 1.000000 0.000000
0.000000 0.941176 0.000000
0.000000 0.882353 0.000000
0.000000 0.823529 0.000000
0.000000 0.764706 0.000000
0.000000 0.705882 0.000000
0.000000 0.647059 0.000000
0.000000 0.588235 0.000000
0.000000 0.529412 0.000000
0.000000 0.470588 0.000000
0.000000 0.411765 0.000000
0.000000 0.352941 0.000000
0.000000 0.294118 0.000000
0.000000 0.235294 0.000000
0.000000 0.176471 0.000000
0.000000 0.117647 0.000000
0.000000 0.058824 0.000000
0.305970 0.335224 0.000000
0.311940 0.340448 0.000000
0.317910 0.345672 0.000000
0.323881 0.350896 0.000000
0.329851 0.356119 0.000000
0.335821 0.361343 0.000000
0.341791 0.366567 0.000000
0.347761 0.371791 0.000000
0.353731 0.377015 0.000000
0.359701 0.382239 0.000000
0.365672 0.387463 0.000000
0.371642 0.392687 0.000000
0.377612 0.397910 0.000000
0.383582 0.403134 0.000000
0.389552 0.408358 0.000000
0.395522 0.413582 0.000000
0.401493 0.418806 0.000000
0.407463 0.424030 0.000000
0.413433 0.429254 0.000000
0.419403 0.434478 0.000000
0.425373 0.439701 0.000000
0.431343 0.444925 0.000000
0.437313 0.450149 0.000000
0.443284 0.455373 0.000000
0.449254 0.460597 0.000000
0.455224 0.465821 0.000000
0.461194 0.471045 0.000000
0.467164 0.476269 0.000000
0.473134 0.481493 0.000000
0.479104 0.486716 0.000000
0.485075 0.491940 0.000000
0.491045 0.497164 0.000000
0.497015 0.502388 0.000000
0.502985 0.507612 0.000000
0.508955 0.512836 0.000000
0.514925 0.518060 0.000000
0.520896 0.523284 0.000000
0.526866 0.528507 0.000000
0.532836 0.533731 0.000000
0.538806 0.538955 0.000000
0.544776 0.544179 0.000000
0.550746 0.549403 0.000000
0.556716 0.554627 0.000000
0.562687 0.559851 0.000000
0.568657 0.565075 0.000000
0.574627 0.570299 0.000000
0.580597 0.575522 0.000000
0.586567 0.580746 0.000000
0.592537 0.585970 0.000000
0.598507 0.591194 0.000000
0.604478 0.596418 0.000000
0.610448 0.601642 0.000000
0.616418 0.606866 0.000000
0.622388 0.612090 0.000000
0.628358 0.617313 0.000000
0.634328 0.622537 0.000000
0.640299 0.627761 0.000000
0.646269 0.632985 0.000000
0.652239 0.638209 0.000000
0.658209 0.643433 0.000000
0.664179 0.648657 0.000000
0.670149 0.653881 0.000000
0.676119 0.659104 0.000000
0.682090 0.664328 0.000000
0.688060 0.669552 0.000000
0.694030 0.674776 0.000000
0.516135 0.080917 0.000000
0.549338 0.042552 0.000000
0.567302 0.088709 0.000000
0.555658 0.563778 0.000000
0.559301 0.571359 0.000000
0.552318 0.570919 0.000000
0.603235 0.047100 0.000000
0.446553 0.448087 0.000000
0.438652 0.443189 0.000000
0.445116 0.440368 0.000000
0.437254 0.190586 0.000000
0.465954 0.201747 0.000000
0.439184 0.213838 0.000000
0.453137 0.228102 0.000000
0.522423 0.410182 0.000000
0.522098 0.390982 0.000000
0.537289 0.398500 0.000000
0.453388 0.527105 0.000000
0.462022 0.524948 0.000000
0.461218 0.533993 0.000000
0.324300 0.374550 0.000000
0.319287 0.386214 0.000000
0.314834 0.375138 0.000000
0.668809 0.628853 0.000000
0.677366 0.632907 0.000000
0.668274 0.639611 0.000000
0.469934 0.529282 0.000000
0.439703 0.436699 0.000000
0.446608 0.432083 0.000000
0.542854 0.633425 0.000000
0.535117 0.647070 0.000000
0.524302 0.633157 0.000000
0.519372 0.648877 0.000000
0.586338 0.611293 0.000000
0.591638 0.624149 0.000000
0.575478 0.621479 0.000000
0.437962 0.035513 0.000000
0.421505 0.085456 0.000000
0.394924 0.044162 0.000000
0.445207 0.955749 0.000000
0.429168 0.919510 0.000000
0.464409 0.914226 0.000000
0.317150 0.400904 0.000000
0.328626 0.395860 0.000000
0.439616 0.884412 0.000000
0.330406 0.381773 0.000000
0.676842 0.602700 0.000000
0.674982 0.614185 0.000000
0.665930 0.611798 0.000000
0.414707 0.535036 0.000000
0.420123 0.526072 0.000000
0.425338 0.533771 0.000000
0.398407 0.375558 0.000000
0.393804 0.363255 0.000000
0.407284 0.365452 0.000000
0.407758 0.523337 0.000000
0.899969 0.377867 0.000000
0.945915 0.378245 0.000000
0.914158 0.409130 0.000000
0.358219 0.436142 0.000000
0.361390 0.425428 0.000000
0.369309 0.432300 0.000000
0.465999 0.075074 0.000000
0.269944 0.367761 0.000000
0.266521 0.352125 0.000000
0.283474 0.357667 0.000000
0.385889 0.083020 0.000000
0.359482 0.060981 0.000000
0.279658 0.346766 0.000000
0.363604 0.104040 0.000000
0.511115 0.503731 0.000000
0.503243 0.499914 0.000000
0.509146 0.494910 0.000000
0.513188 0.475753 0.000000
0.504957 0.474656 0.000000
0.511959 0.464784 0.000000
0.311863 0.447505 0.000000
0.293019 0.442078 0.000000
0.305555 0.431691 0.000000
0.499204 0.464990 0.000000
0.293855 0.459576 0.000000
0.396676 0.236328 0.000000
0.371014 0.247362 0.000000
0.373003 0.229199 0.000000
0.384478 0.261522 0.000000
0.555704 0.523331 0.000000
0.551313 0.515879 0.000000
0.562752 0.515269 0.000000
0.554954 0.506854 0.000000
0.804236 0.611103 0.000000
0.819351 0.593503 0.000000
0.832061 0.615776 0.000000
0.509908 0.485173 0.000000
0.129738 0.481190 0.000000
0.110722 0.443736 0.000000
0.154857 0.452634 0.000000
0.089738 0.485299 0.000000
0.396427 0.153886 0.000000
0.393058 0.115469 0.000000
0.420333 0.126587 0.000000
0.442628 0.413512 0.000000
0.434815 0.404283 0.000000
0.446816 0.400259 0.000000
0.499770 0.482873 0.000000
0.353883 0.235057 0.000000
0.351360 0.254011 0.000000
0.332147 0.240870 0.000000
0.112307 0.405527 0.000000
0.140355 0.392788 0.000000
0.142004 0.423465 0.000000
0.334868 0.263052 0.000000
0.551239 0.594093 0.000000
0.560217 0.601969 0.000000
0.546711 0.604614 0.000000
0.398510 0.570197 0.000000
0.387124 0.557316 0.000000
0.399978 0.555748 0.000000
0.705281 0.743146 0.000000
0.722930 0.758853 0.000000
0.697202 0.758074 0.000000
0.380190 0.572638 0.000000
0.278345 0.431947 0.000000
0.292575 0.428097 0.000000
0.470820 0.540616 0.000000
0.478213 0.533042 0.000000
0.480161 0.543190 0.000000
0.415268 0.299334 0.000000
0.412465 0.313515 0.000000
0.400419 0.297680 0.000000
0.396495 0.317117 0.000000
0.718655 0.732879 0.000000
0.709319 0.677587 0.000000
0.715709 0.670111 0.000000
0.719283 0.682820 0.000000
0.212992 0.453899 0.000000
0.184619 0.470046 0.000000
0.186665 0.440862 0.000000
0.452307 0.386568 0.000000
0.460371 0.397715 0.000000
0.478664 0.456068 0.000000
0.476179 0.462123 0.000000
0.471250 0.456445 0.000000
0.464654 0.388544 0.000000
0.483415 0.461045 0.000000
0.357146 0.449596 0.000000
0.344653 0.443966 0.000000
0.554562 0.459423 0.000000
0.543333 0.457517 0.000000
0.553850 0.449505 0.000000
0.543131 0.445036 0.000000
0.347312 0.459318 0.000000
0.781088 0.538918 0.000000
0.810909 0.534152 0.000000
0.799399 0.553968 0.000000
0.402869 0.534333 0.000000
0.408011 0.546121 0.000000
0.703844 0.670118 0.000000
0.552234 0.794299 0.000000
0.528593 0.795589 0.000000
0.539188 0.770312 0.000000
0.596088 0.518714 0.000000
0.593029 0.508081 0.000000
0.604120 0.510731 0.000000
0.384880 0.468703 0.000000
0.382270 0.455963 0.000000
0.394062 0.458803 0.000000
0.374729 0.466839 0.000000
0.340939 0.294790 0.000000
0.324530 0.290188 0.000000
0.338473 0.279923 0.000000
0.465367 0.336545 0.000000
0.477337 0.352846 0.000000
0.459495 0.350024 0.000000
0.584947 0.516440 0.000000
0.326802 0.302636 0.000000
0.945343 0.420397 0.000000
0.779746 0.749037 0.000000
0.771533 0.774140 0.000000
0.758291 0.749848 0.000000
0.743435 0.765852 0.000000
0.751942 0.297541 0.000000
0.784264 0.292048 0.000000
0.772562 0.330207 0.000000
0.812744 0.305799 0.000000
0.655547 0.494535 0.000000
0.649767 0.472522 0.000000
0.671966 0.480244 0.000000
0.612062 0.502007 0.000000
0.616789 0.515227 0.000000
0.403059 0.898561 0.000000
0.391512 0.946883 0.000000
0.625780 0.504699 0.000000
0.635988 0.491275 0.000000
0.596252 0.650380 0.000000
0.583401 0.655132 0.000000
0.583737 0.644777 0.000000
0.713099 0.416502 0.000000
0.708474 0.388943 0.000000
0.733625 0.389568 0.000000
0.684835 0.406222 0.000000
0.656936 0.416423 0.000000
0.633624 0.425116 0.000000
0.634362 0.400237 0.000000
0.646884 0.740682 0.000000
0.654954 0.726002 0.000000
0.663305 0.741855 0.000000
0.732481 0.441235 0.000000
0.751303 0.460839 0.000000
0.721338 0.462235 0.000000
0.759622 0.437863 0.000000
0.462761 0.363156 0.000000
0.373644 0.622389 0.000000
0.346217 0.613642 0.000000
0.370315 0.594521 0.000000
0.351411 0.640635 0.000000
0.695337 0.690220 0.000000
0.705202 0.700133 0.000000
0.692303 0.700990 0.000000
0.521365 0.516400 0.000000
0.522992 0.510597 0.000000
0.527633 0.513574 0.000000
0.291567 0.329512 0.000000
0.294927 0.318154 0.000000
0.365771 0.366553 0.000000
0.366135 0.358691 0.000000
0.374180 0.368122 0.000000
0.408232 0.327056 0.000000
0.423479 0.328280 0.000000
0.411272 0.339740 0.000000
0.664110 0.670607 0.000000
0.667245 0.662649 0.000000
[...]
POINT_DATA 1818
SCALARS UX float 1
LOOKUP_TABLE default
-0.000001
0.000001
0.060232
-0.199125
-0.060184
0.014421
0.000000
-0.000000
-0.000000
-0.000000
-0.000000
-0.000000
-0.000000
-0.000000
-0.000000
0.000000
0.000000
0.000000
0.000000
0.000000
0.000000
-0.000000
0.036502
0.054942
0.068268
0.080054
0.089591
0.097641
0.104343
0.109197
0.112534
0.114063
0.113238
0.111058
0.106029
0.096116
0.081254
0.069021
0.035401
0.016449
0.002193
-0.010194
-0.021910
-0.033630
-0.045867
-0.058767
-0.072681
-0.087651
-0.103284
-0.119324
-0.135519
-0.151662
-0.167594
-0.183409
-0.196423
-0.193620
-0.190918
-0.188209
-0.185483
-0.182544
-0.179245
-0.175162
-0.169694
-0.162757
-0.154281
-0.143255
-0.128754
-0.110042
-0.082685
-0.053777
-0.058588
-0.057101
-0.058377
-0.056031
-0.056269
-0.054690
-0.053469
-0.053018
-0.052199
-0.050970
-0.050875
-0.049425
-0.049396
-0.050380
-0.049539
-0.048997
-0.049819
-0.049036
-0.048384
-0.047255
-0.046333
-0.045382
-0.044603
-0.043274
-0.042181
-0.041298
-0.039891
-0.038436
-0.037822
-0.036529
-0.036579
-0.035701
-0.034081
-0.033098
-0.030051
-0.028810
-0.026708
-0.025852
-0.022609
-0.020609
-0.019473
-0.017645
-0.016443
-0.015415
-0.014457
-0.013476
-0.012937
-0.011579
-0.010777
-0.009891
-0.008511
-0.007452
-0.006484
-0.004920
-0.004030
-0.002418
-0.001443
-0.000894
0.000268
0.001490
0.003793
0.005514
0.006847
0.009749
0.012593
0.013608
-0.001070
-0.000075
0.000756
-0.052469
-0.053808
-0.058505
0.001013
-0.014800
-0.019560
-0.010208
-0.008676
-0.006422
-0.009533
-0.008467
0.006843
0.005317
0.008242
-0.084846
-0.083296
-0.083102
-0.091888
-0.098242
-0.095461
0.038796
0.041425
0.035000
-0.081593
-0.012090
-0.005760
-0.059235
-0.059594
-0.063204
-0.062979
-0.050255
-0.048718
-0.053233
-0.001419
-0.004002
-0.002354
-0.077676
-0.081068
-0.072015
-0.101929
-0.098552
-0.078115
-0.092811
0.046329
0.044951
0.043177
-0.091178
-0.090599
-0.089374
-0.015349
-0.016518
-0.013833
-0.092809
0.081892
0.091010
0.088307
-0.099009
-0.097095
-0.096536
-0.002394
-0.105612
-0.101514
-0.097914
-0.004795
-0.003876
-0.094013
-0.006993
-0.000396
-0.008123
0.004208
0.010645
0.008732
0.009912
-0.108189
-0.111400
-0.108031
0.007220
-0.112522
-0.015547
-0.019629
-0.017827
-0.018633
0.019750
0.018885
0.022035
0.019946
0.076566
0.080018
0.082346
0.009360
-0.148366
-0.148571
-0.141219
-0.156104
-0.009406
-0.006784
-0.006308
-0.005532
-0.007463
-0.005339
0.005339
-0.020666
-0.022963
-0.024066
-0.143622
-0.136782
-0.140620
-0.026455
-0.060959
-0.058334
-0.061309
-0.093101
-0.095757
-0.093220
-0.007767
-0.003187
-0.011561
-0.096923
-0.113478
-0.110185
-0.081059
-0.079809
-0.079207
-0.014628
-0.014893
-0.016988
-0.017470
-0.000424
0.030401
0.041710
0.034137
-0.129428
-0.136529
-0.133873
-0.005349
-0.003332
0.002027
-0.000169
-0.000703
-0.003360
0.003103
-0.100317
-0.102013
0.016310
0.014386
0.015271
0.013166
-0.102524
0.069548
0.076390
0.074625
-0.093328
-0.091996
0.032870
-0.048968
-0.055128
-0.052582
0.028520
0.027091
0.029269
-0.096726
-0.096513
-0.094560
-0.098327
-0.028441
-0.031930
-0.027785
-0.006209
-0.003717
-0.006471
0.026341
-0.032621
0.095411
0.029938
0.015183
0.016371
0.004037
0.038408
0.044203
0.047408
0.052591
0.037813
0.034878
0.040265
0.029933
0.031892
-0.087653
-0.091320
0.032680
0.033542
-0.045409
-0.047939
-0.048973
0.044229
0.040445
0.046127
0.036930
0.031798
0.027652
0.025768
-0.024194
-0.021916
-0.019889
0.051020
0.057163
0.050173
0.057086
-0.005307
-0.097778
-0.104356
-0.098861
-0.102984
0.000303
0.003448
-0.005370
-0.004266
0.003420
0.005526
-0.071216
-0.054113
-0.025385
-0.022963
-0.021078
-0.015277
-0.012811
-0.014348
-0.018357
-0.011755
-0.009689
-0.098713
-0.100806
-0.102058
-0.103963
-0.025576
-0.029548
-0.035000
-0.001083
0.003865
0.007545
0.006194
-0.034525
-0.037421
-0.032155
-0.017182
-0.023750
-0.025102
-0.072822
-0.074743
-0.076112
-0.024755
-0.034128
-0.033241
-0.012542
-0.006099
0.000548
-0.008942
-0.003403
-0.020204
-0.020517
-0.075226
-0.069977
-0.068015
-0.075880
-0.116243
-0.111047
-0.114072
-0.097127
-0.101996
-0.098103
-0.025014
-0.024714
-0.060997
0.025242
0.025518
-0.109951
-0.107373
-0.106024
-0.049357
-0.148822
-0.138377
-0.138223
-0.130781
-0.091324
-0.073234
-0.074608
-0.074951
-0.071971
-0.077763
-0.075433
0.046352
0.046032
0.042403
0.051410
-0.109969
-0.107299
-0.104839
-0.057543
-0.070121
-0.054117
-0.045277
-0.039369
-0.030328
-0.017875
-0.053704
-0.067100
-0.078467
0.047655
0.038502
-0.076265
-0.079587
-0.077878
-0.035816
-0.043822
-0.044188
-0.077565
-0.078737
-0.076246
-0.054762
-0.049098
-0.051118
-0.077169
-0.084244
-0.019114
-0.019400
-0.027988
-0.027327
-0.024717
-0.030248
0.017835
0.016257
0.013672
-0.174245
-0.171833
-0.165415
-0.158659
-0.152074
-0.158841
-0.151014
-0.024391
-0.030082
-0.041678
-0.043132
-0.068468
-0.071211
-0.069179
-0.072571
-0.065490
-0.067310
-0.064583
-0.091767
-0.093719
-0.091241
-0.091666
-0.091324
-0.093001
-0.092100
-0.082467
-0.013632
-0.020678
-0.020758
0.011192
0.007167
0.009356
0.008352
0.066094
0.057678
0.061522
0.072487
0.073600
-0.077745
-0.079444
-0.084242
0.021366
0.022728
0.010417
-0.085877
-0.084089
-0.086466
-0.038642
-0.031461
-0.081818
-0.034538
-0.040858
-0.042659
-0.001298
0.000559
-0.001553
0.019808
0.021243
0.021861
-0.024812
-0.024731
-0.040998
0.023443
-0.137087
-0.129922
-0.143530
-0.134038
-0.140636
0.003560
0.005369
0.013502
0.015614
0.013690
0.015946
0.014044
-0.155850
-0.035997
-0.030169
-0.036904
-0.030040
-0.099956
-0.108360
-0.095599
0.026853
0.029712
0.033794
-0.021781
0.011275
0.008818
0.017114
0.017526
-0.021892
-0.016791
-0.018514
-0.102327
-0.099693
-0.099680
-0.045126
-0.048946
-0.165039
0.019690
0.022036
0.020179
-0.007693
-0.007678
-0.065008
-0.060495
-0.058260
-0.006111
0.023091
-0.110691
-0.114012
-0.113606
-0.091141
-0.087413
-0.087543
0.003032
0.013276
0.006129
0.011080
-0.006436
0.028782
0.027988
-0.076729
-0.063601
-0.067608
-0.018030
-0.015798
-0.117025
-0.113525
-0.113398
-0.016593
-0.001092
-0.003195
-0.003561
-0.118985
-0.124326
-0.121084
-0.049860
-0.060548
-0.043166
-0.028886
-0.031087
-0.035210
-0.139944
-0.122949
0.016930
-0.107179
-0.115033
0.015377
0.018242
0.021130
-0.130748
0.017232
0.012128
-0.071049
-0.069748
0.054456
0.059627
0.057680
-0.073868
0.010904
0.012022
0.037970
-0.086462
-0.086578
-0.084720
-0.066849
-0.064049
-0.031229
-0.088748
-0.003296
-0.001160
-0.088385
-0.052577
-0.055641
-0.051280
-0.056737
0.079123
0.070846
0.072933
0.026398
0.017038
0.012037
-0.076080
-0.070450
-0.067706
-0.021302
-0.017833
0.007265
-0.006498
-0.005174
-0.000181
-0.000328
-0.102496
-0.101115
-0.020630
-0.019823
-0.090856
0.049550
0.060777
0.048968
0.100876
0.064527
0.010867
0.013488
0.014618
-0.101408
0.002364
-0.012236
-0.010725
-0.010162
-0.058521
-0.073459
-0.054039
-0.050853
0.029851
-0.087742
-0.077623
-0.104437
-0.107174
-0.104733
-0.082920
-0.080528
-0.081711
-0.088052
0.053936
0.051083
0.055728
-0.079050
-0.005965
0.083419
0.036193
0.034908
0.006859
0.017697
0.005866
0.019121
0.014576
0.022551
-0.016469
-0.083519
-0.033010
-0.087432
-0.089432
-0.126836
-0.133176
-0.008285
-0.005669
-0.040410
-0.047798
0.012375
-0.022392
-0.157022
-0.027158
-0.119419
-0.120149
-0.113039
-0.028273
0.054254
0.050897
0.048964
0.047304
-0.008693
-0.010763
-0.045088
-0.042764
-0.040352
0.046025
0.046087
0.043441
0.042519
0.061272
0.064142
-0.121984
-0.120849
0.077954
-0.178611
-0.161711
-0.173617
0.061657
0.060209
0.056293
-0.055499
-0.059130
-0.049903
0.065083
0.081664
0.049691
0.034463
0.042832
0.026397
-0.064797
0.009738
0.007312
0.005908
0.060992
0.067152
0.067631
-0.142793
-0.153977
-0.156223
0.073875
-0.076030
-0.071094
-0.082950
-0.092250
-0.093131
-0.114055
0.009466
0.006167
0.016982
0.098448
0.098573
0.106734
0.089914
0.086064
0.100142
0.099650
-0.041649
-0.042330
-0.141360
-0.130283
-0.130295
-0.048019
0.013389
-0.010466
-0.138011
-0.137413
-0.145348
-0.117071
-0.115620
-0.153854
0.010709
-0.007739
-0.107556
-0.007140
-0.100025
-0.091167
-0.092139
0.102042
0.106960
-0.021200
-0.021804
-0.012136
0.016355
0.006122
0.023195
-0.000070
-0.013068
0.011719
-0.018811
-0.020250
-0.078947
-0.095761
-0.099888
-0.082810
-0.115524
-0.119755
-0.117579
-0.163910
-0.159803
-0.006845
-0.010572
-0.005602
-0.010580
-0.011716
-0.028060
-0.023715
-0.026492
-0.151164
-0.003106
-0.004742
-0.046301
-0.051207
-0.051558
0.104060
0.095673
-0.122966
0.067269
0.063386
0.062893
0.068257
-0.145893
-0.142262
-0.138449
0.073264
-0.002620
0.089583
-0.010327
-0.001887
-0.010212
-0.012023
-0.054826
0.002344
-0.004300
-0.036174
-0.031697
-0.031767
0.047133
0.029712
-0.024718
-0.083023
-0.084364
-0.025951
-0.054792
0.026653
0.032285
0.025307
0.035929
-0.104697
-0.105157
-0.095084
-0.063391
-0.005042
-0.010753
0.009468
0.007135
0.005045
-0.007242
-0.020140
-0.144351
-0.137764
-0.145249
-0.137365
-0.056983
-0.141135
-0.142040
-0.148743
-0.135951
-0.134735
-0.065452
-0.061618
-0.090771
-0.083928
-0.063948
-0.032475
-0.027018
-0.045109
-0.037937
-0.163014
-0.174075
-0.154016
0.004887
0.002947
0.004397
-0.071970
-0.075581
-0.011749
-0.013532
-0.128311
-0.131752
-0.125669
-0.102300
-0.099571
-0.098456
-0.053447
-0.060471
-0.132245
0.006651
0.008037
0.004630
-0.101192
-0.107963
-0.105379
-0.112540
-0.104365
-0.135866
0.038843
0.031729
-0.117618
-0.120705
-0.124055
-0.127160
0.004564
0.001033
-0.098330
0.069360
-0.022658
-0.015405
0.002381
0.001339
-0.002273
-0.053582
-0.002795
-0.101222
-0.077432
-0.076161
-0.080365
-0.082948
-0.113013
-0.117294
-0.118577
-0.007774
-0.009669
-0.124326
0.018010
0.040192
0.038901
-0.164001
-0.153882
-0.158677
-0.049579
-0.054517
-0.053338
-0.112142
0.092440
0.097873
0.089969
0.085209
0.083568
-0.122708
-0.120875
-0.110468
-0.111095
-0.114964
-0.004867
0.044142
0.026260
0.063919
-0.130292
-0.135798
-0.113779
-0.115523
-0.106575
-0.112993
-0.128463
-0.110678
0.003159
0.002558
0.004742
-0.081743
-0.079474
-0.084359
0.053802
0.055059
0.057886
-0.077321
0.080458
0.076532
-0.134301
-0.050209
-0.002147
-0.170057
-0.181817
-0.055868
-0.063301
0.033578
0.032036
0.030952
-0.024391
-0.022511
0.036190
-0.021766
0.038449
-0.116210
-0.123830
0.055934
0.059213
0.041364
0.012097
-0.021475
0.070479
0.060118
0.082677
0.053793
-0.031642
-0.033507
-0.029451
-0.031214
0.010429
-0.042772
-0.048944
0.009795
-0.132688
-0.116982
-0.124217
-0.068944
-0.066890
0.004779
0.008938
-0.065599
-0.068160
-0.068130
0.006756
0.005077
0.006992
-0.081484
-0.078507
-0.078095
-0.108350
0.061746
0.065073
0.066894
-0.110618
-0.115084
-0.119153
-0.010842
-0.013129
-0.014696
-0.120234
-0.074159
-0.017228
-0.070200
-0.043095
-0.130183
-0.128558
0.087513
0.004418
0.055053
0.047668
-0.077975
-0.080611
-0.019815
-0.024019
-0.009810
-0.149094
-0.020484
-0.097148
-0.123789
-0.118704
-0.094295
-0.095034
-0.096091
0.045168
0.043509
0.044594
0.050034
0.013132
0.016616
0.012390
0.018637
-0.107802
-0.070571
-0.071138
-0.111087
-0.071413
0.002128
0.000015
-0.008620
0.082324
0.065856
0.050594
0.000286
-0.009416
-0.036472
-0.109932
-0.107706
-0.105157
-0.124265
-0.042302
-0.015246
-0.035635
-0.033372
-0.037600
0.002725
0.001352
-0.004407
-0.015051
-0.012204
-0.012532
0.050656
0.013587
0.009769
0.007671
-0.012568
0.017558
-0.021936
-0.017155
0.077873
-0.098331
-0.105263
-0.098976
-0.103834
-0.114381
0.070999
0.053231
0.057337
0.048469
0.045787
0.044134
-0.118238
-0.011212
0.002824
0.005908
0.004941
-0.004149
-0.002362
-0.002324
0.093102
0.099728
0.063747
-0.105006
-0.101894
-0.035481
-0.037851
0.035520
0.059112
0.051493
0.052955
-0.094453
-0.093050
-0.041164
-0.043823
-0.034893
-0.108145
-0.105033
-0.017055
-0.111126
0.021297
0.021039
0.019066
-0.017150
-0.014105
0.050543
0.044264
-0.092477
-0.094005
-0.087560
-0.088676
-0.091650
-0.096099
0.016143
0.013054
-0.130467
0.015887
0.019937
0.023693
0.081865
0.081258
0.014179
-0.013644
-0.012902
-0.019607
-0.031867
-0.062632
-0.031927
-0.036840
-0.040133
-0.095370
-0.095458
0.059044
0.023461
0.018278
0.018038
-0.001571
-0.035001
-0.043187
-0.046138
0.038195
0.035150
0.032415
-0.094550
-0.094219
-0.087130
-0.031265
-0.025031
-0.020505
-0.018978
-0.015636
-0.028409
-0.025405
-0.019494
-0.046896
-0.013817
-0.013573
0.059185
0.064429
0.063999
0.047081
0.059264
0.075021
-0.097900
-0.049112
-0.065482
-0.072922
-0.068995
-0.067028
-0.074385
-0.063524
0.008007
0.042174
-0.001308
-0.029571
-0.027791
0.049565
0.050382
0.030959
0.026901
0.024183
-0.077871
-0.088146
-0.014913
0.008999
-0.102546
0.052084
0.051463
0.043239
0.041408
-0.100790
-0.127519
-0.106426
0.044989
0.042959
0.021151
0.016305
0.018875
0.021531
0.043891
0.089881
-0.017417
0.035026
0.021903
0.025995
-0.015486
-0.058605
-0.047999
0.083573
0.001554
-0.055645
0.037417
0.040476
-0.041136
-0.048299
-0.059644
-0.063840
-0.059145
-0.086322
0.030312
0.027712
-0.030977
-0.040226
-0.037470
-0.085344
-0.065983
-0.146803
0.030131
0.030469
0.027558
0.030617
0.033345
-0.092626
0.030562
-0.089464
-0.029621
-0.076518
-0.098874
-0.058443
-0.051805
-0.050719
-0.080015
-0.010537
-0.092814
-0.128630
-0.018195
-0.017443
-0.023957
-0.090558
-0.087015
-0.072681
0.037743
-0.003504
-0.003216
-0.076432
-0.043365
0.028171
0.038772
-0.091064
-0.096027
-0.093051
0.010427
-0.080437
0.046641
0.043170
-0.004801
-0.059273
-0.062189
-0.062439
-0.074656
-0.073922
-0.029144
-0.015561
0.081062
0.086092
0.016673
-0.031834
0.017801
-0.025418
-0.026926
0.025083
-0.023099
-0.034685
0.072143
-0.026428
-0.093788
-0.093695
0.037901
0.003512
0.005189
0.086440
0.006177
-0.005306
-0.017206
-0.130547
-0.130807
-0.029008
-0.032765
-0.091692
-0.094769
-0.092432
0.091382
-0.095245
-0.059429
-0.071739
0.047669
-0.045475
-0.035719
-0.034400
-0.075191
-0.014429
-0.017560
0.012971
-0.060296
-0.064586
0.025924
0.028407
0.030528
0.031654
0.028476
0.006266
-0.153160
-0.062947
-0.073293
-0.071465
-0.032246
-0.037231
-0.037851
0.008969
0.011563
-0.043099
-0.035940
-0.000894
0.012139
0.025712
-0.013593
-0.012072
-0.011477
-0.009978
-0.065214
-0.084725
-0.079107
0.035871
0.036150
0.038550
-0.067290
-0.067308
-0.013264
-0.088507
-0.089341
0.001731
0.003844
0.042090
-0.000360
-0.096512
-0.105604
-0.096780
-0.081901
-0.009279
-0.077096
-0.017700
-0.019561
-0.120495
-0.123158
-0.001151
-0.022197
-0.005478
-0.068477
0.000725
-0.000892
-0.000367
-0.098072
-0.098667
0.012166
-0.076587
-0.098447
-0.116940
-0.120124
-0.103187
-0.069388
-0.067962
-0.064221
0.022958
0.025088
0.024645
-0.087311
-0.085304
-0.018366
-0.018959
-0.089548
-0.089845
-0.093521
-0.037927
-0.036048
-0.074463
-0.086848
0.040763
0.040067
-0.009832
-0.090510
-0.090686
-0.097175
-0.093988
-0.093423
-0.014133
-0.012444
0.023697
0.011089
-0.079373
-0.078059
-0.071567
-0.012425
-0.007923
-0.000954
-0.003518
-0.088672
0.003951
0.003866
-0.046486
-0.063894
-0.006507
-0.008796
-0.072089
-0.067481
-0.021508
0.008839
0.008402
0.033659
-0.092600
0.034290
-0.020215
0.064011
0.063287
-0.096772
-0.096038
-0.026694
-0.025403
-0.037041
-0.039214
0.032281
0.040944
0.000724
-0.053322
0.038127
-0.101606
0.044743
0.033417
0.034599
-0.101837
0.044447
0.023847
-0.004390
0.018166
0.016352
-0.007920
0.025737
-0.156883
-0.148145
-0.149653
-0.112880
0.066643
0.024117
0.027577
0.023030
0.001189
-0.130166
0.073397
-0.100279
-0.090083
-0.087483
-0.008864
-0.001761
-0.006734
0.023967
0.004872
-0.058968
-0.056321
-0.168497
-0.010028
0.038335
0.052124
-0.182836
-0.183034
-0.056552
0.009629
0.029292
0.011993
0.029372
0.051988
0.016704
0.001790
-0.091290
0.016366
-0.096947
-0.034509
0.017637
0.030347
0.026380
0.015021
0.058715
0.036357
-0.090308
-0.084105
-0.083657
0.079210
0.074461
0.001987
0.044730
-0.074659
-0.078187
-0.080169
0.002048
0.004181
0.002267
0.003120
-0.059051
-0.012093
0.049831
0.027670
-0.084060
-0.072365
-0.136552
-0.041053
0.047886
0.071029
0.066198
-0.099434
-0.105952
-0.125391
0.052425
0.049508
-0.079815
-0.038620
-0.002413
-0.005360
-0.102442
-0.004760
-0.025121
-0.056097
0.054661
0.069670
0.020482
0.010624
0.003595
-0.115843
-0.030498
-0.007290
-0.005682
-0.093929
0.090560
-0.143631
0.000794
0.000567
-0.120805
0.047902
0.024405
0.014302
-0.054187
0.016890
0.010869
-0.071770
0.044937
-0.067767
-0.010469
-0.013118
0.004728
-0.072065
0.016304
-0.062373
-0.007006
-0.015258
-0.014432
-0.065721
0.076574
0.040372
-0.087167
-0.087904
-0.026852
0.028795
-0.167048
-0.178191
-0.173581
-0.069523
-0.091684
0.031406
-0.096354
0.018679
0.040688
0.039510
-0.020832
-0.097047
-0.104407
-0.081639
0.064368
0.059550
0.012518
0.011621
-0.053243
-0.061115
-0.104747
-0.108012
0.015144
-0.092313
-0.041864
-0.043856
-0.089887
-0.126519
0.027416
0.021461
0.027081
0.032510
-0.050409
0.058214
0.045299
-0.035754
-0.078764
-0.081861
0.033621
0.025633
-0.076925
0.022241
0.008703
-0.095324
0.051337
-0.055541
-0.106166
0.032649
0.036344
-0.042531
-0.041519
-0.081513
-0.093981
0.033292
0.033763
0.035360
-0.023495
0.012237
-0.013468
-0.082250
-0.109474
0.015794
0.009346
-0.082787
-0.089087
0.029605
0.037318
-0.008363
-0.001538
-0.009387
0.056769
0.082332
-0.037098
-0.035271
-0.056987
-0.109497
0.036833
-0.078646
-0.026314
-0.026096
-0.013901
0.009681
-0.086896
0.030375
-0.085950
-0.046998
0.038407
-0.081817
-0.067933
-0.076444
-0.087282
-0.037775
-0.031203
-0.084548
0.033052
-0.084748
-0.021486
-0.020962
-0.034746
-0.015074
-0.042995
-0.040480
0.011088
-0.083227
-0.085394
-0.029282
-0.020498
-0.021378
-0.063690
-0.063824
-0.055181
-0.070589
-0.056072
-0.026250
-0.064755
-0.053076
-0.035812
-0.011831
-0.074711
0.042435
0.037961
-0.030682
-0.089319
-0.086034
-0.030479
-0.001955
0.002221
-0.055513
-0.012560
-0.082037
-0.089868
-0.014839
0.013965
0.019462
0.026136
0.039769
-0.085984
0.014580
-0.078407
-0.065584
-0.080525
0.025922
-0.041907
0.015194
-0.088981
0.005600
0.000648
-0.001045
-0.099446
-0.008954
-0.057362
-0.065020
-0.017620
-0.042293
-0.087396
-0.008512
0.021896
-0.047372
-0.069749
-0.017848
SCALARS UY float 1
LOOKUP_TABLE default
-0.000001
-0.000001
-0.385000
-0.385000
-0.095599
-0.255634
-0.000000
-0.000000
-0.000000
-0.000000
-0.000000
-0.000000
-0.000000
-0.000000
-0.000000
-0.000000
-0.000000
-0.000000
-0.000000
-0.000000
-0.000000
-0.000000
-0.036740
-0.062522
-0.082410
-0.101367
-0.119120
-0.136628
-0.153694
-0.169928
-0.186031
-0.201739
-0.217971
-0.234755
-0.253851
-0.279272
-0.311080
-0.347875
-0.385000
-0.385000
-0.385000
-0.385000
-0.385000
-0.385000
-0.385000
-0.385000
-0.385000
-0.385000
-0.385000
-0.385000
-0.385000
-0.385000
-0.385000
-0.385000
-0.361247
-0.337755
-0.314955
-0.292828
-0.271578
-0.251792
-0.233312
-0.216170
-0.200097
-0.184850
-0.169697
-0.154000
-0.136530
-0.114613
-0.084512
-0.047947
-0.097340
-0.099333
-0.100450
-0.103898
-0.105862
-0.108263
-0.110515
-0.111955
-0.113156
-0.114889
-0.115844
-0.119048
-0.120331
-0.123953
-0.126486
-0.129120
-0.130902
-0.133272
-0.135409
-0.137794
-0.139835
-0.141557
-0.142948
-0.145566
-0.148097
-0.148184
-0.151280
-0.154146
-0.155493
-0.158464
-0.161228
-0.163821
-0.167023
-0.167190
-0.169917
-0.171186
-0.173402
-0.173689
-0.177027
-0.178901
-0.180360
-0.183036
-0.184751
-0.188350
-0.191293
-0.194070
-0.196587
-0.199981
-0.202729
-0.205587
-0.209268
-0.211948
-0.213417
-0.217019
-0.219739
-0.222950
-0.225978
-0.228917
-0.231598
-0.234582
-0.237731
-0.241023
-0.243128
-0.247309
-0.251637
-0.254819
-0.013926
-0.007163
-0.015854
-0.220056
-0.225887
-0.227526
-0.008190
-0.119333
-0.119806
-0.112087
-0.035852
-0.038923
-0.041474
-0.045320
-0.100407
-0.094567
-0.097895
-0.209261
-0.209170
-0.212234
-0.142619
-0.150206
-0.145188
-0.199013
-0.202501
-0.206815
-0.211210
-0.111235
-0.105314
-0.252356
-0.256380
-0.250639
-0.255765
-0.247055
-0.252596
-0.250961
-0.005714
-0.014320
-0.007187
-0.368697
-0.354904
-0.353910
-0.156425
-0.154388
-0.341998
-0.146609
-0.186560
-0.191148
-0.189119
-0.208835
-0.206260
-0.209215
-0.086523
-0.082647
-0.083140
-0.204448
-0.130189
-0.136601
-0.142343
-0.171598
-0.167656
-0.170482
-0.012599
-0.139887
-0.131566
-0.132880
-0.014024
-0.010231
-0.126319
-0.018019
-0.139644
-0.143815
-0.131791
-0.120306
-0.119691
-0.116335
-0.173742
-0.171523
-0.167852
-0.115754
-0.177912
-0.046456
-0.049223
-0.044695
-0.052996
-0.140885
-0.137257
-0.137558
-0.133643
-0.203617
-0.197778
-0.206247
-0.124261
-0.192297
-0.182067
-0.180902
-0.196762