# vtk DataFile Version 2.0
Test
ASCII
DATASET POLYDATA
POINTS 1818 float
0.000000 0.000000 0.000000
1.000000 0.000000 0.000000
1.000000 1.000000 0.000000
0.000000 1.000000 0.000000
0.300000 0.330000 0.000000
0.700000 0.680000 0.000000
0.058824 0.000000 0.000000
0.117647 0.000000 0.000000
0.176471 0.000000 0.000000
0.235294 0.000000 0.000000
0.294118 0.000000 0.000000
0.352941 0.000000 0.000000
0.411765 0.000000 0.000000
0.470588 0.000000 0.000000
0.529412 0.000000 0.000000
0.588235 0.000000 0.000000
0.647059 0.000000 0.000000
0.705882 0.000000 0.000000
0.764706 0.000000 0.000000
0.823529 0.000000 0.000000
0.882353 0.000000 0.000000
0.941176 0.000000 0.000000
1.000000 0.058824 0.000000
1.000000 0.117647 0.000000
1.000000 0.176471 0.000000
1.000000 0.235294 0.000000
1.000000 0.294118 0.000000
1.000000 0.352941 0.000000
1.000000 0.411765 0.000000
1.000000 0.470588 0.000000
1.000000 0.529412 0.000000
1.000000 0.588235 0.000000
1.000000 0.647059 0.000000
1.000000 0.705882 0.000000
1.000000 0.764706 0.000000
1.000000 0.823529 0.000000
1.000000 0.882353 0.000000
1.000000 0.941176 0.000000
0.941176 1.000000 0.000000
0.882353 1.000000 0.000000
0.823529 1.000000 0.000000
0.764706 1.000000 0.000000
0.705882 1.000000 0.000000
0.647059 1.000000 0.000000
0.588235 1.000000 0.000000
0.529412 1.000000 0.000000
0.470588 1.000000 0.000000
0.411765 1.000000 0.000000
0.352941 1.000000 0.000000
0.294118 1.000000 0.000000
0.235294 1.000000 0.000000
0.176471 1.000000 0.000000
0.117647 1.000000 0.000000
0.058824 1.000000 0.000000
0.000000 0.941176 0.000000
0.000000 0.882353 0.000000
0.000000 0.823529 0.000000
0.000000 0.764706 0.000000
0.000000 0.705882 0.000000
0.000000 0.647059 0.000000
0.000000 0.588235 0.000000
0.000000 0.529412 0.000000
0.000000 0.470588 0.000000
0.000000 0.411765 0.000000
0.000000 0.352941 0.000000
0.000000 0.294118 0.000000
0.000000 0.235294 0.000000
0.000000 0.176471 0.000000
0.000000 0.117647 0.000000
0.000000 0.058824 0.000000
0.305970 0.335224 0.000000
0.311940 0.340448 0.000000
0.317910 0.345672 0.000000
0.323881 0.350896 0.000000
0.329851 0.356119 0.000000
0.335821 0.361343 0.000000
0.341791 0.366567 0.000000
0.347761 0.371791 0.000000
0.353731 0.377015 0.000000
0.359701 0.382239 0.000000
0.365672 0.387463 0.000000
0.371642 0.392687 0.000000
0.377612 0.397910 0.000000
0.383582 0.403134 0.000000
0.389552 0.408358 0.000000
0.395522 0.413582 0.000000
0.401493 0.418806 0.000000
0.407463 0.424030 0.000000
0.413433 0.429254 0.000000
0.419403 0.434478 0.000000
0.425373 0.439701 0.000000
0.431343 0.444925 0.000000
0.437313 0.450149 0.000000
0.443284 0.455373 0.000000
0.449254 0.460597 0.000000
0.455224 0.465821 0.000000
0.461194 0.471045 0.000000
0.467164 0.476269 0.000000
0.473134 0.481493 0.000000
0.479104 0.486716 0.000000
0.485075 0.491940 0.000000
0.491045 0.497164 0.000000
0.497015 0.502388 0.000000
0.502985 0.507612 0.000000
0.508955 0.512836 0.000000
0.514925 0.518060 0.000000
0.520896 0.523284 0.000000
0.526866 0.528507 0.000000
0.532836 0.533731 0.000000
0.538806 0.538955 0.000000
0.544776 0.544179 0.000000
0.550746 0.549403 0.000000
0.556716 0.554627 0.000000
0.562687 0.559851 0.000000
0.568657 0.565075 0.000000
0.574627 0.570299 0.000000
0.580597 0.575522 0.000000
0.586567 0.580746 0.000000
0.592537 0.585970 0.000000
0.598507 0.591194 0.000000
0.604478 0.596418 0.000000
0.610448 0.601642 0.000000
0.616418 0.606866 0.000000
0.622388 0.612090 0.000000
0.628358 0.617313 0.000000
0.634328 0.622537 0.000000
0.640299 0.627761 0.000000
0.646269 0.632985 0.000000
0.652239 0.638209 0.000000
0.658209 0.643433 0.000000
0.664179 0.648657 0.000000
0.670149 0.653881 0.000000
0.676119 0.659104 0.000000
0.682090 0.664328 0.000000
0.688060 0.669552 0.000000
0.694030 0.674776 0.000000
0.516135 0.080917 0.000000
0.549338 0.042552 0.000000
0.567302 0.088709 0.000000
0.555658 0.563778 0.000000
0.559301 0.571359 0.000000
0.552318 0.570919 0.000000
0.603235 0.047100 0.000000
0.446553 0.448087 0.000000
0.438652 0.443189 0.000000
0.445116 0.440368 0.000000
0.437254 0.190586 0.000000
0.465954 0.201747 0.000000
0.439184 0.213838 0.000000
0.453137 0.228102 0.000000
0.522423 0.410182 0.000000
0.522098 0.390982 0.000000
0.537289 0.398500 0.000000
0.453388 0.527105 0.000000
0.462022 0.524948 0.000000
0.461218 0.533993 0.000000
0.324300 0.374550 0.000000
0.319287 0.386214 0.000000
0.314834 0.375138 0.000000
0.668809 0.628853 0.000000
0.677366 0.632907 0.000000
0.668274 0.639611 0.000000
0.469934 0.529282 0.000000
0.439703 0.436699 0.000000
0.446608 0.432083 0.000000
0.542854 0.633425 0.000000
0.535117 0.647070 0.000000
0.524302 0.633157 0.000000
0.519372 0.648877 0.000000
0.586338 0.611293 0.000000
0.591638 0.624149 0.000000
0.575478 0.621479 0.000000
0.437962 0.035513 0.000000
0.421505 0.085456 0.000000
0.394924 0.044162 0.000000
0.445207 0.955749 0.000000
0.429168 0.919510 0.000000
0.464409 0.914226 0.000000
0.317150 0.400904 0.000000
0.328626 0.395860 0.000000
0.439616 0.884412 0.000000
0.330406 0.381773 0.000000
0.676842 0.602700 0.000000
0.674982 0.614185 0.000000
0.665930 0.611798 0.000000
0.414707 0.535036 0.000000
0.420123 0.526072 0.000000
0.425338 0.533771 0.000000
0.398407 0.375558 0.000000
0.393804 0.363255 0.000000
0.407284 0.365452 0.000000
0.407758 0.523337 0.000000
0.899969 0.377867 0.000000
0.945915 0.378245 0.000000
0.914158 0.409130 0.000000
0.358219 0.436142 0.000000
0.361390 0.425428 0.000000
0.369309 0.432300 0.000000
0.465999 0.075074 0.000000
0.269944 0.367761 0.000000
0.266521 0.352125 0.000000
0.283474 0.357667 0.000000
0.385889 0.083020 0.000000
0.359482 0.060981 0.000000
0.279658 0.346766 0.000000
0.363604 0.104040 0.000000
0.511115 0.503731 0.000000
0.503243 0.499914 0.000000
0.509146 0.494910 0.000000
0.513188 0.475753 0.000000
0.504957 0.474656 0.000000
0.511959 0.464784 0.000000
0.311863 0.447505 0.000000
0.293019 0.442078 0.000000
0.305555 0.431691 0.000000
0.499204 0.464990 0.000000
0.293855 0.459576 0.000000
0.396676 0.236328 0.000000
0.371014 0.247362 0.000000
0.373003 0.229199 0.000000
0.384478 0.261522 0.000000
0.555704 0.523331 0.000000
0.551313 0.515879 0.000000
0.562752 0.515269 0.000000
0.554954 0.506854 0.000000
0.804236 0.611103 0.000000
0.819351 0.593503 0.000000
0.832061 0.615776 0.000000
0.509908 0.485173 0.000000
0.129738 0.481190 0.000000
0.110722 0.443736 0.000000
0.154857 0.452634 0.000000
0.089738 0.485299 0.000000
0.396427 0.153886 0.000000
0.393058 0.115469 0.000000
0.420333 0.126587 0.000000
0.442628 0.413512 0.000000
0.434815 0.404283 0.000000
0.446816 0.400259 0.000000
0.499770 0.482873 0.000000
0.353883 0.235057 0.000000
0.351360 0.254011 0.000000
0.332147 0.240870 0.000000
0.112307 0.405527 0.000000
0.140355 0.392788 0.000000
0.142004 0.423465 0.000000
0.334868 0.263052 0.000000
0.551239 0.594093 0.000000
0.560217 0.601969 0.000000
0.546711 0.604614 0.000000
0.398510 0.570197 0.000000
0.387124 0.557316 0.000000
0.399978 0.555748 0.000000
0.705281 0.743146 0.000000
0.722930 0.758853 0.000000
0.697202 0.758074 0.000000
0.380190 0.572638 0.000000
0.278345 0.431947 0.000000
0.292575 0.428097 0.000000
0.470820 0.540616 0.000000
0.478213 0.533042 0.000000
0.480161 0.543190 0.000000
0.415268 0.299334 0.000000
0.412465 0.313515 0.000000
0.400419 0.297680 0.000000
0.396495 0.317117 0.000000
0.718655 0.732879 0.000000
0.709319 0.677587 0.000000
0.715709 0.670111 0.000000
0.719283 0.682820 0.000000
0.212992 0.453899 0.000000
0.184619 0.470046 0.000000
0.186665 0.440862 0.000000
0.452307 0.386568 0.000000
0.460371 0.397715 0.000000
0.478664 0.456068 0.000000
0.476179 0.462123 0.000000
0.471250 0.456445 0.000000
0.464654 0.388544 0.000000
0.483415 0.461045 0.000000
0.357146 0.449596 0.000000
0.344653 0.443966 0.000000
0.554562 0.459423 0.000000
0.543333 0.457517 0.000000
0.553850 0.449505 0.000000
0.543131 0.445036 0.000000
0.347312 0.459318 0.000000
0.781088 0.538918 0.000000
0.810909 0.534152 0.000000
0.799399 0.553968 0.000000
0.402869 0.534333 0.000000
0.408011 0.546121 0.000000
0.703844 0.670118 0.000000
0.552234 0.794299 0.000000
0.528593 0.795589 0.000000
0.539188 0.770312 0.000000
0.596088 0.518714 0.000000
0.593029 0.508081 0.000000
0.604120 0.510731 0.000000
0.384880 0.468703 0.000000
0.382270 0.455963 0.000000
0.394062 0.458803 0.000000
0.374729 0.466839 0.000000
0.340939 0.294790 0.000000
0.324530 0.290188 0.000000
0.338473 0.279923 0.000000
0.465367 0.336545 0.000000
0.477337 0.352846 0.000000
0.459495 0.350024 0.000000
0.584947 0.516440 0.000000
0.326802 0.302636 0.000000
0.945343 0.420397 0.000000
0.779746 0.749037 0.000000
0.771533 0.774140 0.000000
0.758291 0.749848 0.000000
0.743435 0.765852 0.000000
0.751942 0.297541 0.000000
0.784264 0.292048 0.000000
0.772562 0.330207 0.000000
0.812744 0.305799 0.000000
0.655547 0.494535 0.000000
0.649767 0.472522 0.000000
0.671966 0.480244 0.000000
0.612062 0.502007 0.000000
0.616789 0.515227 0.000000
0.403059 0.898561 0.000000
0.391512 0.946883 0.000000
0.625780 0.504699 0.000000
0.635988 0.491275 0.000000
0.596252 0.650380 0.000000
0.583401 0.655132 0.000000
0.583737 0.644777 0.000000
0.713099 0.416502 0.000000
0.708474 0.388943 0.000000
0.733625 0.389568 0.000000
0.684835 0.406222 0.000000
0.656936 0.416423 0.000000
0.633624 0.425116 0.000000
0.634362 0.400237 0.000000
0.646884 0.740682 0.000000
0.654954 0.726002 0.000000
0.663305 0.741855 0.000000
0.732481 0.441235 0.000000
0.751303 0.460839 0.000000
0.721338 0.462235 0.000000
0.759622 0.437863 0.000000
0.462761 0.363156 0.000000
0.373644 0.622389 0.000000
0.346217 0.613642 0.000000
0.370315 0.594521 0.000000
0.351411 0.640635 0.000000
0.695337 0.690220 0.000000
0.705202 0.700133 0.000000
0.692303 0.700990 0.000000
0.521365 0.516400 0.000000
0.522992 0.510597 0.000000
0.527633 0.513574 0.000000
0.291567 0.329512 0.000000
0.294927 0.318154 0.000000
0.365771 0.366553 0.000000
0.366135 0.358691 0.000000
0.374180 0.368122 0.000000
0.408232 0.327056 0.000000
0.423479 0.328280 0.000000
0.411272 0.339740 0.000000
0.664110 0.670607 0.000000
0.667245 0.662649 0.000000
[...]
POINT_DATA 1818
SCALARS UX float 1
LOOKUP_TABLE default
-0.000007
0.000005
0.230152
-0.596915
-0.237509
0.100114
0.000001
-0.000001
-0.000000
-0.000000
-0.000000
-0.000000
-0.000000
-0.000000
-0.000000
0.000000
0.000000
0.000000
0.000000
0.000000
0.000001
-0.000000
0.139388
0.212977
0.265908
0.309975
0.345124
0.374468
0.398775
0.416254
0.426196
0.425981
0.411382
0.387431
0.352454
0.310695
0.269755
0.243976
0.171090
0.118648
0.072049
0.028815
-0.011598
-0.050267
-0.089543
-0.130448
-0.173809
-0.219521
-0.267010
-0.316205
-0.367242
-0.420494
-0.475725
-0.535931
-0.592394
-0.591990
-0.596925
-0.603910
-0.613017
-0.622387
-0.629651
-0.631347
-0.623858
-0.608474
-0.586608
-0.557906
-0.501966
-0.395048
-0.303305
-0.232648
-0.226305
-0.217258
-0.211172
-0.203134
-0.195741
-0.187154
-0.178656
-0.172708
-0.164538
-0.155858
-0.150147
-0.145889
-0.137846
-0.143219
-0.135552
-0.131599
-0.131976
-0.128195
-0.124765
-0.120758
-0.117321
-0.114059
-0.111743
-0.106901
-0.103386
-0.100360
-0.096239
-0.091074
-0.090107
-0.086364
-0.086115
-0.083972
-0.078622
-0.074626
-0.062017
-0.056591
-0.050601
-0.040063
-0.035728
-0.023620
-0.019196
-0.011863
-0.007779
-0.005119
-0.002276
0.000731
0.002257
0.007587
0.010331
0.013367
0.019097
0.020056
0.022843
0.027948
0.029763
0.034826
0.037166
0.038460
0.042946
0.047266
0.055310
0.058679
0.065135
0.073818
0.085574
0.091058
-0.010502
-0.003725
-0.002033
-0.167831
-0.173554
-0.191449
0.001399
0.012385
-0.006738
0.027227
-0.042005
-0.031448
-0.043228
-0.036653
0.072434
0.061247
0.072831
-0.289636
-0.283946
-0.282218
-0.345034
-0.378423
-0.368257
0.194328
0.202432
0.169404
-0.277105
0.019919
0.040347
-0.180446
-0.177361
-0.193286
-0.187667
-0.156721
-0.148967
-0.164314
-0.009721
-0.023968
-0.014108
-0.192277
-0.205110
-0.177402
-0.390485
-0.373774
-0.198218
-0.346385
0.213944
0.210015
0.205458
-0.310973
-0.311009
-0.304935
-0.017762
-0.027291
-0.016298
-0.319644
0.313288
0.347372
0.336833
-0.370296
-0.363211
-0.358487
-0.016473
-0.403635
-0.384712
-0.373972
-0.026770
-0.021163
-0.360064
-0.036698
0.063254
0.032913
0.080309
0.100753
0.094490
0.096713
-0.405705
-0.419395
-0.408948
0.088370
-0.419721
-0.064911
-0.079609
-0.075408
-0.072480
0.135270
0.131574
0.140862
0.133698
0.293387
0.305241
0.309977
0.097862
-0.544276
-0.551400
-0.524606
-0.570872
-0.047423
-0.036500
-0.034660
0.034581
0.024204
0.029936
0.084522
-0.086128
-0.092069
-0.099008
-0.539766
-0.515479
-0.527290
-0.104881
-0.196810
-0.186225
-0.195395
-0.307660
-0.320236
-0.312237
0.022245
0.037138
0.010028
-0.319527
-0.429828
-0.418198
-0.273870
-0.270136
-0.266931
-0.045114
-0.041237
-0.055239
-0.050196
0.045233
0.156955
0.193784
0.163212
-0.483200
-0.504328
-0.501392
0.024270
0.035744
0.070665
0.064525
0.061988
0.031956
0.074693
-0.371361
-0.381832
0.114041
0.108138
0.108538
0.101394
-0.377007
0.275386
0.296203
0.290679
-0.318597
-0.310833
0.168973
-0.111798
-0.131428
-0.125671
0.159517
0.153870
0.160084
-0.346612
-0.349235
-0.338668
-0.354757
-0.104527
-0.121167
-0.106369
0.001320
0.016677
0.005410
0.153325
-0.119763
0.363520
0.132126
0.093077
0.095158
0.059920
0.160463
0.181052
0.192675
0.210147
0.179775
0.167936
0.184282
0.160160
0.167772
-0.227002
-0.234629
0.167883
0.167664
-0.130251
-0.136993
-0.143743
0.187732
0.172694
0.191372
0.163365
0.148946
0.138071
0.127335
-0.034874
-0.028603
-0.019359
0.211636
0.232604
0.211115
0.230674
0.014882
-0.308233
-0.332966
-0.319488
-0.321621
0.043935
0.057238
0.026638
0.040416
0.076360
0.084967
-0.278306
-0.210660
-0.061405
-0.056148
-0.043571
-0.037613
-0.027431
-0.028893
-0.034731
-0.013190
-0.005760
-0.351650
-0.354314
-0.363871
-0.365240
-0.066119
-0.078200
-0.097305
0.059773
0.022234
0.037101
0.035405
-0.109398
-0.123469
-0.103148
-0.008125
-0.028173
-0.035848
-0.236247
-0.239857
-0.248634
-0.046181
-0.081899
-0.076426
-0.032505
0.029252
0.051196
0.021212
0.040112
-0.086605
-0.047768
-0.254071
-0.235244
-0.228000
-0.257135
-0.442922
-0.424984
-0.436332
-0.377996
-0.394205
-0.379554
-0.041764
-0.036359
-0.176460
0.148632
0.148040
-0.381212
-0.377927
-0.366915
-0.186880
-0.441263
-0.410094
-0.399018
-0.380046
-0.355831
-0.244008
-0.247817
-0.250567
-0.238035
-0.248728
-0.234419
0.214374
0.213983
0.203538
0.225892
-0.406240
-0.397446
-0.393374
-0.223812
-0.261195
-0.205447
-0.169567
-0.150184
-0.123141
-0.078088
-0.196431
-0.231917
-0.269376
0.206633
0.167507
-0.290261
-0.270126
-0.263526
-0.106828
-0.132542
-0.136434
-0.261848
-0.273199
-0.271363
-0.140524
-0.123628
-0.126800
-0.254708
-0.290829
-0.061319
-0.066826
-0.089957
-0.094479
-0.081318
-0.105733
0.105753
0.103648
0.090928
-0.598633
-0.607731
-0.579821
-0.506662
-0.476304
-0.494261
-0.485058
-0.058741
-0.075341
-0.125016
-0.132677
-0.228427
-0.237272
-0.231416
-0.242980
-0.217515
-0.223194
-0.213752
-0.324519
-0.333531
-0.323764
-0.322847
-0.320340
-0.327969
-0.322881
-0.278350
0.011953
-0.011812
-0.012965
0.061636
0.044388
0.050873
0.053924
0.257236
0.228195
0.241192
0.279366
0.283715
-0.280309
-0.297771
-0.315180
0.141832
0.145552
0.101633
-0.295505
-0.288237
-0.297466
-0.110880
-0.088037
-0.279969
-0.099454
-0.121408
-0.123442
0.041606
0.052412
0.045101
0.131892
0.135392
0.138890
-0.092691
-0.095910
-0.113372
0.142321
-0.416100
-0.386125
-0.446554
-0.414856
-0.447333
0.028622
0.040526
0.107306
0.115791
0.110061
0.114806
0.097345
-0.575579
-0.066796
-0.046951
-0.067682
-0.048651
-0.366245
-0.395189
-0.334927
0.159344
0.169250
0.181141
-0.083824
0.085211
0.077077
0.121720
0.121277
-0.035376
-0.018012
-0.018977
-0.388084
-0.378944
-0.376206
-0.123449
-0.137092
-0.562258
0.120448
0.129483
0.125320
0.017592
0.011407
-0.167398
-0.156846
-0.144527
0.015874
0.135510
-0.401261
-0.412195
-0.418241
-0.324823
-0.306455
-0.306382
0.074988
0.115116
0.092272
0.107829
0.041630
0.141547
0.137021
-0.261240
-0.205616
-0.224842
-0.037618
-0.030158
-0.406759
-0.396447
-0.384630
-0.039866
-0.009821
-0.016863
-0.021093
-0.404705
-0.425352
-0.420155
-0.194972
-0.237285
-0.168066
-0.115583
-0.121268
-0.137497
-0.385150
-0.331397
0.125246
-0.381793
-0.422239
0.121843
0.121517
0.131477
-0.359975
0.114604
0.100027
-0.232040
-0.224710
0.225931
0.242032
0.237193
-0.242844
0.097793
0.104044
0.174870
-0.295295
-0.297077
-0.287205
-0.231711
-0.222595
-0.110961
-0.306266
0.040288
0.051190
-0.305638
-0.150320
-0.165054
-0.150021
-0.163618
0.304446
0.277376
0.283043
0.154529
0.117451
0.097999
-0.197954
-0.182471
-0.170200
-0.077669
-0.065200
0.092029
0.035141
0.048064
0.064684
-0.007990
-0.390536
-0.385547
-0.014979
-0.010506
-0.352152
0.190752
0.225357
0.185658
0.383756
0.233091
0.048011
0.059228
0.065226
-0.393997
0.074039
-0.018835
-0.016002
-0.008204
-0.184767
-0.248906
-0.163330
-0.152880
0.165931
-0.324597
-0.299369
-0.380147
-0.390203
-0.386892
-0.277897
-0.268424
-0.270820
-0.319847
0.233982
0.225698
0.238438
-0.260697
-0.031511
0.319634
0.177903
0.176499
0.091950
0.130002
0.086413
0.134894
0.119673
0.144913
-0.011628
-0.289344
-0.095236
-0.323415
-0.337046
-0.394418
-0.421807
-0.012275
-0.002242
-0.145987
-0.176317
0.107128
-0.026848
-0.547163
-0.043539
-0.372596
-0.366221
-0.342275
-0.049404
0.231299
0.222873
0.216391
0.213617
-0.007064
-0.021623
-0.113896
-0.109997
-0.096991
0.205178
0.207087
0.198595
0.197598
0.239819
0.250413
-0.351939
-0.354934
0.300563
-0.545223
-0.481160
-0.514376
0.250165
0.242578
0.234279
-0.128261
-0.142103
-0.112780
0.256241
0.312476
0.201128
0.149051
0.176362
0.118584
-0.158327
0.069856
0.064523
0.053664
0.231569
0.256846
0.251222
-0.400370
-0.432871
-0.449667
0.276953
-0.255215
-0.233973
-0.286228
-0.324590
-0.315630
-0.420467
0.046291
0.032321
0.082665
0.351623
0.361167
0.386633
0.324573
0.293031
0.349448
0.338422
-0.087847
-0.087894
-0.546844
-0.505244
-0.501274
-0.104895
0.067098
-0.026523
-0.528652
-0.520884
-0.549854
-0.434545
-0.433575
-0.577859
0.053142
-0.016461
-0.284578
-0.037602
-0.277153
-0.248179
-0.247432
0.386593
0.402728
-0.013584
-0.018730
0.014822
0.108721
0.075676
0.122841
0.059723
0.014975
0.099132
-0.050284
-0.061268
-0.273699
-0.329854
-0.351957
-0.280909
-0.411619
-0.425850
-0.428759
-0.599921
-0.592686
-0.034907
-0.051900
-0.027631
-0.051074
-0.055177
-0.053233
-0.037662
-0.045171
-0.564370
-0.016104
-0.022436
-0.144887
-0.161686
-0.164541
0.386443
0.356287
-0.446369
0.268924
0.258207
0.257041
0.270675
-0.529451
-0.522388
-0.504644
0.285374
-0.018412
0.331986
0.014773
-0.014841
-0.040674
-0.050232
-0.177807
0.008716
-0.025525
-0.073946
-0.059913
-0.057966
0.178678
0.131716
-0.087398
-0.218930
-0.220044
-0.037187
-0.174199
0.115927
0.137644
0.110770
0.151417
-0.399435
-0.398366
-0.252594
-0.151496
-0.022961
-0.049556
0.040432
0.030043
0.018935
-0.029087
-0.090162
-0.492363
-0.460739
-0.478064
-0.473477
-0.158477
-0.508310
-0.501257
-0.530864
-0.484756
-0.487054
-0.205638
-0.192622
-0.251059
-0.226035
-0.203606
-0.128624
-0.110387
-0.101024
-0.077936
-0.536494
-0.583194
-0.520492
0.072112
0.063451
0.065550
-0.226403
-0.238964
-0.011035
-0.020770
-0.464750
-0.483609
-0.464254
-0.353258
-0.346468
-0.337759
-0.200734
-0.219209
-0.447406
0.076731
0.036293
0.019521
-0.342567
-0.334743
-0.317575
-0.347789
-0.355925
-0.510183
0.162903
0.136202
-0.380070
-0.385929
-0.404062
-0.407739
0.021856
0.007281
-0.345689
0.268644
-0.021785
0.000927
0.010405
0.013809
-0.005018
-0.172783
-0.002426
-0.308495
-0.237091
-0.226045
-0.243392
-0.246763
-0.372792
-0.385087
-0.395368
0.004416
-0.000054
-0.414592
0.123461
0.189205
0.187840
-0.589508
-0.556428
-0.564034
-0.130015
-0.145311
-0.147136
-0.401169
0.350716
0.369052
0.340819
0.325165
0.319205
-0.459936
-0.445933
-0.350818
-0.359746
-0.362740
0.040945
0.170928
0.123738
0.226573
-0.430098
-0.440963
-0.315855
-0.326010
-0.295971
-0.406961
-0.485124
-0.315744
0.049952
0.053248
0.053787
-0.278974
-0.271250
-0.288803
0.233217
0.235931
0.243939
-0.300643
0.308525
0.295790
-0.506731
-0.137653
0.055908
-0.526021
-0.570681
-0.126983
-0.147816
0.174807
0.170937
0.166714
-0.074250
-0.070016
0.182122
-0.072783
0.189412
-0.435749
-0.468904
0.236719
0.245560
0.196478
0.055757
-0.061098
0.272033
0.235637
0.314463
0.220221
-0.066617
-0.076527
-0.061851
-0.071612
0.077261
-0.087363
-0.105978
0.083046
-0.372277
-0.319377
-0.351117
-0.218520
-0.214036
0.043619
0.061479
-0.198260
-0.205942
-0.211333
0.083334
0.075974
0.081712
-0.262160
-0.254651
-0.249017
-0.368231
0.253110
0.261865
0.265164
-0.425202
-0.438802
-0.453524
-0.051649
-0.061786
-0.065222
-0.455227
-0.188749
-0.075710
-0.173902
-0.086667
-0.492110
-0.484594
0.329164
0.075828
0.219933
0.194939
-0.244200
-0.255133
-0.015996
-0.029148
-0.049193
-0.518034
-0.019343
-0.337728
-0.469987
-0.450163
-0.330067
-0.330479
-0.337123
0.206385
0.203678
0.207610
0.217253
0.058322
0.073791
0.054300
0.082369
-0.408541
-0.209687
-0.217888
-0.422633
-0.243382
0.040650
0.034335
0.000053
0.273233
0.230004
0.189711
0.014354
0.005465
-0.069917
-0.421021
-0.411110
-0.405190
-0.469621
-0.144973
-0.054422
-0.134879
-0.061344
-0.139084
0.042321
0.031123
-0.026495
-0.052735
-0.045006
-0.039266
0.220570
0.063861
0.044161
0.035942
0.001708
0.079391
-0.093747
-0.077126
0.300737
-0.287472
-0.308429
-0.294977
-0.296589
-0.337794
0.279126
0.230071
0.241375
0.218541
0.212123
0.208381
-0.445803
-0.002425
0.008827
0.024681
0.018592
0.024674
0.027954
0.033174
0.350230
0.373638
0.255819
-0.341202
-0.337428
-0.079661
-0.092791
0.182226
0.236028
0.211072
0.214107
-0.333036
-0.325920
-0.157667
-0.164968
-0.092819
-0.386383
-0.375394
-0.008459
-0.393393
0.117063
0.119066
0.114588
-0.010662
-0.001628
0.223077
0.208439
-0.269850
-0.281107
-0.256724
-0.267114
-0.262168
-0.273181
0.081277
0.073801
-0.490210
0.074423
0.108241
0.123720
0.302315
0.293604
0.087986
0.004931
0.009081
-0.013795
-0.063653
-0.155870
-0.129225
-0.143675
-0.157501
-0.323669
-0.328494
0.246676
0.105438
0.082083
0.085795
0.025564
-0.085558
-0.102616
-0.110146
0.187472
0.188980
0.143177
-0.358114
-0.360961
-0.327179
-0.048925
-0.105566
-0.091250
-0.084628
-0.002869
-0.119240
-0.109732
-0.087816
-0.125042
0.002077
-0.064045
0.244644
0.259539
0.259454
0.215630
0.246119
0.273875
-0.361984
-0.103475
-0.177866
-0.202829
-0.193781
-0.178228
-0.202799
-0.205171
0.033445
0.204955
0.049858
-0.041805
-0.033738
0.221519
0.223432
0.142325
0.147760
0.142020
-0.298596
-0.329322
-0.023223
0.038728
-0.371151
0.228245
0.226228
0.205976
0.201292
-0.368743
-0.497150
-0.410197
0.198601
0.195078
0.107540
0.090356
0.095505
0.101688
0.192690
0.301325
-0.032189
0.181840
0.131933
0.151051
-0.060385
-0.190295
-0.142836
0.296710
0.025384
-0.178876
0.190360
0.196170
-0.091299
-0.114316
-0.159651
-0.177655
-0.162146
-0.239464
0.166462
0.158806
-0.088163
-0.123726
-0.116019
-0.242680
-0.213287
-0.559181
0.158172
0.156459
0.152899
0.153739
0.158785
-0.322370
0.163295
-0.341119
-0.078754
-0.253098
-0.361478
-0.190558
-0.159487
-0.157925
-0.302739
0.023968
-0.357692
-0.485895
-0.013910
-0.028920
-0.050781
-0.349220
-0.321231
-0.255321
0.190231
0.011498
0.006720
-0.249046
-0.133300
0.160644
0.189766
-0.282496
-0.295424
-0.295967
0.102135
-0.274466
0.213342
0.205281
-0.004965
-0.193895
-0.204415
-0.203908
-0.231653
-0.224195
-0.088812
-0.019092
0.310660
0.328351
0.121224
-0.107068
0.113556
-0.068334
-0.070849
0.152847
-0.060654
-0.142979
0.279916
-0.062234
-0.345747
-0.348328
0.190197
0.076866
0.081359
0.327708
0.083331
0.047733
-0.001861
-0.458076
-0.450597
-0.066858
-0.081579
-0.329354
-0.344061
-0.335256
0.347521
-0.349542
-0.193771
-0.241915
0.208207
-0.135244
-0.121386
-0.121813
-0.253534
-0.009580
-0.021615
0.115252
-0.198375
-0.212230
0.155437
0.163226
0.168435
0.172608
0.162372
0.085581
-0.504136
-0.200994
-0.246695
-0.220936
-0.097489
-0.064667
-0.068901
0.083912
0.092852
-0.129023
-0.138558
0.063352
0.102033
0.153814
-0.002593
-0.000565
0.006267
0.008021
-0.212887
-0.292134
-0.270442
0.186030
0.187383
0.193347
-0.221541
-0.219573
-0.008565
-0.307082
-0.311683
0.004793
0.014104
0.201407
-0.003143
-0.362785
-0.395733
-0.353994
-0.254653
0.007054
-0.262313
-0.041084
-0.048703
-0.449529
-0.462072
0.018039
-0.020319
0.047023
-0.221966
0.048977
-0.007547
0.040781
-0.332020
-0.330044
0.075583
-0.255208
-0.373882
-0.428100
-0.447184
-0.362859
-0.227757
-0.228111
-0.212141
0.145711
0.151803
0.149451
-0.275104
-0.260721
-0.030303
-0.037662
-0.292058
-0.287872
-0.303741
-0.084344
-0.075709
-0.253259
-0.279879
0.198853
0.197608
-0.029921
-0.314167
-0.313281
-0.365328
-0.351574
-0.352243
-0.001189
0.006987
0.148579
0.103191
-0.218207
-0.208978
-0.228957
0.005962
0.020214
0.026688
0.044193
-0.304358
0.018666
0.019574
-0.145274
-0.211944
0.035149
0.026688
-0.242784
-0.227263
-0.056430
0.089956
0.090414
0.179813
-0.352682
0.181042
-0.009391
0.253684
0.252801
-0.342096
-0.341342
-0.055056
-0.046351
-0.097534
-0.102589
0.138226
0.200097
0.039986
-0.167252
0.191008
-0.392789
0.183862
0.143827
0.148973
-0.396560
0.207589
0.107587
0.047562
0.126200
0.120762
0.021416
0.116034
-0.475906
-0.450563
-0.435393
-0.426752
0.261017
0.128739
0.141951
0.129291
0.000116
-0.463578
0.283664
-0.362317
-0.313504
-0.302388
-0.031028
0.009046
-0.017935
0.145855
0.063545
-0.185289
-0.170892
-0.486049
-0.033271
0.163749
0.200808
-0.542212
-0.536182
-0.174975
0.051506
0.126438
0.057985
0.148213
0.204716
0.101839
0.051552
-0.332581
0.095676
-0.365810
-0.097777
0.126035
0.169684
0.157724
0.115559
0.241614
0.183583
-0.315230
-0.273266
-0.266543
0.274911
0.265046
0.003571
0.205811
-0.214502
-0.228037
-0.230419
0.069551
0.077097
0.067893
0.068211
-0.183167
-0.054181
0.221182
0.120961
-0.302269
-0.192680
-0.479312
-0.157909
0.181253
0.242477
0.230727
-0.270406
-0.288450
-0.442893
0.221899
0.211121
-0.224538
-0.107419
-0.009986
-0.023820
-0.353581
-0.017980
-0.031472
-0.176125
0.230693
0.276058
0.111360
0.086184
0.063368
-0.438680
-0.122771
-0.028858
-0.018283
-0.332989
0.318011
-0.409830
0.057111
0.060497
-0.445487
0.195157
0.137262
0.102427
-0.134237
0.109911
0.096592
-0.207793
0.193041
-0.194933
0.016021
0.011304
0.020887
-0.257181
0.077254
-0.177046
0.029884
-0.070628
-0.067468
-0.193710
0.290236
0.170025
-0.305633
-0.311895
-0.114210
0.134632
-0.532813
-0.569868
-0.566993
-0.230295
-0.319935
0.160939
-0.269030
0.123566
0.178275
0.176977
-0.035971
-0.255085
-0.279536
-0.300257
0.251922
0.236168
0.109614
0.107100
-0.162495
-0.201357
-0.352365
-0.358783
0.117922
-0.351971
-0.139787
-0.150661
-0.298937
-0.382328
0.123626
0.094681
0.144206
0.140878
-0.187266
0.229634
0.185126
-0.142976
-0.267877
-0.279000
0.148238
0.120441
-0.258498
0.142640
0.072799
-0.340080
0.203352
-0.180936
-0.410800
0.174004
0.164777
-0.116270
-0.109104
-0.266797
-0.338270
0.178216
0.178411
0.183438
-0.066092
0.092515
0.008713
-0.300717
-0.407783
0.103487
0.089264
-0.304174
-0.311938
0.157195
0.190416
0.036663
0.058535
0.014725
0.224978
0.314862
-0.109548
-0.102273
-0.186679
-0.358659
0.155310
-0.262056
-0.075028
-0.078002
-0.021734
0.096140
-0.285432
0.170455
-0.297905
-0.166030
0.193156
-0.281475
-0.220892
-0.240225
-0.291535
-0.111790
-0.088299
-0.280032
0.178222
-0.308971
-0.046916
-0.034273
-0.086594
0.007576
-0.133236
-0.123363
0.093748
-0.285701
-0.294138
-0.084092
-0.044873
-0.039850
-0.202204
-0.213530
-0.170190
-0.239271
-0.176865
-0.055748
-0.216383
-0.156837
-0.098680
-0.011497
-0.250925
0.202861
0.158380
-0.086473
-0.333864
-0.328286
-0.075209
0.052418
0.056736
-0.173808
0.021149
-0.289360
-0.329869
0.011411
0.113276
0.128455
0.155468
0.195623
-0.289271
0.114479
-0.262891
-0.232881
-0.270375
0.124420
-0.147592
0.119465
-0.300532
0.084364
0.063503
0.057577
-0.384071
0.032157
-0.185965
-0.217394
-0.034335
-0.137635
-0.297190
0.024642
0.136014
-0.146701
-0.233942
-0.024726
SCALARS UY float 1
LOOKUP_TABLE default
-0.000008
-0.000008
-1.699996
-1.699998
-0.442187
-1.177071
-0.000002
-0.000003
-0.000003
-0.000003
-0.000002
-0.000002
-0.000002
-0.000002
-0.000002
-0.000002
-0.000002
-0.000002
-0.000003
-0.000003
-0.000003
-0.000002
-0.150465
-0.259532
-0.356109
-0.447637
-0.536575
-0.624136
-0.709438
-0.791074
-0.871424
-0.948920
-1.028850
-1.113603
-1.208355
-1.318918
-1.441246
-1.569648
-1.699998
-1.699997
-1.699997
-1.699997
-1.699997
-1.699997
-1.699998
-1.699998
-1.699998
-1.699998
-1.699997
-1.699997
-1.699997
-1.699997
-1.699997
-1.699997
-1.590569
-1.482724
-1.377998
-1.276030
-1.179703
-1.091107
-1.010449
-0.937789
-0.869729
-0.803520
-0.737918
-0.674001
-0.600208
-0.499232
-0.368923
-0.198082
-0.453829
-0.462804
-0.472335
-0.479510
-0.487429
-0.495566
-0.504803
-0.512211
-0.518570
-0.528135
-0.536903
-0.550832
-0.568863
-0.575399
-0.590673
-0.602553
-0.611959
-0.624979
-0.637779
-0.650881
-0.662884
-0.673039
-0.681481
-0.695415
-0.708888
-0.710380
-0.725626
-0.739878
-0.746363
-0.761190
-0.772568
-0.785414
-0.800843
-0.801708
-0.813776
-0.818779
-0.824441
-0.837308
-0.838961
-0.852310
-0.857914
-0.869649
-0.876293
-0.891881
-0.904449
-0.916348
-0.927042
-0.941909
-0.953624
-0.965592
-0.981578
-0.990381
-0.999181
-1.015778
-1.027710
-1.041209
-1.054139
-1.066830
-1.077804
-1.090504
-1.102550
-1.114666
-1.124721
-1.135862
-1.148978
-1.161501
-0.083151
-0.043685
-0.095340
-1.032536
-1.056870
-1.063862
-0.050254
-0.583840
-0.582847
-0.554378
-0.196834
-0.215833
-0.225238
-0.246500
-0.519418
-0.493123
-0.510048
-0.985497
-0.984216
-0.998394
-0.639657
-0.680595
-0.649859
-0.951425
-0.961924
-0.989558
-0.993006
-0.548927
-0.528197
-1.166920
-1.183664
-1.160397
-1.181456
-1.144560
-1.166296
-1.160285
-0.033433
-0.081567
-0.040925
-1.635006
-1.580493
-1.575183
-0.713823
-0.711324
-1.528758
-0.661785
-0.904461
-0.923468
-0.912489
-0.985143
-0.973887
-0.986954
-0.427401
-0.408751
-0.415161
-0.965568
-0.620433
-0.638382
-0.675006
-0.803774
-0.784146
-0.799543
-0.073787
-0.613797
-0.573198
-0.587633
-0.078169
-0.056941
-0.555132
-0.098584
-0.685104
-0.700272
-0.652653
-0.606900
-0.603219
-0.589366
-0.792591
-0.773618
-0.762382
-0.585529
-0.804406
-0.242987
-0.251004
-0.230592
-0.270963
-0.698311
-0.683313
-0.686125
-0.669132
-0.981329
-0.953971
-0.992149
-0.623246
-0.856669
-0.811046
-0.807487
-0.872038
-0.150262
-0.110333
-0.123832
-0.494994
-0.478926
-0.476409
-0.622813
-0.235402
-0.256085
-0.243027