# vtk DataFile Version 2.0
Test
ASCII
DATASET POLYDATA
POINTS 1818 float
0.000000 0.000000 0.000000
1.000000 0.000000 0.000000
1.000000 1.000000 0.000000
0.000000 1.000000 0.000000
0.300000 0.330000 0.000000
0.700000 0.680000 0.000000
0.058824 0.000000 0.000000
0.117647 0.000000 0.000000
0.176471 0.000000 0.000000
0.235294 0.000000 0.000000
0.294118 0.000000 0.000000
0.352941 0.000000 0.000000
0.411765 0.000000 0.000000
0.470588 0.000000 0.000000
0.529412 0.000000 0.000000
0.588235 0.000000 0.000000
0.647059 0.000000 0.000000
0.705882 0.000000 0.000000
0.764706 0.000000 0.000000
0.823529 0.000000 0.000000
0.882353 0.000000 0.000000
0.941176 0.000000 0.000000
1.000000 0.058824 0.000000
1.000000 0.117647 0.000000
1.000000 0.176471 0.000000
1.000000 0.235294 0.000000
1.000000 0.294118 0.000000
1.000000 0.352941 0.000000
1.000000 0.411765 0.000000
1.000000 0.470588 0.000000
1.000000 0.529412 0.000000
1.000000 0.588235 0.000000
1.000000 0.647059 0.000000
1.000000 0.705882 0.000000
1.000000 0.764706 0.000000
1.000000 0.823529 0.000000
1.000000 0.882353 0.000000
1.000000 0.941176 0.000000
0.941176 1.000000 0.000000
0.882353 1.000000 0.000000
0.823529 1.000000 0.000000
0.764706 1.000000 0.000000
0.705882 1.000000 0.000000
0.647059 1.000000 0.000000
0.588235 1.000000 0.000000
0.529412 1.000000 0.000000
0.470588 1.000000 0.000000
0.411765 1.000000 0.000000
0.352941 1.000000 0.000000
0.294118 1.000000 0.000000
0.235294 1.000000 0.000000
0.176471 1.000000 0.000000
0.117647 1.000000 0.000000
0.058824 1.000000 0.000000
0.000000 0.941176 0.000000
0.000000 0.882353 0.000000
0.000000 0.823529 0.000000
0.000000 0.764706 0.000000
0.000000 0.705882 0.000000
0.000000 0.647059 0.000000
0.000000 0.588235 0.000000
0.000000 0.529412 0.000000
0.000000 0.470588 0.000000
0.000000 0.411765 0.000000
0.000000 0.352941 0.000000
0.000000 0.294118 0.000000
0.000000 0.235294 0.000000
0.000000 0.176471 0.000000
0.000000 0.117647 0.000000
0.000000 0.058824 0.000000
0.305970 0.335224 0.000000
0.311940 0.340448 0.000000
0.317910 0.345672 0.000000
0.323881 0.350896 0.000000
0.329851 0.356119 0.000000
0.335821 0.361343 0.000000
0.341791 0.366567 0.000000
0.347761 0.371791 0.000000
0.353731 0.377015 0.000000
0.359701 0.382239 0.000000
0.365672 0.387463 0.000000
0.371642 0.392687 0.000000
0.377612 0.397910 0.000000
0.383582 0.403134 0.000000
0.389552 0.408358 0.000000
0.395522 0.413582 0.000000
0.401493 0.418806 0.000000
0.407463 0.424030 0.000000
0.413433 0.429254 0.000000
0.419403 0.434478 0.000000
0.425373 0.439701 0.000000
0.431343 0.444925 0.000000
0.437313 0.450149 0.000000
0.443284 0.455373 0.000000
0.449254 0.460597 0.000000
0.455224 0.465821 0.000000
0.461194 0.471045 0.000000
0.467164 0.476269 0.000000
0.473134 0.481493 0.000000
0.479104 0.486716 0.000000
0.485075 0.491940 0.000000
0.491045 0.497164 0.000000
0.497015 0.502388 0.000000
0.502985 0.507612 0.000000
0.508955 0.512836 0.000000
0.514925 0.518060 0.000000
0.520896 0.523284 0.000000
0.526866 0.528507 0.000000
0.532836 0.533731 0.000000
0.538806 0.538955 0.000000
0.544776 0.544179 0.000000
0.550746 0.549403 0.000000
0.556716 0.554627 0.000000
0.562687 0.559851 0.000000
0.568657 0.565075 0.000000
0.574627 0.570299 0.000000
0.580597 0.575522 0.000000
0.586567 0.580746 0.000000
0.592537 0.585970 0.000000
0.598507 0.591194 0.000000
0.604478 0.596418 0.000000
0.610448 0.601642 0.000000
0.616418 0.606866 0.000000
0.622388 0.612090 0.000000
0.628358 0.617313 0.000000
0.634328 0.622537 0.000000
0.640299 0.627761 0.000000
0.646269 0.632985 0.000000
0.652239 0.638209 0.000000
0.658209 0.643433 0.000000
0.664179 0.648657 0.000000
0.670149 0.653881 0.000000
0.676119 0.659104 0.000000
0.682090 0.664328 0.000000
0.688060 0.669552 0.000000
0.694030 0.674776 0.000000
0.516135 0.080917 0.000000
0.549338 0.042552 0.000000
0.567302 0.088709 0.000000
0.555658 0.563778 0.000000
0.559301 0.571359 0.000000
0.552318 0.570919 0.000000
0.603235 0.047100 0.000000
0.446553 0.448087 0.000000
0.438652 0.443189 0.000000
0.445116 0.440368 0.000000
0.437254 0.190586 0.000000
0.465954 0.201747 0.000000
0.439184 0.213838 0.000000
0.453137 0.228102 0.000000
0.522423 0.410182 0.000000
0.522098 0.390982 0.000000
0.537289 0.398500 0.000000
0.453388 0.527105 0.000000
0.462022 0.524948 0.000000
0.461218 0.533993 0.000000
0.324300 0.374550 0.000000
0.319287 0.386214 0.000000
0.314834 0.375138 0.000000
0.668809 0.628853 0.000000
0.677366 0.632907 0.000000
0.668274 0.639611 0.000000
0.469934 0.529282 0.000000
0.439703 0.436699 0.000000
0.446608 0.432083 0.000000
0.542854 0.633425 0.000000
0.535117 0.647070 0.000000
0.524302 0.633157 0.000000
0.519372 0.648877 0.000000
0.586338 0.611293 0.000000
0.591638 0.624149 0.000000
0.575478 0.621479 0.000000
0.437962 0.035513 0.000000
0.421505 0.085456 0.000000
0.394924 0.044162 0.000000
0.445207 0.955749 0.000000
0.429168 0.919510 0.000000
0.464409 0.914226 0.000000
0.317150 0.400904 0.000000
0.328626 0.395860 0.000000
0.439616 0.884412 0.000000
0.330406 0.381773 0.000000
0.676842 0.602700 0.000000
0.674982 0.614185 0.000000
0.665930 0.611798 0.000000
0.414707 0.535036 0.000000
0.420123 0.526072 0.000000
0.425338 0.533771 0.000000
0.398407 0.375558 0.000000
0.393804 0.363255 0.000000
0.407284 0.365452 0.000000
0.407758 0.523337 0.000000
0.899969 0.377867 0.000000
0.945915 0.378245 0.000000
0.914158 0.409130 0.000000
0.358219 0.436142 0.000000
0.361390 0.425428 0.000000
0.369309 0.432300 0.000000
0.465999 0.075074 0.000000
0.269944 0.367761 0.000000
0.266521 0.352125 0.000000
0.283474 0.357667 0.000000
0.385889 0.083020 0.000000
0.359482 0.060981 0.000000
0.279658 0.346766 0.000000
0.363604 0.104040 0.000000
0.511115 0.503731 0.000000
0.503243 0.499914 0.000000
0.509146 0.494910 0.000000
0.513188 0.475753 0.000000
0.504957 0.474656 0.000000
0.511959 0.464784 0.000000
0.311863 0.447505 0.000000
0.293019 0.442078 0.000000
0.305555 0.431691 0.000000
0.499204 0.464990 0.000000
0.293855 0.459576 0.000000
0.396676 0.236328 0.000000
0.371014 0.247362 0.000000
0.373003 0.229199 0.000000
0.384478 0.261522 0.000000
0.555704 0.523331 0.000000
0.551313 0.515879 0.000000
0.562752 0.515269 0.000000
0.554954 0.506854 0.000000
0.804236 0.611103 0.000000
0.819351 0.593503 0.000000
0.832061 0.615776 0.000000
0.509908 0.485173 0.000000
0.129738 0.481190 0.000000
0.110722 0.443736 0.000000
0.154857 0.452634 0.000000
0.089738 0.485299 0.000000
0.396427 0.153886 0.000000
0.393058 0.115469 0.000000
0.420333 0.126587 0.000000
0.442628 0.413512 0.000000
0.434815 0.404283 0.000000
0.446816 0.400259 0.000000
0.499770 0.482873 0.000000
0.353883 0.235057 0.000000
0.351360 0.254011 0.000000
0.332147 0.240870 0.000000
0.112307 0.405527 0.000000
0.140355 0.392788 0.000000
0.142004 0.423465 0.000000
0.334868 0.263052 0.000000
0.551239 0.594093 0.000000
0.560217 0.601969 0.000000
0.546711 0.604614 0.000000
0.398510 0.570197 0.000000
0.387124 0.557316 0.000000
0.399978 0.555748 0.000000
0.705281 0.743146 0.000000
0.722930 0.758853 0.000000
0.697202 0.758074 0.000000
0.380190 0.572638 0.000000
0.278345 0.431947 0.000000
0.292575 0.428097 0.000000
0.470820 0.540616 0.000000
0.478213 0.533042 0.000000
0.480161 0.543190 0.000000
0.415268 0.299334 0.000000
0.412465 0.313515 0.000000
0.400419 0.297680 0.000000
0.396495 0.317117 0.000000
0.718655 0.732879 0.000000
0.709319 0.677587 0.000000
0.715709 0.670111 0.000000
0.719283 0.682820 0.000000
0.212992 0.453899 0.000000
0.184619 0.470046 0.000000
0.186665 0.440862 0.000000
0.452307 0.386568 0.000000
0.460371 0.397715 0.000000
0.478664 0.456068 0.000000
0.476179 0.462123 0.000000
0.471250 0.456445 0.000000
0.464654 0.388544 0.000000
0.483415 0.461045 0.000000
0.357146 0.449596 0.000000
0.344653 0.443966 0.000000
0.554562 0.459423 0.000000
0.543333 0.457517 0.000000
0.553850 0.449505 0.000000
0.543131 0.445036 0.000000
0.347312 0.459318 0.000000
0.781088 0.538918 0.000000
0.810909 0.534152 0.000000
0.799399 0.553968 0.000000
0.402869 0.534333 0.000000
0.408011 0.546121 0.000000
0.703844 0.670118 0.000000
0.552234 0.794299 0.000000
0.528593 0.795589 0.000000
0.539188 0.770312 0.000000
0.596088 0.518714 0.000000
0.593029 0.508081 0.000000
0.604120 0.510731 0.000000
0.384880 0.468703 0.000000
0.382270 0.455963 0.000000
0.394062 0.458803 0.000000
0.374729 0.466839 0.000000
0.340939 0.294790 0.000000
0.324530 0.290188 0.000000
0.338473 0.279923 0.000000
0.465367 0.336545 0.000000
0.477337 0.352846 0.000000
0.459495 0.350024 0.000000
0.584947 0.516440 0.000000
0.326802 0.302636 0.000000
0.945343 0.420397 0.000000
0.779746 0.749037 0.000000
0.771533 0.774140 0.000000
0.758291 0.749848 0.000000
0.743435 0.765852 0.000000
0.751942 0.297541 0.000000
0.784264 0.292048 0.000000
0.772562 0.330207 0.000000
0.812744 0.305799 0.000000
0.655547 0.494535 0.000000
0.649767 0.472522 0.000000
0.671966 0.480244 0.000000
0.612062 0.502007 0.000000
0.616789 0.515227 0.000000
0.403059 0.898561 0.000000
0.391512 0.946883 0.000000
0.625780 0.504699 0.000000
0.635988 0.491275 0.000000
0.596252 0.650380 0.000000
0.583401 0.655132 0.000000
0.583737 0.644777 0.000000
0.713099 0.416502 0.000000
0.708474 0.388943 0.000000
0.733625 0.389568 0.000000
0.684835 0.406222 0.000000
0.656936 0.416423 0.000000
0.633624 0.425116 0.000000
0.634362 0.400237 0.000000
0.646884 0.740682 0.000000
0.654954 0.726002 0.000000
0.663305 0.741855 0.000000
0.732481 0.441235 0.000000
0.751303 0.460839 0.000000
0.721338 0.462235 0.000000
0.759622 0.437863 0.000000
0.462761 0.363156 0.000000
0.373644 0.622389 0.000000
0.346217 0.613642 0.000000
0.370315 0.594521 0.000000
0.351411 0.640635 0.000000
0.695337 0.690220 0.000000
0.705202 0.700133 0.000000
0.692303 0.700990 0.000000
0.521365 0.516400 0.000000
0.522992 0.510597 0.000000
0.527633 0.513574 0.000000
0.291567 0.329512 0.000000
0.294927 0.318154 0.000000
0.365771 0.366553 0.000000
0.366135 0.358691 0.000000
0.374180 0.368122 0.000000
0.408232 0.327056 0.000000
0.423479 0.328280 0.000000
0.411272 0.339740 0.000000
0.664110 0.670607 0.000000
0.667245 0.662649 0.000000
[...]
POINT_DATA 1818
SCALARS UX float 1
LOOKUP_TABLE default
-0.000009
0.000008
0.540025
-0.209363
-0.044859
0.384422
0.000001
-0.000001
-0.000000
-0.000000
-0.000000
-0.000000
-0.000000
-0.000000
-0.000000
0.000000
0.000000
0.000000
0.000001
0.000001
0.000001
-0.000000
0.177766
0.249689
0.309561
0.393390
0.420726
0.516644
0.594871
0.667421
0.730260
0.779663
0.806573
0.816602
0.785206
0.709937
0.619166
0.565953
0.452198
0.389229
0.348878
0.323306
0.304326
0.284635
0.263095
0.240122
0.213855
0.182516
0.146370
0.104574
0.056872
0.002037
-0.058879
-0.133389
-0.214978
-0.229182
-0.254867
-0.285045
-0.323763
-0.367187
-0.409618
-0.447831
-0.473854
-0.472530
-0.462406
-0.436590
-0.303082
-0.176978
-0.037716
-0.006064
-0.033317
-0.027268
-0.048617
-0.054316
-0.053933
-0.062476
-0.056840
-0.061105
-0.045867
-0.032743
-0.031418
-0.038603
-0.051679
-0.018813
-0.006506
0.001853
0.003734
0.015788
0.007396
0.017264
0.012233
0.015129
0.021476
0.017204
0.018988
0.077378
0.050995
0.060172
0.100366
0.108730
0.111860
0.116566
0.108563
0.123710
0.155893
0.161362
0.180466
0.197671
0.194615
0.225857
0.213233
0.228653
0.270758
0.275939
0.288641
0.296742
0.290208
0.291806
0.286921
0.284340
0.293618
0.294482
0.333764
0.327283
0.318129
0.335706
0.348783
0.343317
0.358842
0.354895
0.358754
0.354411
0.350862
0.356077
0.368547
0.364227
0.004012
0.003310
0.008142
0.037954
0.044344
0.031494
0.004478
0.201533
0.176432
0.201455
0.025928
0.029834
0.031059
0.037709
0.207247
0.184505
0.200319
-0.083636
-0.084362
-0.070117
-0.253116
-0.274212
-0.265974
0.571744
0.581549
0.553964
-0.074621
0.192870
0.201990
0.103965
0.116275
0.094642
0.109464
0.097552
0.117530
0.103867
0.001770
0.005241
0.002051
0.199361
0.186326
0.205968
-0.277950
-0.271014
0.185454
-0.257287
0.573760
0.579975
0.573396
-0.088630
-0.098964
-0.085108
0.120728
0.107893
0.116044
-0.109119
0.471803
0.512071
0.530364
-0.237465
-0.242683
-0.236300
0.004716
-0.286673
-0.268642
-0.264265
0.004567
0.002257
-0.238986
0.005927
0.323837
0.284184
0.319523
0.303672
0.297694
0.283848
-0.249924
-0.264387
-0.265981
0.278029
-0.249518
0.035295
0.034719
0.029248
0.042002
0.404774
0.389955
0.394749
0.376585
0.672329
0.671480
0.694776
0.316683
-0.376190
-0.403758
-0.366983
-0.405950
0.013144
0.005887
0.008020
0.181043
0.166835
0.167593
0.304766
0.029311
0.034152
0.028542
-0.400282
-0.378000
-0.381516
0.034444
0.055805
0.069783
0.067673
-0.053239
-0.076833
-0.069925
0.314034
0.331940
0.308956
-0.064193
-0.279416
-0.274823
-0.056574
-0.065820
-0.049608
0.069583
0.078284
0.064908
0.076478
0.334833
0.516035
0.579178
0.528206
-0.315737
-0.332451
-0.344639
0.154451
0.169521
0.253370
0.258224
0.249274
0.160575
0.263141
-0.226875
-0.236718
0.294039
0.285470
0.277985
0.265597
-0.221374
0.581086
0.604504
0.616219
-0.096350
-0.077323
0.544066
0.233574
0.218421
0.215492
0.415973
0.395481
0.405944
-0.197070
-0.212835
-0.205816
-0.202873
0.046310
0.039076
0.039830
0.111073
0.129155
0.120995
0.406492
0.043590
0.569676
0.476155
0.405607
0.411734
0.358844
0.232798
0.248613
0.293839
0.290541
0.412846
0.376006
0.405307
0.395518
0.420533
0.165585
0.167643
0.408152
0.393476
0.153585
0.151829
0.139363
0.357018
0.317430
0.340714
0.318028
0.306256
0.297709
0.267065
0.274895
0.273085
0.285325
0.407687
0.451861
0.424863
0.429395
0.133995
-0.020289
-0.053069
-0.049379
-0.024877
0.320287
0.336129
0.306721
0.319816
0.345956
0.354596
-0.110858
-0.003325
0.087357
0.088927
0.099836
0.086470
0.091822
0.096593
0.237482
0.254413
0.258786
-0.182702
-0.163590
-0.186745
-0.169417
0.191964
0.193728
0.174518
0.339191
0.085872
0.095664
0.107000
0.054931
0.050023
0.061053
0.148278
0.135555
0.128603
0.026819
0.033009
0.011107
0.111308
0.073646
0.082614
0.081093
0.328119
0.349534
0.324597
0.339740
0.025160
0.092363
-0.064803
-0.065407
-0.056385
-0.079672
-0.311656
-0.299291
-0.302570
-0.275635
-0.285134
-0.271744
0.118277
0.127468
0.127704
0.387969
0.378058
-0.165592
-0.178015
-0.153500
0.008033
-0.070799
-0.046230
-0.015324
-0.007359
-0.253736
-0.014031
-0.009506
-0.023917
0.002849
-0.187509
-0.176026
0.596095
0.605763
0.593855
0.607142
-0.232525
-0.233136
-0.243309
-0.018509
-0.079932
-0.004374
-0.002274
-0.005067
-0.001648
-0.002848
0.003735
-0.023996
-0.040262
0.600547
0.543178
-0.120315
-0.079805
-0.069663
0.137659
0.128365
0.117305
-0.056105
-0.208013
-0.202553
0.184300
0.194059
0.199255
-0.180440
-0.197878
0.066265
0.058090
0.065565
0.056392
0.063766
0.053296
0.246408
0.250024
0.223407
-0.352489
-0.396738
-0.355467
-0.191380
-0.147648
-0.157147
-0.176946
0.216307
0.202754
0.081235
0.081635
-0.008519
-0.011170
-0.020652
-0.026190
-0.002269
0.003386
0.008578
-0.193710
-0.196370
-0.203463
-0.180787
-0.168291
-0.172175
-0.157092
-0.053607
0.175696
0.161399
0.156420
0.148324
0.127626
0.128295
0.147082
0.380804
0.342001
0.337123
0.385277
0.438441
-0.175722
-0.194566
-0.220009
0.449826
0.460634
0.424721
-0.130715
-0.119630
-0.115347
0.159585
0.176807
-0.129047
0.163345
0.141973
0.152280
0.171692
0.188559
0.182283
0.358712
0.357647
0.375690
0.044858
0.038815
0.170587
0.370674
-0.071358
-0.030904
-0.116674
-0.086623
-0.135896
0.110693
0.130521
0.292708
0.315219
0.310061
0.302886
0.242679
-0.424481
0.272447
0.284903
0.273560
0.281963
-0.249680
-0.283045
-0.212473
0.509090
0.507161
0.516505
0.041290
0.219884
0.379084
0.331677
0.320184
0.249919
0.263232
0.272391
-0.251860
-0.257595
-0.246317
0.170150
0.158053
-0.305937
0.290896
0.311248
0.309407
0.153012
0.139653
0.176879
0.176008
0.198474
0.140511
0.331374
-0.213494
-0.213563
-0.231456
-0.213443
-0.202103
-0.196139
0.357430
0.383757
0.380251
0.373027
0.286313
0.525588
0.516428
-0.136554
-0.102004
-0.117074
0.097556
0.100441
-0.186565
-0.181158
-0.155180
0.088840
0.025372
0.034962
0.023381
-0.172998
-0.188838
-0.196885
0.006236
-0.034509
0.024541
0.030545
0.035062
0.031162
0.034101
0.085866
0.377574
-0.270287
-0.306821
0.395359
0.311229
0.332065
0.051849
0.286891
0.269814
0.023017
0.040955
0.460768
0.484198
0.490339
0.008232
0.273124
0.296907
0.376295
-0.083785
-0.099286
-0.064893
-0.001236
-0.005939
0.005956
-0.113599
0.181019
0.197198
-0.128505
0.145470
0.124399
0.137762
0.135802
0.561857
0.530328
0.506306
0.519581
0.482690
0.445019
0.165799
0.171101
0.191738
0.049915
0.051063
0.346628
0.312463
0.252286
0.265474
0.016076
-0.262904
-0.269328
0.193908
0.201388
-0.236370
0.590660
0.639860
0.577266
0.619861
0.650530
0.087869
0.090562
0.107964
-0.282344
0.309066
0.104290
0.101996
0.113699
-0.056790
-0.117689
0.116875
0.125013
0.531713
-0.192729
-0.153288
-0.213377
-0.216495
-0.227537
-0.040730
-0.027014
-0.021620
-0.226881
0.622121
0.614970
0.617279
-0.008000
0.021350
0.423482
0.425474
0.436538
0.400147
0.425049
0.395068
0.417996
0.431823
0.436354
0.138603
-0.208112
0.140481
-0.230890
-0.243881
-0.073914
-0.110625
0.095543
0.100325
0.033529
0.016596
0.318577
0.285523
-0.310649
0.274278
-0.059540
-0.036616
-0.014349
0.263258
0.534075
0.535491
0.511111
0.525553
0.108248
0.091570
0.194100
0.189831
0.208736
0.466815
0.484008
0.461795
0.471491
0.287597
0.298046
0.017674
0.000872
0.381729
-0.185586
-0.106660
-0.131074
0.643786
0.644511
0.633351
0.234279
0.217044
0.239526
0.657612
0.508797
0.209873
0.099396
0.186382
0.078775
0.209888
0.183377
0.182379
0.161806
0.645238
0.666335
0.668355
0.008749
-0.018015
-0.051675
0.686186
-0.165158
-0.144143
-0.181430
-0.020388
-0.071082
-0.214830
0.021031
0.003318
0.045316
0.768861
0.754091
0.790240
0.739514
0.721632
0.779813
0.772559
0.253674
0.258208
-0.393321
-0.368378
-0.336054
0.249200
0.145270
0.080045
-0.386943
-0.381987
-0.408071
-0.251429
-0.267254
-0.443058
0.120946
0.083136
0.126475
0.014651
0.092761
0.118685
0.130205
0.668799
0.731204
0.304147
0.302137
0.320168
0.387227
0.360949
0.417721
0.341627
0.317921
0.371828
0.082621
0.072477
-0.070093
-0.178085
-0.189781
-0.116526
-0.202980
-0.213037
-0.229357
-0.440309
-0.446454
0.004309
0.007831
0.002328
0.005479
0.004612
0.245620
0.258426
0.259724
-0.430744
0.001671
0.001204
0.087354
0.083177
0.071441
0.753918
0.725201
-0.244179
0.620260
0.617403
0.591392
0.640674
-0.337851
-0.348193
-0.314450
0.648044
0.006398
0.721455
0.315613
0.025902
0.045219
0.038190
0.049616
0.005359
0.018826
0.251686
0.259211
0.267973
0.556910
0.481115
0.053702
0.152096
0.161147
0.284659
0.075954
0.148551
0.192414
0.164253
0.191945
-0.271536
-0.257886
0.137916
0.221714
-0.001122
0.002226
0.067474
0.062386
0.035016
-0.002065
0.002251
-0.229074
-0.184349
-0.190240
-0.214499
0.150598
-0.296205
-0.260244
-0.313389
-0.258132
-0.283104
0.071701
0.082957
0.105572
0.134270
0.063951
0.025116
0.024677
0.237182
0.254819
-0.246730
-0.310216
-0.253157
0.219681
0.205055
0.201743
0.056480
0.043460
0.116140
0.106816
-0.263640
-0.298286
-0.278866
-0.141172
-0.145057
-0.120026
0.016663
-0.004472
-0.180630
0.222433
0.082491
0.058503
-0.111229
-0.028505
0.005845
-0.034590
-0.131106
-0.361006
0.260435
0.211520
-0.099276
-0.090310
-0.119430
-0.108156
0.073584
0.066614
-0.159528
0.331265
0.143752
0.157174
0.057134
0.086492
0.065694
0.060680
0.078776
0.003845
0.061760
0.084220
0.061441
0.066838
-0.122041
-0.122477
-0.151536
0.125914
0.127008
-0.152181
0.474193
0.444552
0.456682
-0.399350
-0.368378
-0.353900
0.179734
0.169851
0.158303
-0.288655
0.635790
0.688167
0.657003
0.611072
0.631483
-0.334656
-0.325139
-0.062002
-0.090428
-0.062966
0.333219
0.529382
0.453034
0.634350
-0.148177
-0.145999
0.072150
0.052340
0.082149
-0.285391
-0.348503
0.049113
0.167381
0.178737
0.168421
-0.107392
-0.116364
-0.100885
0.599779
0.583079
0.604867
-0.140290
0.640721
0.642185
-0.366806
0.164019
0.346124
-0.179899
-0.233842
0.239022
0.228516
0.447586
0.445774
0.429798
0.071969
0.070048
0.459258
0.061595
0.478896
-0.314726
-0.336696
0.629998
0.631145
0.484597
0.110282
0.078224
0.670248
0.644541
0.668511
0.623558
0.232699
0.217639
0.229465
0.215183
0.200685
0.261382
0.250996
0.222165
0.028048
0.084281
0.035701
0.057306
0.053477
0.142409
0.164768
0.096624
0.091629
0.075368
0.249632
0.233615
0.238960
0.012201
0.012687
0.029744
-0.139683
0.629933
0.634912
0.651815
-0.295468
-0.295521
-0.311008
0.020452
0.018173
0.026429
-0.301998
0.183130
0.025706
0.202547
0.262918
-0.348672
-0.331536
0.694450
0.240916
0.355367
0.324949
0.044534
0.028949
0.298612
0.292631
0.009066
-0.271510
0.293063
-0.136887
-0.329657
-0.321206
-0.145423
-0.132215
-0.151629
0.498097
0.509096
0.527507
0.490797
0.061634
0.086018
0.070732
0.115053
-0.290069
0.095934
0.076870
-0.299933
-0.017090
0.305337
0.303299
0.271181
0.669770
0.576411
0.529702
0.097865
0.283020
0.268391
-0.286464
-0.277126
-0.283457
-0.315557
-0.008746
-0.003055
0.036650
0.270880
0.036825
0.151203
0.132594
0.006862
0.057199
0.052476
0.067671
0.615005
0.042455
0.032466
0.017617
0.284882
0.075259
0.021653
0.019963
0.585777
0.047268
0.032714
0.029305
0.058888
0.007922
0.563351
0.557192
0.569599
0.563336
0.557375
0.564922
-0.286163
0.130197
0.010431
0.011942
0.022136
0.148663
0.145930
0.157527
0.693177
0.720436
0.516537
-0.076572
-0.087329
0.223244
0.203399
0.474530
0.419544
0.386770
0.370190
-0.163941
-0.148255
0.029251
0.023115
0.185491
-0.197209
-0.194584
0.295945
-0.189860
0.263545
0.273608
0.271141
0.286042
0.287158
0.615492
0.602697
0.059857
0.037144
0.066280
0.044066
0.077064
0.075041
0.171861
0.173189
-0.359732
0.143026
0.240276
0.270801
0.709432
0.713293
0.210596
0.312273
0.317719
0.303169
0.245634
0.197319
0.014916
0.019064
0.009803
-0.094526
-0.115223
0.591495
0.182364
0.136596
0.167367
0.289345
0.203983
0.213150
0.213144
0.576087
0.567306
0.518495
-0.256623
-0.258372
-0.238084
0.284712
0.017384
0.010852
0.014695
0.303810
0.012511
0.002353
0.007596
0.176420
0.298103
0.013580
0.539032
0.547210
0.571609
0.585684
0.560189
0.693604
-0.229221
0.254477
0.149319
0.126489
0.128044
0.157982
0.135704
0.051126
0.044412
0.594946
0.344567
0.288971
0.293393
0.580063
0.593481
0.281466
0.356124
0.356301
-0.186762
-0.225114
0.236843
0.040459
-0.205796
0.585492
0.570110
0.554766
0.561426
-0.216080
-0.324141
-0.291299
0.429823
0.440738
0.227543
0.203619
0.200679
0.196773
0.403720
0.721945
0.231441
0.551871
0.508744
0.528252
0.044411
0.052452
0.134067
0.721819
0.117180
0.064590
0.550132
0.500222
0.234596
0.217449
0.162877
0.140639
0.153578
0.108612
0.443281
0.430649
0.068233
0.034971
0.048679
0.092108
0.045343
-0.410484
0.378827
0.363565
0.380372
0.346184
0.341066
-0.130568
0.541351
-0.217076
0.149327
-0.006313
-0.217078
0.013236
0.029203
0.034783
-0.177488
0.188425
-0.255288
-0.351231
0.141705
0.244372
0.225490
-0.224499
-0.236235
-0.184730
0.562483
0.116753
0.104405
-0.182118
0.109294
0.527428
0.575597
0.014396
0.007831
-0.013899
0.335936
-0.182266
0.543970
0.539042
0.088431
0.038642
0.026334
0.039782
0.059830
0.076441
0.067781
0.256796
0.539827
0.589006
0.467816
0.056707
0.485674
0.080656
0.079902
0.492167
0.084153
0.015894
0.663911
0.214603
-0.234345
-0.238255
0.498010
0.277074
0.267629
0.667610
0.259608
0.265097
0.219679
-0.225267
-0.198763
0.214279
0.200929
-0.221359
-0.222608
-0.226108
0.586987
-0.230192
-0.036912
-0.054313
0.457113
0.136955
0.050459
0.046582
-0.049616
0.133296
0.127177
0.404044
0.018761
0.025264
0.458883
0.473876
0.461838
0.478306
0.453458
0.404739
-0.215738
-0.094651
-0.143478
-0.155238
0.060261
0.276494
0.273535
0.230735
0.244189
0.075283
0.033926
0.283845
0.453981
0.517529
0.142293
0.138503
0.149463
0.145113
0.034705
-0.163171
-0.160949
0.507300
0.521679
0.519133
0.017392
0.031568
0.128398
-0.157247
-0.172114
0.039198
0.040524
0.518697
0.043707
-0.242386
-0.279852
-0.222766
0.039083
0.139360
-0.142201
0.091514
0.087832
-0.273155
-0.295811
0.117231
0.180440
0.246532
0.037192
0.178498
0.003095
0.164348
-0.100589
-0.087538
0.185183
-0.018763
-0.264724
-0.282048
-0.309249
-0.195442
0.019340
-0.102319
-0.080503
0.423545
0.430233
0.412682
0.012717
0.042179
0.110991
0.101168
-0.026622
-0.010145
-0.035892
0.228980
0.242946
-0.102284
-0.005773
0.524687
0.534626
0.068241
-0.127333
-0.112230
-0.249031
-0.243648
-0.248112
0.147762
0.155931
0.473665
0.433256
0.124121
0.143698
0.043403
0.295868
0.302893
0.135472
0.194314
-0.096393
0.007007
0.005729
0.093896
-0.063456
0.190038
0.181879
-0.042509
-0.043660
0.084579
0.257587
0.266823
0.526675
-0.254606
0.538212
0.169223
0.468551
0.488547
-0.168506
-0.181816
0.228316
0.244711
0.186913
0.187248
0.504058
0.548018
0.156562
0.089903
0.568461
-0.281373
0.202748
0.142126
0.128920
-0.285066
0.583578
0.089546
0.216427
0.346157
0.343879
0.308229
0.083625
-0.119218
-0.100374
-0.049684
-0.305427
0.452303
0.288509
0.317349
0.300668
0.026494
-0.247418
0.475524
-0.202124
-0.145189
-0.144192
0.057707
0.099996
0.072154
0.391458
0.193331
0.082731
0.111047
-0.082566
0.001676
0.465880
0.508496
-0.155718
-0.137592
0.097881
-0.004826
0.140956
-0.001995
0.424812
0.503318
0.406149
0.337018
-0.229018
0.409374
-0.256170
0.060420
0.359625
0.489042
0.487364
0.327806
0.512514
0.570832
-0.159328
-0.005171
0.014469
0.700951
0.688744
0.019217
0.593630
0.105773
0.089985
0.094743
0.241669
0.254298
0.228297
0.220167
0.092610
0.028809
0.549099
0.129247
-0.228818
0.152265
-0.234142
0.025721
0.535066
0.633946
0.630377
0.111498
0.102741
-0.225550
0.474530
0.441345
0.108560
0.170208
0.049948
0.042052
-0.232733
0.053019
0.293191
0.086420
0.510181
0.609300
0.421421
0.379836
0.360281
-0.197538
0.020742
0.048131
0.061756
-0.183867
0.746222
-0.013383
0.200685
0.214526
-0.255222
0.186100
0.326278
0.260033
0.199358
0.269494
0.445934
0.107468
0.385478
0.118464
0.164680
0.168911
0.006421
-0.080341
0.050111
0.133973
0.331768
0.007081
0.010499
0.110142
0.685266
0.293640
-0.211145
-0.217137
-0.000449
0.447694
-0.214029
-0.250399
-0.268638
0.003885
-0.141184
0.542546
0.090454
0.480709
0.355343
0.366045
0.241890
0.145245
0.120439
-0.209235
0.403305
0.397766
0.351213
0.362350
0.020780
0.002386
-0.116074
-0.113441
0.355721
-0.250104
0.032713
0.030364
-0.049568
-0.041992
0.226475
0.110327
0.334106
0.240848
0.017364
0.291659
0.230581
0.002387
-0.094673
-0.091511
0.274750
0.236390
-0.038536
0.409654
0.375347
-0.193870
0.605422
-0.022225
-0.290037
0.462226
0.336406
0.172611
0.184783
-0.005379
-0.215844
0.494321
0.480768
0.492008
0.078892
0.238114
0.317733
-0.222729
-0.291888
0.396993
0.248409
-0.219578
-0.187782
0.542529
0.531245
0.237545
0.232794
0.156355
0.273399
0.447132
0.114179
0.126221
-0.020206
-0.101501
0.176655
-0.022411
0.075325
0.072633
0.248622
0.434472
-0.025477
0.498896
-0.175857
0.022092
0.543615
-0.173580
-0.130039
-0.180422
-0.046947
0.141983
0.158086
-0.027948
0.505006
-0.164345
0.228174
0.113949
0.066105
0.247361
0.088314
0.098859
0.251655
-0.141477
-0.152739
0.069619
0.212619
0.106448
-0.105939
-0.011345
0.008893
-0.088992
-0.036408
0.097228
-0.025733
0.007896
0.058307
0.258650
-0.035112
0.577392
0.533734
0.163328
-0.198905
-0.187448
0.080794
0.208446
0.190182
-0.021247
0.210323
-0.221015
-0.237734
0.214228
0.339434
0.337156
0.445699
0.511651
-0.053737
0.455904
-0.034794
-0.046540
-0.040478
0.252779
0.037923
0.368152
-0.067340
0.290610
0.227727
0.220459
-0.277935
0.275240
-0.026969
-0.047227
0.228265
0.031163
-0.075089
0.174136
0.350609
0.108153
-0.032359
0.119207
SCALARS UY float 1
LOOKUP_TABLE default
-0.000012
-0.000013
-2.084993
-2.084996
-0.232332
-1.548684
-0.000003
-0.000005
-0.000004
-0.000004
-0.000004
-0.000004
-0.000003
-0.000004
-0.000004
-0.000004
-0.000004
-0.000004
-0.000004
-0.000004
-0.000005
-0.000003
-0.318272
-0.516555
-0.555329
-0.655216
-0.694280
-0.782569
-0.866180
-0.937434
-1.001672
-1.057071
-1.114471
-1.176870
-1.267524
-1.418409
-1.618673
-1.850596
-2.084996
-2.084995
-2.084996
-2.084996
-2.084996
-2.084996
-2.084996
-2.084996
-2.084996
-2.084996
-2.084996
-2.084996
-2.084996
-2.084996
-2.084996
-2.084996
-1.895164
-1.708269
-1.531475
-1.359581
-1.201830
-1.065691
-0.950059
-0.855077
-0.780649
-0.741071
-0.704337
-0.630229
-0.504432
-0.378633
-0.064311
-0.050419
-0.282093
-0.312936
-0.356176
-0.353413
-0.377314
-0.400375
-0.448728
-0.438173
-0.431221
-0.454742
-0.441467
-0.544924
-0.557655
-0.520578
-0.544149
-0.545562
-0.510509
-0.523815
-0.552089
-0.628278
-0.646542
-0.667307
-0.690336
-0.700797
-0.777990
-0.738611
-0.773249
-0.794898
-0.705184
-0.842478
-0.821654
-0.735588
-0.825353
-0.855283
-0.964086
-0.913169
-0.826520
-0.828378
-0.847982
-1.003240
-1.007307
-1.017223
-0.930599
-0.933927
-0.935276
-0.989871
-1.029939
-1.077119
-1.097447
-1.138671
-1.203436
-1.163353
-1.148677
-1.243026
-1.250506
-1.212394
-1.319460
-1.305130
-1.194825
-1.296446
-1.403935
-1.443747
-1.430472
-1.445024
-1.449923
-1.481336
-0.000931
-0.000030
-0.012331
-1.478649
-1.513912
-1.519090
-0.002398
-0.292307
-0.319469
-0.256116
-0.038210
-0.039109
-0.049451
-0.059103
-0.277741
-0.257238
-0.282503
-1.343250
-1.357361
-1.365450
-0.771713
-0.824897
-0.776102
-0.884834
-0.911363
-0.943731
-1.376477
-0.258250
-0.231005
-1.582992
-1.590115
-1.562106
-1.575880
-1.598025
-1.620504
-1.603322
-0.000442
-0.000470
-0.000297
-2.022281
-1.965435
-1.967406
-0.869595
-0.868303
-1.914666
-0.809229
-0.819501
-0.846557
-0.826284
-1.280371
-1.277705
-1.297824
-0.158077
-0.144667
-0.152567
-1.251057
-0.662916
-0.729810
-0.738536
-1.023468
-1.007973
-1.035956
-0.001898
-0.685549
-0.607047
-0.666475
-0.002138
-0.000989
-0.590554
-0.007012
-0.421304
-0.453547
-0.368380
-0.326974
-0.314680
-0.314048
-0.969313
-0.930868
-0.926899
-0.296463
-0.968621
-0.049771
-0.050034
-0.040892
-0.061790
-0.451443
-0.432493
-0.451437
-0.427005
-1.015275
-0.987543
-1.035870
-0.335736
-0.841310
-0.763311
-0.796467
-0.826503
-0.018689
-0.002584
-0.011030
-0.208483
-0.197478
-0.198984
-0.328524
-0.041775
-0.049770
-0.040616
-0.694553
-0.676102
-0.734398
-0.051174
-1.553289
-1.569606
-1.558805
-1.309478
-1.272644
-1.288224
-1.795201
-1.797268
-1.819631
-1.290395
-0.886218
-0.899624
-1.389565
-1.394471
-1.407784
-0.101431
-0.111848
-0.094041
-0.108248
-1.751477
-1.313588
-1.190082
-1.324456
-0.844480
-0.855005
-0.790495
-0.191807
-0.205249
-0.267662
-0.277704
-0.266068
-0.201667
-0.277265
-1.046234
-1.014102
-0.376104
-0.356115
-0.363724
-0.342415
-1.046613
-0.836420
-0.858227
-0.888764
-1.259196
-1.285464
-1.180970
-1.826776
-1.815883
-1.781512
-0.523419
-0.503118
-0.527590
-1.126781
-1.100494