# vtk DataFile Version 2.0
Test
ASCII
DATASET POLYDATA
POINTS 1818 float
0.000000 0.000000 0.000000
1.000000 0.000000 0.000000
1.000000 1.000000 0.000000
0.000000 1.000000 0.000000
0.300000 0.330000 0.000000
0.700000 0.680000 0.000000
0.058824 0.000000 0.000000
0.117647 0.000000 0.000000
0.176471 0.000000 0.000000
0.235294 0.000000 0.000000
0.294118 0.000000 0.000000
0.352941 0.000000 0.000000
0.411765 0.000000 0.000000
0.470588 0.000000 0.000000
0.529412 0.000000 0.000000
0.588235 0.000000 0.000000
0.647059 0.000000 0.000000
0.705882 0.000000 0.000000
0.764706 0.000000 0.000000
0.823529 0.000000 0.000000
0.882353 0.000000 0.000000
0.941176 0.000000 0.000000
1.000000 0.058824 0.000000
1.000000 0.117647 0.000000
1.000000 0.176471 0.000000
1.000000 0.235294 0.000000
1.000000 0.294118 0.000000
1.000000 0.352941 0.000000
1.000000 0.411765 0.000000
1.000000 0.470588 0.000000
1.000000 0.529412 0.000000
1.000000 0.588235 0.000000
1.000000 0.647059 0.000000
1.000000 0.705882 0.000000
1.000000 0.764706 0.000000
1.000000 0.823529 0.000000
1.000000 0.882353 0.000000
1.000000 0.941176 0.000000
0.941176 1.000000 0.000000
0.882353 1.000000 0.000000
0.823529 1.000000 0.000000
0.764706 1.000000 0.000000
0.705882 1.000000 0.000000
0.647059 1.000000 0.000000
0.588235 1.000000 0.000000
0.529412 1.000000 0.000000
0.470588 1.000000 0.000000
0.411765 1.000000 0.000000
0.352941 1.000000 0.000000
0.294118 1.000000 0.000000
0.235294 1.000000 0.000000
0.176471 1.000000 0.000000
0.117647 1.000000 0.000000
0.058824 1.000000 0.000000
0.000000 0.941176 0.000000
0.000000 0.882353 0.000000
0.000000 0.823529 0.000000
0.000000 0.764706 0.000000
0.000000 0.705882 0.000000
0.000000 0.647059 0.000000
0.000000 0.588235 0.000000
0.000000 0.529412 0.000000
0.000000 0.470588 0.000000
0.000000 0.411765 0.000000
0.000000 0.352941 0.000000
0.000000 0.294118 0.000000
0.000000 0.235294 0.000000
0.000000 0.176471 0.000000
0.000000 0.117647 0.000000
0.000000 0.058824 0.000000
0.305970 0.335224 0.000000
0.311940 0.340448 0.000000
0.317910 0.345672 0.000000
0.323881 0.350896 0.000000
0.329851 0.356119 0.000000
0.335821 0.361343 0.000000
0.341791 0.366567 0.000000
0.347761 0.371791 0.000000
0.353731 0.377015 0.000000
0.359701 0.382239 0.000000
0.365672 0.387463 0.000000
0.371642 0.392687 0.000000
0.377612 0.397910 0.000000
0.383582 0.403134 0.000000
0.389552 0.408358 0.000000
0.395522 0.413582 0.000000
0.401493 0.418806 0.000000
0.407463 0.424030 0.000000
0.413433 0.429254 0.000000
0.419403 0.434478 0.000000
0.425373 0.439701 0.000000
0.431343 0.444925 0.000000
0.437313 0.450149 0.000000
0.443284 0.455373 0.000000
0.449254 0.460597 0.000000
0.455224 0.465821 0.000000
0.461194 0.471045 0.000000
0.467164 0.476269 0.000000
0.473134 0.481493 0.000000
0.479104 0.486716 0.000000
0.485075 0.491940 0.000000
0.491045 0.497164 0.000000
0.497015 0.502388 0.000000
0.502985 0.507612 0.000000
0.508955 0.512836 0.000000
0.514925 0.518060 0.000000
0.520896 0.523284 0.000000
0.526866 0.528507 0.000000
0.532836 0.533731 0.000000
0.538806 0.538955 0.000000
0.544776 0.544179 0.000000
0.550746 0.549403 0.000000
0.556716 0.554627 0.000000
0.562687 0.559851 0.000000
0.568657 0.565075 0.000000
0.574627 0.570299 0.000000
0.580597 0.575522 0.000000
0.586567 0.580746 0.000000
0.592537 0.585970 0.000000
0.598507 0.591194 0.000000
0.604478 0.596418 0.000000
0.610448 0.601642 0.000000
0.616418 0.606866 0.000000
0.622388 0.612090 0.000000
0.628358 0.617313 0.000000
0.634328 0.622537 0.000000
0.640299 0.627761 0.000000
0.646269 0.632985 0.000000
0.652239 0.638209 0.000000
0.658209 0.643433 0.000000
0.664179 0.648657 0.000000
0.670149 0.653881 0.000000
0.676119 0.659104 0.000000
0.682090 0.664328 0.000000
0.688060 0.669552 0.000000
0.694030 0.674776 0.000000
0.516135 0.080917 0.000000
0.549338 0.042552 0.000000
0.567302 0.088709 0.000000
0.555658 0.563778 0.000000
0.559301 0.571359 0.000000
0.552318 0.570919 0.000000
0.603235 0.047100 0.000000
0.446553 0.448087 0.000000
0.438652 0.443189 0.000000
0.445116 0.440368 0.000000
0.437254 0.190586 0.000000
0.465954 0.201747 0.000000
0.439184 0.213838 0.000000
0.453137 0.228102 0.000000
0.522423 0.410182 0.000000
0.522098 0.390982 0.000000
0.537289 0.398500 0.000000
0.453388 0.527105 0.000000
0.462022 0.524948 0.000000
0.461218 0.533993 0.000000
0.324300 0.374550 0.000000
0.319287 0.386214 0.000000
0.314834 0.375138 0.000000
0.668809 0.628853 0.000000
0.677366 0.632907 0.000000
0.668274 0.639611 0.000000
0.469934 0.529282 0.000000
0.439703 0.436699 0.000000
0.446608 0.432083 0.000000
0.542854 0.633425 0.000000
0.535117 0.647070 0.000000
0.524302 0.633157 0.000000
0.519372 0.648877 0.000000
0.586338 0.611293 0.000000
0.591638 0.624149 0.000000
0.575478 0.621479 0.000000
0.437962 0.035513 0.000000
0.421505 0.085456 0.000000
0.394924 0.044162 0.000000
0.445207 0.955749 0.000000
0.429168 0.919510 0.000000
0.464409 0.914226 0.000000
0.317150 0.400904 0.000000
0.328626 0.395860 0.000000
0.439616 0.884412 0.000000
0.330406 0.381773 0.000000
0.676842 0.602700 0.000000
0.674982 0.614185 0.000000
0.665930 0.611798 0.000000
0.414707 0.535036 0.000000
0.420123 0.526072 0.000000
0.425338 0.533771 0.000000
0.398407 0.375558 0.000000
0.393804 0.363255 0.000000
0.407284 0.365452 0.000000
0.407758 0.523337 0.000000
0.899969 0.377867 0.000000
0.945915 0.378245 0.000000
0.914158 0.409130 0.000000
0.358219 0.436142 0.000000
0.361390 0.425428 0.000000
0.369309 0.432300 0.000000
0.465999 0.075074 0.000000
0.269944 0.367761 0.000000
0.266521 0.352125 0.000000
0.283474 0.357667 0.000000
0.385889 0.083020 0.000000
0.359482 0.060981 0.000000
0.279658 0.346766 0.000000
0.363604 0.104040 0.000000
0.511115 0.503731 0.000000
0.503243 0.499914 0.000000
0.509146 0.494910 0.000000
0.513188 0.475753 0.000000
0.504957 0.474656 0.000000
0.511959 0.464784 0.000000
0.311863 0.447505 0.000000
0.293019 0.442078 0.000000
0.305555 0.431691 0.000000
0.499204 0.464990 0.000000
0.293855 0.459576 0.000000
0.396676 0.236328 0.000000
0.371014 0.247362 0.000000
0.373003 0.229199 0.000000
0.384478 0.261522 0.000000
0.555704 0.523331 0.000000
0.551313 0.515879 0.000000
0.562752 0.515269 0.000000
0.554954 0.506854 0.000000
0.804236 0.611103 0.000000
0.819351 0.593503 0.000000
0.832061 0.615776 0.000000
0.509908 0.485173 0.000000
0.129738 0.481190 0.000000
0.110722 0.443736 0.000000
0.154857 0.452634 0.000000
0.089738 0.485299 0.000000
0.396427 0.153886 0.000000
0.393058 0.115469 0.000000
0.420333 0.126587 0.000000
0.442628 0.413512 0.000000
0.434815 0.404283 0.000000
0.446816 0.400259 0.000000
0.499770 0.482873 0.000000
0.353883 0.235057 0.000000
0.351360 0.254011 0.000000
0.332147 0.240870 0.000000
0.112307 0.405527 0.000000
0.140355 0.392788 0.000000
0.142004 0.423465 0.000000
0.334868 0.263052 0.000000
0.551239 0.594093 0.000000
0.560217 0.601969 0.000000
0.546711 0.604614 0.000000
0.398510 0.570197 0.000000
0.387124 0.557316 0.000000
0.399978 0.555748 0.000000
0.705281 0.743146 0.000000
0.722930 0.758853 0.000000
0.697202 0.758074 0.000000
0.380190 0.572638 0.000000
0.278345 0.431947 0.000000
0.292575 0.428097 0.000000
0.470820 0.540616 0.000000
0.478213 0.533042 0.000000
0.480161 0.543190 0.000000
0.415268 0.299334 0.000000
0.412465 0.313515 0.000000
0.400419 0.297680 0.000000
0.396495 0.317117 0.000000
0.718655 0.732879 0.000000
0.709319 0.677587 0.000000
0.715709 0.670111 0.000000
0.719283 0.682820 0.000000
0.212992 0.453899 0.000000
0.184619 0.470046 0.000000
0.186665 0.440862 0.000000
0.452307 0.386568 0.000000
0.460371 0.397715 0.000000
0.478664 0.456068 0.000000
0.476179 0.462123 0.000000
0.471250 0.456445 0.000000
0.464654 0.388544 0.000000
0.483415 0.461045 0.000000
0.357146 0.449596 0.000000
0.344653 0.443966 0.000000
0.554562 0.459423 0.000000
0.543333 0.457517 0.000000
0.553850 0.449505 0.000000
0.543131 0.445036 0.000000
0.347312 0.459318 0.000000
0.781088 0.538918 0.000000
0.810909 0.534152 0.000000
0.799399 0.553968 0.000000
0.402869 0.534333 0.000000
0.408011 0.546121 0.000000
0.703844 0.670118 0.000000
0.552234 0.794299 0.000000
0.528593 0.795589 0.000000
0.539188 0.770312 0.000000
0.596088 0.518714 0.000000
0.593029 0.508081 0.000000
0.604120 0.510731 0.000000
0.384880 0.468703 0.000000
0.382270 0.455963 0.000000
0.394062 0.458803 0.000000
0.374729 0.466839 0.000000
0.340939 0.294790 0.000000
0.324530 0.290188 0.000000
0.338473 0.279923 0.000000
0.465367 0.336545 0.000000
0.477337 0.352846 0.000000
0.459495 0.350024 0.000000
0.584947 0.516440 0.000000
0.326802 0.302636 0.000000
0.945343 0.420397 0.000000
0.779746 0.749037 0.000000
0.771533 0.774140 0.000000
0.758291 0.749848 0.000000
0.743435 0.765852 0.000000
0.751942 0.297541 0.000000
0.784264 0.292048 0.000000
0.772562 0.330207 0.000000
0.812744 0.305799 0.000000
0.655547 0.494535 0.000000
0.649767 0.472522 0.000000
0.671966 0.480244 0.000000
0.612062 0.502007 0.000000
0.616789 0.515227 0.000000
0.403059 0.898561 0.000000
0.391512 0.946883 0.000000
0.625780 0.504699 0.000000
0.635988 0.491275 0.000000
0.596252 0.650380 0.000000
0.583401 0.655132 0.000000
0.583737 0.644777 0.000000
0.713099 0.416502 0.000000
0.708474 0.388943 0.000000
0.733625 0.389568 0.000000
0.684835 0.406222 0.000000
0.656936 0.416423 0.000000
0.633624 0.425116 0.000000
0.634362 0.400237 0.000000
0.646884 0.740682 0.000000
0.654954 0.726002 0.000000
0.663305 0.741855 0.000000
0.732481 0.441235 0.000000
0.751303 0.460839 0.000000
0.721338 0.462235 0.000000
0.759622 0.437863 0.000000
0.462761 0.363156 0.000000
0.373644 0.622389 0.000000
0.346217 0.613642 0.000000
0.370315 0.594521 0.000000
0.351411 0.640635 0.000000
0.695337 0.690220 0.000000
0.705202 0.700133 0.000000
0.692303 0.700990 0.000000
0.521365 0.516400 0.000000
0.522992 0.510597 0.000000
0.527633 0.513574 0.000000
0.291567 0.329512 0.000000
0.294927 0.318154 0.000000
0.365771 0.366553 0.000000
0.366135 0.358691 0.000000
0.374180 0.368122 0.000000
0.408232 0.327056 0.000000
0.423479 0.328280 0.000000
0.411272 0.339740 0.000000
0.664110 0.670607 0.000000
0.667245 0.662649 0.000000
[...]
POINT_DATA 1818
SCALARS UX float 1
LOOKUP_TABLE default
-0.000001
0.000001
0.058183
-0.291717
-0.083753
-0.000454
0.000000
-0.000000
-0.000000
-0.000000
-0.000000
-0.000000
-0.000000
-0.000000
-0.000000
0.000000
0.000000
0.000000
0.000000
0.000000
0.000000
-0.000000
0.042761
0.064556
0.080117
0.094040
0.105498
0.115352
0.123760
0.130104
0.134862
0.137663
0.137866
0.136750
0.132443
0.119788
0.095733
0.074024
0.018838
-0.008738
-0.027458
-0.043334
-0.058618
-0.074145
-0.090480
-0.107708
-0.126301
-0.146361
-0.167300
-0.188738
-0.210274
-0.231528
-0.252272
-0.272137
-0.287617
-0.282728
-0.277253
-0.271575
-0.265671
-0.259618
-0.253335
-0.246387
-0.238182
-0.228692
-0.217985
-0.204787
-0.187926
-0.164877
-0.122557
-0.075378
-0.081880
-0.081820
-0.081521
-0.080906
-0.079357
-0.078472
-0.076629
-0.076474
-0.075944
-0.075003
-0.074570
-0.074444
-0.074595
-0.075293
-0.075516
-0.075033
-0.076963
-0.076156
-0.076267
-0.074990
-0.074467
-0.073875
-0.072524
-0.071962
-0.070800
-0.068754
-0.067375
-0.064988
-0.063520
-0.061645
-0.061358
-0.059076
-0.059070
-0.054145
-0.053541
-0.051546
-0.050217
-0.047415
-0.046433
-0.042907
-0.041396
-0.039159
-0.037789
-0.036334
-0.035710
-0.034429
-0.033537
-0.031713
-0.030670
-0.029440
-0.027361
-0.026645
-0.025301
-0.023298
-0.022239
-0.020228
-0.019610
-0.019969
-0.018575
-0.017156
-0.014983
-0.013155
-0.010287
-0.007322
-0.003603
-0.002495
-0.001607
-0.000279
0.000358
-0.085448
-0.088385
-0.095615
0.000877
-0.026951
-0.030353
-0.021707
-0.011456
-0.008950
-0.012829
-0.011808
0.001493
0.000298
0.003804
-0.130935
-0.128525
-0.128767
-0.132446
-0.142952
-0.137612
0.037546
0.041343
0.024787
-0.126262
-0.023916
-0.016340
-0.101299
-0.102699
-0.106898
-0.107541
-0.086574
-0.085579
-0.091858
-0.001741
-0.004983
-0.002879
-0.132687
-0.137009
-0.124949
-0.149283
-0.143881
-0.132910
-0.134214
0.049244
0.046930
0.044383
-0.140466
-0.139154
-0.137826
-0.026439
-0.026942
-0.023735
-0.142154
0.096027
0.107219
0.103970
-0.145910
-0.142076
-0.141935
-0.003059
-0.153225
-0.147512
-0.143151
-0.005937
-0.004779
-0.136272
-0.008687
-0.016515
-0.023350
-0.008363
0.003027
0.000429
0.002834
-0.159941
-0.164104
-0.159190
-0.000803
-0.166220
-0.020499
-0.025762
-0.023161
-0.024871
0.013353
0.012711
0.017389
0.014923
0.090254
0.094697
0.098100
0.000255
-0.212045
-0.211564
-0.202593
-0.221668
-0.011904
-0.008472
-0.007981
-0.015186
-0.017215
-0.014217
-0.005258
-0.026778
-0.030067
-0.031136
-0.205032
-0.196478
-0.201439
-0.034708
-0.100981
-0.097731
-0.102244
-0.144956
-0.147990
-0.144407
-0.035704
-0.029697
-0.041704
-0.150293
-0.166416
-0.161909
-0.126195
-0.123891
-0.123630
-0.021202
-0.022121
-0.024030
-0.025490
-0.024445
0.021023
0.039639
0.026501
-0.187749
-0.197082
-0.193135
-0.013528
-0.011422
-0.007563
-0.010797
-0.011529
-0.011000
-0.006318
-0.148616
-0.150840
0.011889
0.009343
0.010932
0.008294
-0.152290
0.080939
0.089721
0.087495
-0.143466
-0.142204
0.025250
-0.093751
-0.101958
-0.098188
0.026548
0.024932
0.027903
-0.144935
-0.143885
-0.141252
-0.147052
-0.038377
-0.042763
-0.036961
-0.012334
-0.009824
-0.013252
0.023519
-0.044195
0.112758
0.020063
-0.003373
-0.000492
-0.019504
0.042645
0.049732
0.053635
0.060044
0.040069
0.036665
0.043617
0.029142
0.031409
-0.145614
-0.150856
0.032847
0.034415
-0.082692
-0.086728
-0.087488
0.049501
0.044910
0.051988
0.040384
0.033732
0.028223
0.026301
-0.059318
-0.055754
-0.053353
0.057894
0.065515
0.056659
0.065501
-0.012342
-0.153491
-0.161757
-0.153828
-0.160899
-0.021559
-0.017593
-0.030631
-0.023331
-0.010818
-0.007366
-0.103393
-0.075525
-0.039112
-0.035132
-0.033256
-0.023252
-0.020250
-0.022770
-0.045710
-0.035433
-0.033013
-0.148455
-0.152251
-0.153191
-0.156654
-0.052499
-0.059214
-0.066746
-0.017468
0.002010
0.006384
0.004404
-0.050296
-0.053416
-0.045723
-0.030076
-0.038394
-0.040661
-0.117856
-0.121146
-0.122061
-0.040664
-0.050703
-0.050554
-0.019151
-0.034930
-0.025869
-0.039676
-0.032313
-0.025925
-0.031561
-0.116573
-0.110676
-0.108830
-0.116627
-0.168837
-0.161349
-0.166000
-0.142786
-0.147888
-0.143555
-0.040354
-0.040412
-0.105681
0.022375
0.023062
-0.165461
-0.161266
-0.160250
-0.069106
-0.223819
-0.209825
-0.210900
-0.200552
-0.131585
-0.116539
-0.118784
-0.118676
-0.115402
-0.108235
-0.106917
0.049698
0.050812
0.043805
0.055358
-0.163073
-0.159126
-0.155090
-0.079693
-0.098857
-0.074267
-0.061299
-0.053298
-0.039683
-0.023000
-0.073793
-0.095854
-0.113872
0.051094
0.036189
-0.107944
-0.122904
-0.120682
-0.065560
-0.078109
-0.078105
-0.120799
-0.111156
-0.109636
-0.099762
-0.091753
-0.095156
-0.113024
-0.121271
-0.026994
-0.026821
-0.039469
-0.037620
-0.034550
-0.041549
0.015786
0.013392
0.010656
-0.248404
-0.243482
-0.235993
-0.232684
-0.225148
-0.234425
-0.222447
-0.052859
-0.061901
-0.071197
-0.073315
-0.109883
-0.113677
-0.110367
-0.115006
-0.105553
-0.108390
-0.104480
-0.137732
-0.140509
-0.136433
-0.137928
-0.137800
-0.140225
-0.139344
-0.128491
-0.025681
-0.033386
-0.033966
0.009742
0.005071
0.007892
0.006025
0.076640
0.066284
0.071027
0.084500
0.085868
-0.107083
-0.111960
-0.122619
0.014011
0.015628
-0.002525
-0.130689
-0.128393
-0.132232
-0.071411
-0.060302
-0.124561
-0.064406
-0.074104
-0.077940
-0.008622
-0.006757
-0.009529
0.015249
0.017356
0.017733
-0.033247
-0.032722
-0.076785
0.020199
-0.207006
-0.198458
-0.214304
-0.202172
-0.209522
0.000882
0.002601
0.007768
0.010093
0.007434
0.011032
0.010454
-0.220706
-0.076747
-0.068958
-0.078072
-0.068554
-0.144634
-0.157914
-0.139211
0.019741
0.024985
0.031683
-0.028962
0.007352
-0.014199
0.011895
0.012885
-0.054201
-0.047142
-0.050470
-0.150917
-0.146516
-0.146740
-0.083621
-0.088837
-0.237202
0.017014
0.019832
0.017163
-0.016840
-0.016078
-0.114485
-0.107876
-0.105654
-0.013859
0.020805
-0.164735
-0.169509
-0.168342
-0.135720
-0.129117
-0.130077
-0.012453
0.004347
-0.006440
0.001674
-0.021414
0.014499
0.012909
-0.115382
-0.097103
-0.102904
-0.028272
-0.025208
-0.174766
-0.169988
-0.170798
-0.025302
-0.002467
-0.005232
-0.005292
-0.178028
-0.184937
-0.180109
-0.068336
-0.084186
-0.058075
-0.037658
-0.041130
-0.046510
-0.215703
-0.193116
0.010429
-0.156751
-0.167702
0.006907
0.014227
0.017907
-0.202977
0.013509
0.006613
-0.114941
-0.113858
0.061944
0.068499
0.065905
-0.118516
0.004706
0.005413
0.040949
-0.133409
-0.132994
-0.131477
-0.096130
-0.092891
-0.043294
-0.135729
-0.011963
-0.009715
-0.134579
-0.093706
-0.097041
-0.091077
-0.099575
0.092945
0.082639
0.085180
0.017873
0.004420
-0.001551
-0.129695
-0.122005
-0.118762
-0.028846
-0.024336
-0.005466
-0.026460
-0.017564
-0.011073
-0.001083
-0.150886
-0.148478
-0.039341
-0.037637
-0.129397
0.051275
0.069078
0.050378
0.119661
0.074746
0.010632
0.013714
0.014812
-0.147723
-0.010610
-0.020387
-0.018069
-0.018085
-0.090971
-0.111664
-0.093998
-0.089513
0.023057
-0.118421
-0.112670
-0.155551
-0.159499
-0.155425
-0.129773
-0.126785
-0.128870
-0.131007
0.059859
0.053971
0.062379
-0.125522
-0.008077
0.097896
0.037522
0.035430
-0.006064
0.009295
-0.007716
0.011849
0.004062
0.016583
-0.028910
-0.122973
-0.061524
-0.129402
-0.128950
-0.192631
-0.200098
-0.014297
-0.011011
-0.056221
-0.067306
0.005098
-0.057219
-0.225904
-0.063755
-0.182845
-0.184656
-0.175533
-0.064771
0.060855
0.056201
0.053847
0.051243
-0.015632
-0.017430
-0.085550
-0.081535
-0.079362
0.050527
0.050311
0.047040
0.045581
0.071516
0.074647
-0.189065
-0.186900
0.091328
-0.262359
-0.241085
-0.257703
0.070301
0.067098
0.061607
-0.102878
-0.107517
-0.095276
0.074993
0.095825
0.057096
0.038550
0.049101
0.029368
-0.115160
0.006617
0.003240
0.002127
0.069049
0.077387
0.078828
-0.218683
-0.234002
-0.235673
0.087353
-0.111966
-0.105550
-0.122884
-0.136809
-0.137442
-0.168609
0.009912
0.006464
0.018170
0.120331
0.119436
0.130029
0.109197
0.105445
0.123309
0.123511
-0.084067
-0.085210
-0.202430
-0.189405
-0.189025
-0.092888
0.012644
-0.016330
-0.198130
-0.197251
-0.207060
-0.172594
-0.169986
-0.217557
0.009790
-0.012888
-0.172505
-0.009239
-0.160869
-0.149327
-0.150954
0.121461
0.128235
-0.057350
-0.057845
-0.045191
-0.006954
-0.020873
0.004862
-0.029916
-0.046770
-0.014339
-0.027900
-0.029031
-0.114039
-0.140331
-0.146830
-0.119861
-0.172044
-0.177678
-0.174049
-0.231270
-0.225310
-0.008500
-0.013211
-0.006979
-0.013224
-0.014689
-0.063345
-0.057555
-0.061870
-0.214421
-0.003845
-0.005953
-0.079322
-0.087165
-0.086869
0.125526
0.115019
-0.181109
0.077852
0.072682
0.072097
0.079097
-0.209776
-0.204498
-0.200259
0.085744
-0.003590
0.107772
-0.040538
-0.003088
-0.014279
-0.016236
-0.090536
0.002290
-0.005840
-0.075943
-0.069675
-0.070318
0.047146
0.020391
-0.033751
-0.138934
-0.140973
-0.062611
-0.092498
0.028712
0.035308
0.027014
0.039718
-0.154067
-0.155169
-0.155212
-0.113434
-0.006374
-0.013598
0.009303
0.006574
0.004545
-0.009472
-0.025492
-0.211242
-0.203753
-0.213894
-0.202122
-0.100994
-0.204544
-0.206978
-0.214436
-0.198654
-0.196133
-0.108951
-0.103661
-0.148430
-0.139735
-0.106127
-0.042275
-0.034858
-0.088337
-0.078710
-0.236581
-0.249772
-0.223744
-0.001871
-0.004050
-0.001804
-0.118209
-0.123042
-0.020600
-0.022478
-0.187883
-0.191514
-0.183696
-0.155280
-0.151098
-0.150358
-0.072872
-0.083895
-0.196256
0.000573
0.007280
0.003594
-0.154773
-0.167887
-0.165523
-0.174118
-0.158692
-0.195496
0.043122
0.034558
-0.178879
-0.183517
-0.187116
-0.191843
0.003191
-0.000997
-0.148723
0.080779
-0.036765
-0.027782
0.000894
-0.001196
-0.005085
-0.089206
-0.006226
-0.159536
-0.127003
-0.126380
-0.131479
-0.135674
-0.171494
-0.177536
-0.178266
-0.015412
-0.018254
-0.186298
0.004808
0.042814
0.040748
-0.232622
-0.219759
-0.226770
-0.091495
-0.098481
-0.095842
-0.164187
0.109610
0.116752
0.106883
0.100664
0.098820
-0.178016
-0.175971
-0.170176
-0.169983
-0.176498
-0.035849
0.041527
0.013382
0.073558
-0.194731
-0.202431
-0.179389
-0.181195
-0.169640
-0.165662
-0.186310
-0.174344
-0.001999
-0.003397
0.000204
-0.125154
-0.121576
-0.129552
0.059557
0.061459
0.065261
-0.108132
0.095025
0.090017
-0.193312
-0.091323
-0.018090
-0.249784
-0.264628
-0.103459
-0.113495
0.033233
0.031010
0.029809
-0.034952
-0.032010
0.036766
-0.030278
0.039615
-0.168889
-0.179428
0.061942
0.067094
0.043686
0.011728
-0.031321
0.082217
0.067811
0.098062
0.057086
-0.067888
-0.069562
-0.064304
-0.065770
0.006915
-0.085904
-0.094198
0.005125
-0.204755
-0.184378
-0.192876
-0.113541
-0.110107
0.001351
0.006208
-0.110788
-0.114464
-0.113374
-0.000361
-0.002178
0.000395
-0.130351
-0.125799
-0.126126
-0.164145
0.070509
0.074927
0.077246
-0.161230
-0.167936
-0.173231
-0.013945
-0.016651
-0.018973
-0.175147
-0.127451
-0.022098
-0.122404
-0.086408
-0.188028
-0.186117
0.104485
-0.003452
0.063054
0.053931
-0.126809
-0.129967
-0.054228
-0.060231
-0.012296
-0.216306
-0.054776
-0.147757
-0.179436
-0.172278
-0.143103
-0.144704
-0.145631
0.048768
0.046170
0.047240
0.055638
0.013591
0.017368
0.012631
0.019477
-0.156166
-0.118490
-0.118169
-0.161294
-0.105668
-0.018238
-0.021949
-0.033430
0.099910
0.072907
0.049717
-0.002951
-0.036177
-0.077247
-0.160922
-0.158201
-0.154088
-0.180479
-0.062228
-0.026801
-0.048056
-0.072831
-0.051323
-0.001865
-0.002940
-0.005679
-0.021038
-0.017130
-0.018334
0.054020
0.014241
0.010026
0.007929
-0.041654
0.018508
-0.028042
-0.021798
0.091513
-0.157101
-0.166300
-0.157331
-0.165158
-0.178150
0.082832
0.059194
0.064710
0.052301
0.048317
0.045622
-0.172933
-0.020789
0.002606
0.005899
0.004702
-0.011491
-0.008797
-0.009351
0.111188
0.119585
0.073653
-0.161743
-0.156753
-0.073043
-0.075021
0.035407
0.068052
0.058587
0.060456
-0.142721
-0.141094
-0.055984
-0.060583
-0.068148
-0.161647
-0.157218
-0.049568
-0.166227
0.020181
0.019510
0.016742
-0.049145
-0.044335
0.054308
0.046297
-0.149274
-0.150519
-0.142448
-0.143038
-0.148751
-0.154924
0.015599
0.011506
-0.188519
0.015828
0.018950
0.023355
0.098209
0.097902
0.011836
-0.045876
-0.045525
-0.054415
-0.069108
-0.111844
-0.041279
-0.048092
-0.052643
-0.146666
-0.145988
0.066896
0.024636
0.018834
0.018099
-0.022581
-0.070580
-0.084042
-0.088517
0.036994
0.039748
0.015777
-0.137309
-0.136915
-0.126973
-0.070546
-0.031984
-0.025926
-0.024036
-0.048007
-0.036296
-0.032381
-0.024631
-0.087006
-0.044495
-0.017084
0.067479
0.074379
0.073673
0.050159
0.067403
0.089418
-0.144651
-0.094540
-0.113901
-0.123782
-0.118010
-0.116601
-0.126316
-0.104711
0.007866
0.042076
-0.030506
-0.068408
-0.066189
0.053537
0.054327
0.033008
0.025695
0.021697
-0.113562
-0.125304
-0.038412
0.009082
-0.153078
0.057250
0.056567
0.044341
0.040912
-0.149950
-0.186082
-0.154620
0.049681
0.046738
0.020947
0.014999
0.018521
0.022038
0.048576
0.110562
-0.041076
0.031646
0.011239
0.014861
-0.020917
-0.097030
-0.085509
0.101269
-0.002015
-0.093076
0.036457
0.042046
-0.082353
-0.092001
-0.105880
-0.110925
-0.104541
-0.142322
0.028539
0.024976
-0.046377
-0.059142
-0.055452
-0.140350
-0.108226
-0.208869
0.029831
0.030678
0.026020
0.031294
0.035213
-0.141054
0.022228
-0.126209
-0.056178
-0.121798
-0.147046
-0.094957
-0.083647
-0.082899
-0.112816
-0.022149
-0.134194
-0.185927
-0.031479
-0.045388
-0.054685
-0.132261
-0.124821
-0.103902
0.034418
-0.008891
-0.007894
-0.110846
-0.075965
0.022158
0.034780
-0.145128
-0.152169
-0.146722
0.001436
-0.117308
0.049856
0.044823
-0.009256
-0.097239
-0.101344
-0.102355
-0.122590
-0.122471
-0.042224
-0.044160
0.095210
0.101565
0.003808
-0.044486
0.003874
-0.038154
-0.040845
0.017677
-0.034626
-0.044840
0.084332
-0.057137
-0.137661
-0.137227
0.038329
-0.006317
-0.003395
0.102712
-0.001610
-0.018099
-0.034886
-0.192301
-0.193605
-0.062008
-0.066538
-0.136343
-0.140588
-0.136634
0.107938
-0.140190
-0.097547
-0.112993
0.052914
-0.081580
-0.050341
-0.047323
-0.117822
-0.025974
-0.030504
0.002950
-0.098002
-0.105037
0.021183
0.024655
0.028365
0.029559
0.025458
-0.007785
-0.223972
-0.095895
-0.109925
-0.103433
-0.047607
-0.078733
-0.079439
0.003581
0.006795
-0.072815
-0.048072
-0.012594
-0.000845
0.017042
-0.024963
-0.022593
-0.022171
-0.019786
-0.106453
-0.127322
-0.118088
0.035038
0.035122
0.038656
-0.108879
-0.109563
-0.023817
-0.133662
-0.134518
0.000504
0.002988
0.043855
-0.002099
-0.141846
-0.153100
-0.143494
-0.132545
-0.018417
-0.115348
-0.027153
-0.029529
-0.176639
-0.179576
-0.005682
-0.040371
-0.017668
-0.111678
-0.006028
-0.001157
-0.006901
-0.150513
-0.151942
0.009920
-0.121309
-0.144269
-0.172160
-0.175774
-0.152152
-0.112213
-0.104018
-0.099206
0.017751
0.020914
0.020804
-0.139359
-0.137902
-0.029954
-0.030045
-0.140741
-0.142029
-0.146387
-0.077155
-0.075221
-0.114574
-0.137647
0.041719
0.040205
-0.014868
-0.137906
-0.138752
-0.142137
-0.136975
-0.136706
-0.025886
-0.023719
0.016592
-0.002289
-0.133026
-0.131833
-0.116820
-0.042108
-0.035095
-0.006273
-0.012940
-0.136290
0.004068
0.004011
-0.080030
-0.105682
-0.016975
-0.019729
-0.113923
-0.108124
-0.032117
0.002343
0.001373
0.030957
-0.133907
0.031605
-0.032337
0.074113
0.073164
-0.146078
-0.144525
-0.059922
-0.059227
-0.071949
-0.075573
0.013781
0.040969
-0.004951
-0.091054
0.035471
-0.148440
0.050562
0.036871
0.038437
-0.149228
0.045341
0.025744
-0.015258
0.013177
0.010389
-0.035391
0.028139
-0.233342
-0.221524
-0.226028
-0.163966
0.077366
0.023478
0.027657
0.021583
0.000273
-0.191003
0.085675
-0.149930
-0.136592
-0.132471
-0.013122
-0.005738
-0.011043
0.020376
-0.000735
-0.099534
-0.097195
-0.252497
-0.014776
0.027844
0.048520
-0.270333
-0.271501
-0.096704
0.010221
0.033269
0.013313
0.011243
0.046377
0.002302
-0.020299
-0.133381
0.001103
-0.141119
-0.051694
0.012121
0.027156
0.020413
0.008725
0.067090
0.032741
-0.136476
-0.133435
-0.133834
0.095722
0.088942
0.001447
0.044121
-0.125310
-0.129762
-0.132945
-0.007023
-0.004340
-0.006008
-0.004447
-0.100269
-0.015856
0.054517
0.030000
-0.120242
-0.124073
-0.200307
-0.054575
0.046608
0.083281
0.076567
-0.160554
-0.169379
-0.185124
0.059092
0.055607
-0.133036
-0.072735
-0.004749
-0.008074
-0.150163
-0.007751
-0.061994
-0.095289
0.061681
0.081036
0.002696
-0.013432
-0.022885
-0.171639
-0.039436
-0.010734
-0.009255
-0.141282
0.110694
-0.218882
-0.006989
-0.007914
-0.177708
0.054664
0.022860
0.010166
-0.099743
0.013618
-0.003074
-0.121034
0.050177
-0.115573
-0.021323
-0.025093
0.004796
-0.102175
0.017338
-0.108241
-0.037884
-0.019187
-0.018124
-0.111870
0.090611
0.044933
-0.129149
-0.129960
-0.034416
0.014941
-0.243745
-0.258358
-0.250808
-0.111774
-0.139221
0.021359
-0.155729
0.005136
0.044906
0.043195
-0.051554
-0.158191
-0.167774
-0.116845
0.074528
0.068604
0.003561
0.002245
-0.085007
-0.098926
-0.159832
-0.164673
0.008045
-0.135252
-0.061223
-0.063463
-0.140169
-0.193319
0.029120
0.022834
0.026533
0.035380
-0.068368
0.067029
0.051126
-0.046699
-0.120874
-0.126026
0.036528
0.026704
-0.120904
0.017134
-0.011390
-0.142994
0.052697
-0.093192
-0.155003
0.031516
0.039380
-0.079555
-0.079071
-0.129418
-0.139886
0.031548
0.032620
0.034691
-0.034507
0.008013
-0.046609
-0.117121
-0.159066
0.000180
0.003423
-0.117490
-0.133246
0.019630
0.036577
-0.021792
-0.011977
-0.019447
0.065406
0.096566
-0.065830
-0.063525
-0.094405
-0.167255
0.040887
-0.124184
-0.038797
-0.037774
-0.038447
-0.004758
-0.136692
0.026744
-0.128689
-0.066926
0.037676
-0.121475
-0.102169
-0.103462
-0.136251
-0.069093
-0.059480
-0.132917
0.030753
-0.121134
-0.049739
-0.034202
-0.052849
-0.031742
-0.073312
-0.070172
0.005814
-0.125964
-0.128535
-0.043671
-0.044184
-0.034089
-0.097475
-0.103494
-0.087895
-0.109608
-0.087968
-0.040795
-0.104350
-0.084226
-0.053824
-0.035164
-0.117837
0.043304
0.033052
-0.058966
-0.131689
-0.124149
-0.046634
-0.011469
-0.004420
-0.087238
-0.023307
-0.118271
-0.132207
-0.026144
0.006643
0.015314
0.022085
0.040715
-0.133923
0.001474
-0.123239
-0.092045
-0.126102
0.026813
-0.059729
0.008145
-0.137975
-0.003835
-0.008295
-0.010573
-0.143494
-0.023631
-0.096148
-0.105189
-0.042565
-0.061732
-0.135194
-0.019035
0.018501
-0.082606
-0.110870
-0.030038
SCALARS UY float 1
LOOKUP_TABLE default
-0.000001
-0.000001
-0.479999
-0.480000
-0.117975
-0.308728
-0.000000
-0.000000
-0.000000
-0.000000
-0.000000
-0.000000
-0.000000
-0.000000
-0.000000
-0.000000
-0.000000
-0.000000
-0.000000
-0.000000
-0.000000
-0.000000
-0.042715
-0.073160
-0.096222
-0.118306
-0.138929
-0.159348
-0.179355
-0.198462
-0.217424
-0.235902
-0.254654
-0.273776
-0.295455
-0.327516
-0.371432
-0.425468
-0.480000
-0.480000
-0.480000
-0.480000
-0.480000
-0.480000
-0.480000
-0.480000
-0.480000
-0.480000
-0.480000
-0.480000
-0.480000
-0.480000
-0.480000
-0.480000
-0.452511
-0.425219
-0.398645
-0.372839
-0.347865
-0.324624
-0.302856
-0.282604
-0.263626
-0.245571
-0.227797
-0.209904
-0.189946
-0.163807
-0.123264
-0.078046
-0.120631
-0.122401
-0.125012
-0.126378
-0.129374
-0.131812
-0.134996
-0.136587
-0.137703
-0.139610
-0.141283
-0.144287
-0.147333
-0.152499
-0.153331
-0.156116
-0.159889
-0.163103
-0.165315
-0.168361
-0.170705
-0.172856
-0.175596
-0.177597
-0.180600
-0.182324
-0.183786
-0.186652
-0.187431
-0.190657
-0.193225
-0.196763
-0.197010
-0.201982
-0.201627
-0.204710
-0.206482
-0.210140
-0.210622
-0.214418
-0.216205
-0.219458
-0.221433
-0.225854
-0.229880
-0.233135
-0.236096
-0.240116
-0.243261
-0.246582
-0.251156
-0.253737
-0.256004
-0.260419
-0.263681
-0.270946
-0.273875
-0.277515
-0.280614
-0.284110
-0.287303
-0.290909
-0.294762
-0.298556
-0.302766
-0.305371
-0.014932
-0.007645
-0.016940
-0.267760
-0.276116
-0.279204
-0.008718
-0.136847
-0.135567
-0.128903
-0.039366
-0.042556
-0.045693
-0.049891
-0.112944
-0.105952
-0.109607
-0.260825
-0.260399
-0.264372
-0.182447
-0.193442
-0.184802
-0.234376
-0.234039
-0.249646
-0.262746
-0.127460
-0.120833
-0.312644
-0.318066
-0.310950
-0.317682
-0.303878
-0.311027
-0.309758
-0.006167
-0.015568
-0.007817
-0.459581
-0.442322
-0.441156
-0.201981
-0.198143
-0.426265
-0.187008
-0.215308
-0.221596
-0.219392
-0.261757
-0.258324
-0.261825
-0.099086
-0.094867
-0.094739
-0.256560
-0.150096
-0.158448
-0.164529
-0.218952
-0.213607
-0.216558
-0.013589
-0.185161
-0.175164
-0.176389
-0.015354
-0.011217
-0.165055
-0.019863
-0.166037
-0.166920
-0.154264
-0.137431
-0.137066
-0.132516
-0.223957
-0.222373
-0.217151
-0.132463
-0.229979
-0.051913
-0.055527
-0.050211
-0.059738
-0.162546
-0.157953
-0.157634
-0.153019