# vtk DataFile Version 2.0
Test
ASCII
DATASET POLYDATA
POINTS 1818 float
0.000000 0.000000 0.000000
1.000000 0.000000 0.000000
1.000000 1.000000 0.000000
0.000000 1.000000 0.000000
0.300000 0.330000 0.000000
0.700000 0.680000 0.000000
0.058824 0.000000 0.000000
0.117647 0.000000 0.000000
0.176471 0.000000 0.000000
0.235294 0.000000 0.000000
0.294118 0.000000 0.000000
0.352941 0.000000 0.000000
0.411765 0.000000 0.000000
0.470588 0.000000 0.000000
0.529412 0.000000 0.000000
0.588235 0.000000 0.000000
0.647059 0.000000 0.000000
0.705882 0.000000 0.000000
0.764706 0.000000 0.000000
0.823529 0.000000 0.000000
0.882353 0.000000 0.000000
0.941176 0.000000 0.000000
1.000000 0.058824 0.000000
1.000000 0.117647 0.000000
1.000000 0.176471 0.000000
1.000000 0.235294 0.000000
1.000000 0.294118 0.000000
1.000000 0.352941 0.000000
1.000000 0.411765 0.000000
1.000000 0.470588 0.000000
1.000000 0.529412 0.000000
1.000000 0.588235 0.000000
1.000000 0.647059 0.000000
1.000000 0.705882 0.000000
1.000000 0.764706 0.000000
1.000000 0.823529 0.000000
1.000000 0.882353 0.000000
1.000000 0.941176 0.000000
0.941176 1.000000 0.000000
0.882353 1.000000 0.000000
0.823529 1.000000 0.000000
0.764706 1.000000 0.000000
0.705882 1.000000 0.000000
0.647059 1.000000 0.000000
0.588235 1.000000 0.000000
0.529412 1.000000 0.000000
0.470588 1.000000 0.000000
0.411765 1.000000 0.000000
0.352941 1.000000 0.000000
0.294118 1.000000 0.000000
0.235294 1.000000 0.000000
0.176471 1.000000 0.000000
0.117647 1.000000 0.000000
0.058824 1.000000 0.000000
0.000000 0.941176 0.000000
0.000000 0.882353 0.000000
0.000000 0.823529 0.000000
0.000000 0.764706 0.000000
0.000000 0.705882 0.000000
0.000000 0.647059 0.000000
0.000000 0.588235 0.000000
0.000000 0.529412 0.000000
0.000000 0.470588 0.000000
0.000000 0.411765 0.000000
0.000000 0.352941 0.000000
0.000000 0.294118 0.000000
0.000000 0.235294 0.000000
0.000000 0.176471 0.000000
0.000000 0.117647 0.000000
0.000000 0.058824 0.000000
0.305970 0.335224 0.000000
0.311940 0.340448 0.000000
0.317910 0.345672 0.000000
0.323881 0.350896 0.000000
0.329851 0.356119 0.000000
0.335821 0.361343 0.000000
0.341791 0.366567 0.000000
0.347761 0.371791 0.000000
0.353731 0.377015 0.000000
0.359701 0.382239 0.000000
0.365672 0.387463 0.000000
0.371642 0.392687 0.000000
0.377612 0.397910 0.000000
0.383582 0.403134 0.000000
0.389552 0.408358 0.000000
0.395522 0.413582 0.000000
0.401493 0.418806 0.000000
0.407463 0.424030 0.000000
0.413433 0.429254 0.000000
0.419403 0.434478 0.000000
0.425373 0.439701 0.000000
0.431343 0.444925 0.000000
0.437313 0.450149 0.000000
0.443284 0.455373 0.000000
0.449254 0.460597 0.000000
0.455224 0.465821 0.000000
0.461194 0.471045 0.000000
0.467164 0.476269 0.000000
0.473134 0.481493 0.000000
0.479104 0.486716 0.000000
0.485075 0.491940 0.000000
0.491045 0.497164 0.000000
0.497015 0.502388 0.000000
0.502985 0.507612 0.000000
0.508955 0.512836 0.000000
0.514925 0.518060 0.000000
0.520896 0.523284 0.000000
0.526866 0.528507 0.000000
0.532836 0.533731 0.000000
0.538806 0.538955 0.000000
0.544776 0.544179 0.000000
0.550746 0.549403 0.000000
0.556716 0.554627 0.000000
0.562687 0.559851 0.000000
0.568657 0.565075 0.000000
0.574627 0.570299 0.000000
0.580597 0.575522 0.000000
0.586567 0.580746 0.000000
0.592537 0.585970 0.000000
0.598507 0.591194 0.000000
0.604478 0.596418 0.000000
0.610448 0.601642 0.000000
0.616418 0.606866 0.000000
0.622388 0.612090 0.000000
0.628358 0.617313 0.000000
0.634328 0.622537 0.000000
0.640299 0.627761 0.000000
0.646269 0.632985 0.000000
0.652239 0.638209 0.000000
0.658209 0.643433 0.000000
0.664179 0.648657 0.000000
0.670149 0.653881 0.000000
0.676119 0.659104 0.000000
0.682090 0.664328 0.000000
0.688060 0.669552 0.000000
0.694030 0.674776 0.000000
0.516135 0.080917 0.000000
0.549338 0.042552 0.000000
0.567302 0.088709 0.000000
0.555658 0.563778 0.000000
0.559301 0.571359 0.000000
0.552318 0.570919 0.000000
0.603235 0.047100 0.000000
0.446553 0.448087 0.000000
0.438652 0.443189 0.000000
0.445116 0.440368 0.000000
0.437254 0.190586 0.000000
0.465954 0.201747 0.000000
0.439184 0.213838 0.000000
0.453137 0.228102 0.000000
0.522423 0.410182 0.000000
0.522098 0.390982 0.000000
0.537289 0.398500 0.000000
0.453388 0.527105 0.000000
0.462022 0.524948 0.000000
0.461218 0.533993 0.000000
0.324300 0.374550 0.000000
0.319287 0.386214 0.000000
0.314834 0.375138 0.000000
0.668809 0.628853 0.000000
0.677366 0.632907 0.000000
0.668274 0.639611 0.000000
0.469934 0.529282 0.000000
0.439703 0.436699 0.000000
0.446608 0.432083 0.000000
0.542854 0.633425 0.000000
0.535117 0.647070 0.000000
0.524302 0.633157 0.000000
0.519372 0.648877 0.000000
0.586338 0.611293 0.000000
0.591638 0.624149 0.000000
0.575478 0.621479 0.000000
0.437962 0.035513 0.000000
0.421505 0.085456 0.000000
0.394924 0.044162 0.000000
0.445207 0.955749 0.000000
0.429168 0.919510 0.000000
0.464409 0.914226 0.000000
0.317150 0.400904 0.000000
0.328626 0.395860 0.000000
0.439616 0.884412 0.000000
0.330406 0.381773 0.000000
0.676842 0.602700 0.000000
0.674982 0.614185 0.000000
0.665930 0.611798 0.000000
0.414707 0.535036 0.000000
0.420123 0.526072 0.000000
0.425338 0.533771 0.000000
0.398407 0.375558 0.000000
0.393804 0.363255 0.000000
0.407284 0.365452 0.000000
0.407758 0.523337 0.000000
0.899969 0.377867 0.000000
0.945915 0.378245 0.000000
0.914158 0.409130 0.000000
0.358219 0.436142 0.000000
0.361390 0.425428 0.000000
0.369309 0.432300 0.000000
0.465999 0.075074 0.000000
0.269944 0.367761 0.000000
0.266521 0.352125 0.000000
0.283474 0.357667 0.000000
0.385889 0.083020 0.000000
0.359482 0.060981 0.000000
0.279658 0.346766 0.000000
0.363604 0.104040 0.000000
0.511115 0.503731 0.000000
0.503243 0.499914 0.000000
0.509146 0.494910 0.000000
0.513188 0.475753 0.000000
0.504957 0.474656 0.000000
0.511959 0.464784 0.000000
0.311863 0.447505 0.000000
0.293019 0.442078 0.000000
0.305555 0.431691 0.000000
0.499204 0.464990 0.000000
0.293855 0.459576 0.000000
0.396676 0.236328 0.000000
0.371014 0.247362 0.000000
0.373003 0.229199 0.000000
0.384478 0.261522 0.000000
0.555704 0.523331 0.000000
0.551313 0.515879 0.000000
0.562752 0.515269 0.000000
0.554954 0.506854 0.000000
0.804236 0.611103 0.000000
0.819351 0.593503 0.000000
0.832061 0.615776 0.000000
0.509908 0.485173 0.000000
0.129738 0.481190 0.000000
0.110722 0.443736 0.000000
0.154857 0.452634 0.000000
0.089738 0.485299 0.000000
0.396427 0.153886 0.000000
0.393058 0.115469 0.000000
0.420333 0.126587 0.000000
0.442628 0.413512 0.000000
0.434815 0.404283 0.000000
0.446816 0.400259 0.000000
0.499770 0.482873 0.000000
0.353883 0.235057 0.000000
0.351360 0.254011 0.000000
0.332147 0.240870 0.000000
0.112307 0.405527 0.000000
0.140355 0.392788 0.000000
0.142004 0.423465 0.000000
0.334868 0.263052 0.000000
0.551239 0.594093 0.000000
0.560217 0.601969 0.000000
0.546711 0.604614 0.000000
0.398510 0.570197 0.000000
0.387124 0.557316 0.000000
0.399978 0.555748 0.000000
0.705281 0.743146 0.000000
0.722930 0.758853 0.000000
0.697202 0.758074 0.000000
0.380190 0.572638 0.000000
0.278345 0.431947 0.000000
0.292575 0.428097 0.000000
0.470820 0.540616 0.000000
0.478213 0.533042 0.000000
0.480161 0.543190 0.000000
0.415268 0.299334 0.000000
0.412465 0.313515 0.000000
0.400419 0.297680 0.000000
0.396495 0.317117 0.000000
0.718655 0.732879 0.000000
0.709319 0.677587 0.000000
0.715709 0.670111 0.000000
0.719283 0.682820 0.000000
0.212992 0.453899 0.000000
0.184619 0.470046 0.000000
0.186665 0.440862 0.000000
0.452307 0.386568 0.000000
0.460371 0.397715 0.000000
0.478664 0.456068 0.000000
0.476179 0.462123 0.000000
0.471250 0.456445 0.000000
0.464654 0.388544 0.000000
0.483415 0.461045 0.000000
0.357146 0.449596 0.000000
0.344653 0.443966 0.000000
0.554562 0.459423 0.000000
0.543333 0.457517 0.000000
0.553850 0.449505 0.000000
0.543131 0.445036 0.000000
0.347312 0.459318 0.000000
0.781088 0.538918 0.000000
0.810909 0.534152 0.000000
0.799399 0.553968 0.000000
0.402869 0.534333 0.000000
0.408011 0.546121 0.000000
0.703844 0.670118 0.000000
0.552234 0.794299 0.000000
0.528593 0.795589 0.000000
0.539188 0.770312 0.000000
0.596088 0.518714 0.000000
0.593029 0.508081 0.000000
0.604120 0.510731 0.000000
0.384880 0.468703 0.000000
0.382270 0.455963 0.000000
0.394062 0.458803 0.000000
0.374729 0.466839 0.000000
0.340939 0.294790 0.000000
0.324530 0.290188 0.000000
0.338473 0.279923 0.000000
0.465367 0.336545 0.000000
0.477337 0.352846 0.000000
0.459495 0.350024 0.000000
0.584947 0.516440 0.000000
0.326802 0.302636 0.000000
0.945343 0.420397 0.000000
0.779746 0.749037 0.000000
0.771533 0.774140 0.000000
0.758291 0.749848 0.000000
0.743435 0.765852 0.000000
0.751942 0.297541 0.000000
0.784264 0.292048 0.000000
0.772562 0.330207 0.000000
0.812744 0.305799 0.000000
0.655547 0.494535 0.000000
0.649767 0.472522 0.000000
0.671966 0.480244 0.000000
0.612062 0.502007 0.000000
0.616789 0.515227 0.000000
0.403059 0.898561 0.000000
0.391512 0.946883 0.000000
0.625780 0.504699 0.000000
0.635988 0.491275 0.000000
0.596252 0.650380 0.000000
0.583401 0.655132 0.000000
0.583737 0.644777 0.000000
0.713099 0.416502 0.000000
0.708474 0.388943 0.000000
0.733625 0.389568 0.000000
0.684835 0.406222 0.000000
0.656936 0.416423 0.000000
0.633624 0.425116 0.000000
0.634362 0.400237 0.000000
0.646884 0.740682 0.000000
0.654954 0.726002 0.000000
0.663305 0.741855 0.000000
0.732481 0.441235 0.000000
0.751303 0.460839 0.000000
0.721338 0.462235 0.000000
0.759622 0.437863 0.000000
0.462761 0.363156 0.000000
0.373644 0.622389 0.000000
0.346217 0.613642 0.000000
0.370315 0.594521 0.000000
0.351411 0.640635 0.000000
0.695337 0.690220 0.000000
0.705202 0.700133 0.000000
0.692303 0.700990 0.000000
0.521365 0.516400 0.000000
0.522992 0.510597 0.000000
0.527633 0.513574 0.000000
0.291567 0.329512 0.000000
0.294927 0.318154 0.000000
0.365771 0.366553 0.000000
0.366135 0.358691 0.000000
0.374180 0.368122 0.000000
0.408232 0.327056 0.000000
0.423479 0.328280 0.000000
0.411272 0.339740 0.000000
0.664110 0.670607 0.000000
0.667245 0.662649 0.000000
[...]
POINT_DATA 1818
SCALARS UX float 1
LOOKUP_TABLE default
-0.000006
0.000004
0.021695
-1.136707
-0.211563
-0.168286
0.000001
-0.000001
-0.000000
-0.000000
-0.000000
-0.000000
-0.000000
-0.000000
-0.000000
0.000000
0.000000
0.000000
0.000000
0.000000
0.000001
-0.000000
0.105388
0.171199
0.220658
0.264650
0.302842
0.336944
0.369773
0.402088
0.429059
0.458829
0.485378
0.515798
0.565975
0.503631
0.158454
0.078861
-0.084522
-0.113613
-0.132567
-0.171172
-0.224159
-0.282183
-0.339013
-0.396746
-0.461338
-0.538534
-0.624634
-0.715129
-0.807769
-0.903754
-0.994869
-1.066217
-1.121295
-1.098271
-1.058333
-1.005289
-0.945641
-0.888726
-0.847665
-0.812316
-0.780586
-0.750308
-0.718627
-0.671972
-0.600098
-0.481080
-0.314959
-0.166894
-0.210605
-0.214598
-0.213810
-0.216722
-0.212655
-0.214603
-0.211237
-0.216391
-0.224888
-0.224101
-0.225520
-0.233546
-0.238657
-0.234175
-0.230807
-0.229090
-0.242001
-0.243233
-0.253553
-0.254027
-0.251513
-0.247436
-0.246248
-0.249755
-0.251445
-0.246210
-0.241249
-0.234630
-0.230996
-0.224060
-0.229107
-0.225115
-0.222870
-0.219446
-0.211138
-0.213900
-0.210375
-0.196980
-0.198075
-0.187926
-0.187584
-0.187338
-0.184963
-0.186404
-0.189501
-0.188898
-0.190018
-0.179021
-0.173692
-0.171283
-0.167851
-0.174726
-0.174482
-0.173150
-0.177611
-0.174480
-0.179724
-0.181847
-0.180389
-0.184381
-0.177847
-0.178233
-0.150494
-0.161163
-0.153377
-0.140188
-0.010831
-0.005047
-0.006418
-0.377401
-0.387132
-0.408781
-0.001889
-0.069990
-0.101104
-0.042755
-0.027454
-0.022066
-0.027611
-0.023970
0.042519
0.034107
0.044320
-0.522250
-0.513008
-0.514925
-0.379165
-0.441999
-0.408753
0.124043
0.139645
0.042287
-0.504437
-0.048665
-0.010878
-0.408301
-0.410584
-0.428312
-0.428144
-0.367920
-0.362900
-0.379796
-0.007504
-0.016852
-0.009678
-0.483129
-0.499521
-0.454767
-0.502266
-0.442224
-0.485120
-0.386375
0.201391
0.184040
0.175630
-0.552148
-0.547028
-0.544155
-0.030315
-0.032371
-0.022011
-0.555426
0.258077
0.299402
0.286489
-0.512557
-0.478320
-0.480034
-0.013289
-0.487576
-0.444069
-0.420795
-0.017426
-0.013301
-0.357159
-0.022502
-0.050083
-0.091372
-0.002676
0.062552
0.058005
0.060574
-0.596863
-0.607975
-0.586259
0.051147
-0.617881
-0.039118
-0.048222
-0.045606
-0.043620
0.090382
0.089168
0.106926
0.098639
0.316846
0.316937
0.346533
0.056300
-0.714634
-0.710274
-0.689252
-0.740370
-0.029685
-0.023364
-0.023183
-0.001877
-0.005463
0.002600
0.037435
-0.052494
-0.056559
-0.061489
-0.693218
-0.672922
-0.685511
-0.065586
-0.419422
-0.406362
-0.419388
-0.568593
-0.577463
-0.566524
-0.238756
-0.221211
-0.245488
-0.584396
-0.612249
-0.596786
-0.503449
-0.498795
-0.497271
-0.027891
-0.026797
-0.033693
-0.032847
-0.219536
-0.024689
0.069825
0.016306
-0.657949
-0.678666
-0.668370
0.004110
0.009256
0.026067
0.008926
0.008318
0.009492
0.031875
-0.544345
-0.548238
0.081687
0.074229
0.076770
0.068999
-0.568169
0.255319
0.271620
0.274887
-0.561483
-0.559095
-0.025534
-0.359719
-0.385555
-0.377093
0.133544
0.127785
0.137059
-0.537637
-0.516195
-0.511160
-0.548036
-0.068973
-0.080187
-0.067866
-0.002380
0.005644
-0.000819
0.124057
-0.082919
0.321339
-0.079363
-0.165314
-0.152201
-0.200369
0.097782
0.116525
0.129724
0.146369
0.164219
0.145658
0.164292
0.139002
0.149430
-0.534085
-0.554445
0.150589
0.149452
-0.352198
-0.360124
-0.363846
0.143783
0.123222
0.138941
0.120607
0.112111
0.105278
0.090546
-0.279853
-0.275402
-0.268317
0.171883
0.195344
0.179443
0.186000
0.003361
-0.592328
-0.616055
-0.594174
-0.613517
-0.205621
-0.197426
-0.226265
-0.089071
-0.017834
-0.004485
-0.239945
-0.171379
-0.077107
-0.056420
-0.053435
-0.026687
-0.020082
-0.023548
-0.272252
-0.253806
-0.242167
-0.566828
-0.588197
-0.587246
-0.602293
-0.289389
-0.307296
-0.322792
-0.057250
0.006102
0.013445
0.014203
-0.101557
-0.111246
-0.082771
-0.053521
-0.102613
-0.104204
-0.472899
-0.483124
-0.487599
-0.090919
-0.150149
-0.149216
-0.021292
-0.228464
-0.213649
-0.230732
-0.216801
-0.052726
-0.044451
-0.477014
-0.479232
-0.467636
-0.466826
-0.594285
-0.551159
-0.588557
-0.432283
-0.459387
-0.429828
-0.097180
-0.097987
-0.418461
0.120207
0.121223
-0.624646
-0.613968
-0.612469
-0.163063
-0.833786
-0.773837
-0.788138
-0.743243
-0.321991
-0.476321
-0.481423
-0.483734
-0.470499
-0.337648
-0.327627
0.188675
0.167520
0.115268
0.211511
-0.611928
-0.597942
-0.573912
-0.185848
-0.243214
-0.172138
-0.133634
-0.103552
-0.080037
-0.036000
-0.166212
-0.238516
-0.301174
0.142020
0.032054
-0.271988
-0.491011
-0.488730
-0.314958
-0.346158
-0.346574
-0.489731
-0.343538
-0.338265
-0.389125
-0.365068
-0.373091
-0.357928
-0.393041
-0.038294
-0.040758
-0.064785
-0.064092
-0.054117
-0.074812
0.074726
0.073372
0.061001
-0.848226
-0.815221
-0.799975
-0.843182
-0.819431
-0.862067
-0.800490
-0.295047
-0.310636
-0.325468
-0.335041
-0.459796
-0.470206
-0.464236
-0.477287
-0.446206
-0.451764
-0.437945
-0.483282
-0.506195
-0.465474
-0.511489
-0.521140
-0.536009
-0.531791
-0.513345
-0.052363
-0.109263
-0.107021
0.031879
0.020977
0.023810
0.028277
0.196806
0.166098
0.179171
0.220888
0.225214
-0.343830
-0.344687
-0.350616
0.080365
0.090931
-0.015298
-0.515984
-0.508416
-0.524372
-0.331849
-0.307566
-0.495382
-0.315687
-0.337206
-0.344210
0.015518
0.021361
0.014646
0.097948
0.104200
0.106816
-0.058547
-0.059819
-0.339324
0.113173
-0.755932
-0.729792
-0.776769
-0.735540
-0.755593
0.011794
0.019637
0.070833
0.078714
0.072271
0.080894
0.067131
-0.734502
-0.301921
-0.279700
-0.302218
-0.283786
-0.438075
-0.514812
-0.401835
0.085112
0.123382
0.150388
-0.051463
0.055636
-0.193650
0.085534
0.087592
-0.278348
-0.263027
-0.267012
-0.535459
-0.498540
-0.509875
-0.350711
-0.363801
-0.820680
0.091198
0.101411
0.096285
-0.002264
-0.001301
-0.433372
-0.414605
-0.401887
0.002263
0.108399
-0.618705
-0.630280
-0.625793
-0.459750
-0.425111
-0.467510
-0.043928
0.045859
-0.014579
0.036750
-0.074340
-0.025920
-0.019501
-0.462015
-0.366548
-0.388108
-0.036128
-0.028203
-0.644331
-0.634090
-0.637101
-0.029946
-0.012314
-0.015183
-0.017539
-0.653487
-0.669569
-0.656035
-0.150687
-0.197220
-0.123279
-0.073955
-0.078393
-0.093321
-0.829369
-0.731720
0.079394
-0.502340
-0.567116
0.058534
0.090176
0.102517
-0.770419
0.083937
0.066147
-0.464560
-0.458121
0.198162
0.210581
0.212268
-0.477094
0.062826
0.066668
0.149008
-0.530508
-0.528355
-0.524749
-0.228676
-0.207725
-0.069681
-0.535932
0.008392
0.015281
-0.531412
-0.377807
-0.390639
-0.372066
-0.396765
0.259595
0.236799
0.232720
0.068477
-0.009989
-0.040562
-0.481512
-0.456889
-0.440220
-0.047684
-0.039109
0.013100
-0.094400
-0.020327
0.009239
-0.010875
-0.527725
-0.499493
-0.123154
-0.114605
-0.311555
0.126682
0.308660
0.117016
0.351521
0.357890
0.017725
0.024138
0.027794
-0.452091
-0.010948
-0.016835
-0.013372
-0.009910
-0.334745
-0.430094
-0.383103
-0.370504
0.091540
-0.272546
-0.253446
-0.588320
-0.603354
-0.582123
-0.517374
-0.505461
-0.513178
-0.413911
0.216079
0.201542
0.237121
-0.499511
-0.022483
0.268680
0.164897
0.163215
-0.018993
0.061106
-0.032124
0.078267
0.026290
0.100731
-0.038958
-0.373979
-0.296441
-0.413564
-0.381303
-0.705418
-0.726081
-0.009737
-0.004039
-0.121600
-0.162354
0.068818
-0.272308
-0.776337
-0.286022
-0.676427
-0.682731
-0.655832
-0.291960
0.227026
0.222082
0.213606
0.212846
-0.007617
-0.015501
-0.350134
-0.342630
-0.333871
0.195724
0.201582
0.190579
0.191866
0.191434
0.197878
-0.702213
-0.692075
0.250890
-1.001006
-0.911260
-0.992952
0.268867
0.275425
0.205818
-0.381169
-0.400366
-0.360274
0.306179
0.257562
0.146461
0.094955
0.124923
0.072780
-0.423514
0.041895
0.037693
0.029518
0.305978
0.330651
0.353739
-0.836116
-0.910478
-0.903814
0.352058
-0.354026
-0.390649
-0.466952
-0.372839
-0.395707
-0.530441
0.024989
0.017677
0.044751
0.447585
0.411535
0.459647
0.414636
0.492847
0.482342
0.510413
-0.329195
-0.327949
-0.678710
-0.630246
-0.642879
-0.349523
0.033407
-0.017469
-0.672286
-0.673554
-0.696609
-0.632680
-0.623969
-0.722259
0.023553
-0.011814
-0.645201
-0.025319
-0.602768
-0.558348
-0.560964
0.363101
0.405449
-0.232842
-0.250420
-0.210397
-0.102318
-0.140109
-0.090909
-0.140967
-0.192286
-0.115360
-0.035920
-0.040092
-0.296475
-0.422114
-0.451073
-0.314634
-0.637092
-0.648519
-0.638827
-0.764425
-0.744740
-0.020374
-0.030623
-0.014577
-0.028868
-0.029510
-0.295028
-0.282011
-0.288623
-0.716102
-0.009452
-0.009228
-0.354321
-0.373698
-0.379191
0.413959
0.380464
-0.652294
0.267677
0.260331
0.252463
0.279162
-0.713943
-0.696638
-0.689556
0.290370
-0.015828
0.380887
-0.239264
-0.014662
-0.025432
-0.030716
-0.396262
0.002551
-0.019702
-0.314768
-0.301263
-0.298192
0.077163
-0.071551
-0.056105
-0.514609
-0.518572
-0.277471
-0.389523
0.060774
0.077985
0.057684
0.088929
-0.548467
-0.565525
-0.574942
-0.415377
-0.006166
-0.022408
0.013359
0.007673
0.001913
-0.006429
-0.051921
-0.745937
-0.728735
-0.764468
-0.716406
-0.398860
-0.705516
-0.721999
-0.735085
-0.695433
-0.683432
-0.438123
-0.419928
-0.559325
-0.523260
-0.430788
-0.086592
-0.071050
-0.345989
-0.318705
-0.839428
-0.870685
-0.785880
0.037686
0.029667
0.034299
-0.471006
-0.488975
-0.014165
-0.020558
-0.665340
-0.669026
-0.653188
-0.599306
-0.585124
-0.583897
-0.157022
-0.192148
-0.703719
0.044252
0.011743
0.002494
-0.597140
-0.633589
-0.625823
-0.651595
-0.608327
-0.672436
0.102782
0.078544
-0.661405
-0.675955
-0.683618
-0.699718
0.004654
-0.002228
-0.572800
0.212849
-0.108055
-0.048642
-0.001674
0.002606
-0.007578
-0.390481
-0.005193
-0.608327
-0.501188
-0.496057
-0.516061
-0.528651
-0.639872
-0.655887
-0.655638
-0.002544
-0.006653
-0.677384
0.010848
0.179447
0.179744
-0.776604
-0.740911
-0.767841
-0.367055
-0.387949
-0.381888
-0.547915
0.316724
0.354674
0.318316
0.288552
0.293715
-0.619399
-0.609308
-0.639270
-0.637426
-0.657372
-0.170905
0.026986
-0.116074
0.339545
-0.703489
-0.729502
-0.671507
-0.677088
-0.634957
-0.549726
-0.639772
-0.651816
0.025931
0.026459
0.029322
-0.496758
-0.480482
-0.515769
0.232294
0.237416
0.245941
-0.258733
0.294213
0.290665
-0.666576
-0.368934
-0.073715
-0.934152
-0.993971
-0.381352
-0.414805
0.158873
0.151130
0.145770
-0.052469
-0.046667
0.170836
-0.045888
0.181521
-0.591747
-0.628621
0.215137
0.250725
0.191646
0.023225
-0.043368
0.320401
0.283174
0.316009
0.193802
-0.306589
-0.314317
-0.301786
-0.309683
0.048533
-0.326424
-0.351303
0.052892
-0.772360
-0.693261
-0.721026
-0.454911
-0.444317
0.022304
0.034681
-0.441191
-0.454462
-0.452351
0.047906
0.039584
0.047466
-0.516826
-0.500267
-0.500731
-0.621785
0.259375
0.270248
0.287201
-0.568146
-0.608714
-0.613059
-0.032318
-0.037407
-0.039635
-0.624741
-0.468305
-0.045639
-0.447356
-0.326012
-0.654636
-0.652391
0.344104
0.037122
0.160154
0.136351
-0.502121
-0.514371
-0.259012
-0.267144
-0.029987
-0.753045
-0.264755
-0.572370
-0.633082
-0.608497
-0.553601
-0.559354
-0.561187
0.203473
0.200611
0.204071
0.208613
0.025321
0.033542
0.021561
0.037946
-0.509939
-0.467747
-0.469011
-0.548946
-0.243962
-0.200719
-0.212393
-0.243492
0.590536
0.266822
0.076601
0.004043
-0.239548
-0.307117
-0.591233
-0.576357
-0.543105
-0.639166
-0.120497
-0.045202
-0.092447
-0.299390
-0.101785
0.021569
0.014730
-0.019548
-0.031600
-0.027313
-0.024230
0.170248
0.031759
0.019218
0.017889
-0.248834
0.038177
-0.057910
-0.046395
0.265638
-0.597166
-0.626268
-0.599457
-0.620897
-0.663425
0.249547
0.230352
0.239726
0.215669
0.203645
0.189746
-0.625487
-0.010707
-0.000373
0.008570
0.003197
0.007136
0.010845
0.012101
0.347420
0.380474
0.226129
-0.615583
-0.602341
-0.318209
-0.327524
0.168844
0.185137
0.163332
0.159596
-0.546759
-0.544826
-0.112563
-0.129514
-0.322925
-0.612626
-0.600394
-0.259475
-0.625003
0.085222
0.088536
0.084665
-0.262434
-0.254636
0.174978
0.136951
-0.571603
-0.578229
-0.549701
-0.554807
-0.567389
-0.586750
0.044859
0.042233
-0.651211
0.036059
0.074773
0.090549
0.381098
0.401097
0.057228
-0.242583
-0.234437
-0.252960
-0.304698
-0.419050
-0.086040
-0.100754
-0.110670
-0.572734
-0.568748
0.246709
0.056894
0.038935
0.045526
-0.213937
-0.320751
-0.342829
-0.353159
0.061523
0.067646
-0.020810
-0.454172
-0.443537
-0.401506
-0.280645
-0.066425
-0.053918
-0.050935
-0.251984
-0.074289
-0.065924
-0.050968
-0.356632
-0.254076
-0.038212
0.232564
0.238801
0.247139
0.199718
0.239515
0.381101
-0.506096
-0.351714
-0.440235
-0.477717
-0.459332
-0.445962
-0.482528
-0.429716
0.010144
0.104183
-0.183834
-0.269219
-0.257023
0.216739
0.215323
0.100253
0.123375
0.115155
-0.380527
-0.358357
-0.248889
0.014256
-0.579857
0.227567
0.226708
0.189076
0.169660
-0.557746
-0.602116
-0.502361
0.179133
0.182177
0.070452
0.056729
0.057870
0.058807
0.166212
0.514147
-0.250621
0.116422
0.017210
0.049635
-0.036092
-0.411217
-0.360649
0.417303
0.010923
-0.396875
0.153194
0.189890
-0.333491
-0.360927
-0.411799
-0.433255
-0.409686
-0.539656
0.142241
0.127969
-0.100440
-0.151825
-0.133670
-0.538257
-0.440359
-0.698303
0.136785
0.133501
0.128876
0.128121
0.129138
-0.549588
0.063153
-0.308793
-0.276271
-0.487596
-0.538494
-0.409277
-0.352089
-0.355320
-0.260801
-0.034175
-0.348062
-0.647209
-0.056172
-0.267032
-0.289640
-0.345983
-0.383246
-0.318568
0.130644
0.003392
0.000794
-0.358976
-0.345615
-0.013790
0.060813
-0.565063
-0.586523
-0.572379
0.057696
-0.377030
0.210438
0.195936
-0.005710
-0.413864
-0.425657
-0.425954
-0.486163
-0.484008
-0.071702
-0.261285
0.259134
0.284043
0.010207
-0.081759
-0.038354
-0.064000
-0.080337
0.085910
-0.051699
-0.090156
0.305511
-0.300131
-0.453341
-0.446742
0.179439
0.033740
0.042944
0.318978
0.047052
-0.025573
-0.110313
-0.683642
-0.692365
-0.305058
-0.316561
-0.450032
-0.483887
-0.463912
0.301479
-0.472395
-0.404018
-0.470910
0.193064
-0.352561
-0.101482
-0.091990
-0.482266
-0.026455
-0.045558
0.032494
-0.418932
-0.436149
0.114567
0.129491
0.142184
0.148459
0.130967
-0.042692
-0.797501
-0.359507
-0.429386
-0.314530
-0.095971
-0.299770
-0.303870
0.052269
0.061529
-0.326495
-0.093813
-0.010753
-0.030532
0.069266
-0.023500
-0.015033
-0.015615
-0.008055
-0.437979
-0.483045
-0.482120
0.167692
0.162933
0.178272
-0.449001
-0.447223
-0.019613
-0.504951
-0.510786
-0.005164
-0.000695
0.195068
-0.008548
-0.396328
-0.484104
-0.504736
-0.522297
-0.005259
-0.448045
-0.033404
-0.038859
-0.637964
-0.640951
0.007132
-0.123727
-0.017976
-0.451998
0.021515
-0.006900
0.017508
-0.584555
-0.589042
0.045581
-0.488856
-0.484377
-0.563738
-0.588849
-0.473050
-0.457760
-0.388528
-0.367593
0.106769
0.114102
0.116407
-0.547483
-0.539226
-0.042071
-0.041351
-0.554952
-0.558020
-0.572540
-0.324315
-0.316534
-0.437467
-0.543617
0.187887
0.179625
-0.019110
-0.542563
-0.544603
-0.473457
-0.459275
-0.441143
-0.029117
-0.023742
0.095331
-0.018242
-0.506550
-0.495989
-0.467537
-0.250797
-0.238042
0.011747
0.005502
-0.538684
0.010270
0.010980
-0.356249
-0.438304
-0.011133
-0.022566
-0.473680
-0.462615
-0.044903
0.055126
0.054390
0.139620
-0.399428
0.136510
-0.108095
0.207946
0.214296
-0.556665
-0.540530
-0.295207
-0.288405
-0.328061
-0.333172
-0.012894
0.178120
0.018871
-0.381076
0.128780
-0.493046
0.121483
0.084567
0.091389
-0.483816
0.172899
0.058305
-0.010493
0.090246
0.081102
-0.240710
0.067091
-0.867188
-0.812952
-0.852699
-0.565909
0.207228
0.097958
0.113262
0.100663
-0.007602
-0.676105
0.227715
-0.566574
-0.527554
-0.517242
-0.020028
0.001746
-0.012892
0.114853
0.034715
-0.407568
-0.393839
-0.984576
-0.018606
-0.032606
0.027288
-1.052307
-1.063117
-0.395008
0.026203
0.082515
0.031742
-0.080088
-0.002039
-0.144827
-0.210239
-0.425826
-0.157605
-0.461648
-0.129238
0.086262
0.136937
0.117927
0.078130
0.222165
0.069389
-0.513948
-0.529051
-0.528943
0.437945
0.389308
-0.005184
0.078464
-0.488165
-0.505743
-0.514842
0.023380
0.036674
0.026317
0.030377
-0.407360
-0.033438
0.221220
0.065179
-0.394431
-0.469972
-0.705978
-0.116096
0.051594
0.404438
0.348319
-0.598984
-0.633234
-0.664583
0.203373
0.187106
-0.511248
-0.333123
-0.011120
-0.017876
-0.469273
-0.014374
-0.266020
-0.393667
0.218990
0.265983
-0.146727
-0.147553
-0.191280
-0.525971
-0.081637
-0.019628
-0.013763
-0.528947
0.448139
-0.828768
0.022024
0.019994
-0.643304
0.136926
0.110462
0.071392
-0.385547
0.079728
-0.046011
-0.474115
0.157776
-0.453889
-0.018568
-0.042658
0.009522
-0.254525
0.040771
-0.425976
-0.213487
-0.040444
-0.039338
-0.442932
0.338876
0.114305
-0.406397
-0.406479
-0.070749
-0.092270
-0.887819
-0.948510
-0.897277
-0.461086
-0.540310
0.040051
-0.586021
0.008046
0.140761
0.145251
-0.276389
-0.585566
-0.625968
-0.358189
0.192841
0.179951
0.062259
0.050172
-0.352619
-0.424914
-0.610871
-0.623036
0.074684
-0.412019
-0.146964
-0.150836
-0.553723
-0.709862
0.075287
0.046733
0.118244
0.086334
-0.152034
0.168159
0.120657
-0.097349
-0.479396
-0.502615
0.099346
0.077367
-0.489612
0.105836
-0.184380
-0.524086
0.156437
-0.379657
-0.529854
0.154634
0.129116
-0.343197
-0.339322
-0.514348
-0.485135
0.155114
0.159676
0.167031
-0.050493
0.062042
-0.228355
-0.355015
-0.535014
-0.139085
0.055746
-0.356107
-0.514209
0.040219
0.164842
-0.026028
-0.000003
-0.009088
0.166422
0.260566
-0.303697
-0.298407
-0.383896
-0.629625
0.093285
-0.495321
-0.062416
-0.059082
-0.266958
-0.036598
-0.541778
0.133943
-0.493478
-0.160415
0.164035
-0.499115
-0.380692
-0.330030
-0.540775
-0.323970
-0.299979
-0.528767
0.151368
-0.324965
-0.285423
-0.070915
-0.149421
-0.111786
-0.333092
-0.319433
0.061277
-0.497344
-0.484249
-0.084091
-0.257671
-0.062414
-0.365501
-0.443124
-0.362440
-0.412376
-0.327931
-0.092052
-0.444481
-0.341303
-0.138858
-0.253323
-0.482524
0.163292
0.034693
-0.298794
-0.345980
-0.320344
-0.113140
0.009167
0.026637
-0.327351
-0.058992
-0.387606
-0.429069
-0.083033
0.073094
0.096638
0.115038
0.186052
-0.532796
-0.003966
-0.495170
-0.218689
-0.503323
0.084616
-0.137515
0.072745
-0.545834
0.042423
0.017591
0.009677
-0.454549
-0.083235
-0.391393
-0.444545
-0.265513
-0.153485
-0.536614
-0.013221
0.106575
-0.357385
-0.466997
-0.046186
SCALARS UY float 1
LOOKUP_TABLE default
-0.000007
-0.000007
-1.484996
-1.484998
-0.245422
-0.960456
-0.000001
-0.000002
-0.000002
-0.000002
-0.000002
-0.000002
-0.000002
-0.000002
-0.000002
-0.000002
-0.000002
-0.000002
-0.000002
-0.000002
-0.000002
-0.000001
-0.098233
-0.172180
-0.233709
-0.291936
-0.350980
-0.411644
-0.474626
-0.537656
-0.597431
-0.659410
-0.702093
-0.741287
-0.788661
-0.715633
-1.227029
-1.354553
-1.484998
-1.484998
-1.484998
-1.484998
-1.484998
-1.484998
-1.484998
-1.484998
-1.484998
-1.484998
-1.484998
-1.484998
-1.484998
-1.484998
-1.484998
-1.484998
-1.398064
-1.306348
-1.215026
-1.134896
-1.056723
-0.988056
-0.924535
-0.863440
-0.807800
-0.757481
-0.711832
-0.671336
-0.616120
-0.505850
-0.327996
-0.153802
-0.252598
-0.262560
-0.287934
-0.296775
-0.306800
-0.312707
-0.322271
-0.323879
-0.321475
-0.334549
-0.340087
-0.345042
-0.353981
-0.375757
-0.390696
-0.405600
-0.399757
-0.412197
-0.407630
-0.414674
-0.424526
-0.436129
-0.445689
-0.449893
-0.457453
-0.469412
-0.480927
-0.494397
-0.501732
-0.513662
-0.519299
-0.527630
-0.540081
-0.547728
-0.561648
-0.573781
-0.585545
-0.608371
-0.607128
-0.622181
-0.628089
-0.642104
-0.652357
-0.692077
-0.701720
-0.714979
-0.726335
-0.749544
-0.767277
-0.780143
-0.795013
-0.808835
-0.814321
-0.831666
-0.840920
-0.857516
-0.867867
-0.879005
-0.889000
-0.894570
-0.906637
-0.913212
-0.962426
-0.963406
-0.972621
-0.993892
-0.031901
-0.017119
-0.038939
-0.834231
-0.876933
-0.883425
-0.020548
-0.294727
-0.317439
-0.261470
-0.070238
-0.080098
-0.081548
-0.091057
-0.220514
-0.205854
-0.219443
-0.795955
-0.793696
-0.805995
-0.472879
-0.536657
-0.513665
-0.621500
-0.613243
-0.698583
-0.799861
-0.263417
-0.226335
-0.974056
-0.988189
-0.962524
-0.982046
-0.968802
-0.988553
-0.980238
-0.011508
-0.027556
-0.013407
-1.418454
-1.359835
-1.360773
-0.601872
-0.554598
-1.308704
-0.488934
-0.528496
-0.554578
-0.556429
-0.798808
-0.790858
-0.799249
-0.175564
-0.164478
-0.165438
-0.785634
-0.368670
-0.398295
-0.410264
-0.653063
-0.622622
-0.627735
-0.026421
-0.554957
-0.497169
-0.516634
-0.025378
-0.018021
-0.427116
-0.031390
-0.410496
-0.430982
-0.352999
-0.270558
-0.269180
-0.260428
-0.707928
-0.710468
-0.689354
-0.256372
-0.728111
-0.086355
-0.089808
-0.080894
-0.098698
-0.370833
-0.355556
-0.351497
-0.337530
-0.547868
-0.537204
-0.569333