# vtk DataFile Version 2.0
Test
ASCII
DATASET POLYDATA
POINTS 1818 float
0.000000 0.000000 0.000000
1.000000 0.000000 0.000000
1.000000 1.000000 0.000000
0.000000 1.000000 0.000000
0.300000 0.330000 0.000000
0.700000 0.680000 0.000000
0.058824 0.000000 0.000000
0.117647 0.000000 0.000000
0.176471 0.000000 0.000000
0.235294 0.000000 0.000000
0.294118 0.000000 0.000000
0.352941 0.000000 0.000000
0.411765 0.000000 0.000000
0.470588 0.000000 0.000000
0.529412 0.000000 0.000000
0.588235 0.000000 0.000000
0.647059 0.000000 0.000000
0.705882 0.000000 0.000000
0.764706 0.000000 0.000000
0.823529 0.000000 0.000000
0.882353 0.000000 0.000000
0.941176 0.000000 0.000000
1.000000 0.058824 0.000000
1.000000 0.117647 0.000000
1.000000 0.176471 0.000000
1.000000 0.235294 0.000000
1.000000 0.294118 0.000000
1.000000 0.352941 0.000000
1.000000 0.411765 0.000000
1.000000 0.470588 0.000000
1.000000 0.529412 0.000000
1.000000 0.588235 0.000000
1.000000 0.647059 0.000000
1.000000 0.705882 0.000000
1.000000 0.764706 0.000000
1.000000 0.823529 0.000000
1.000000 0.882353 0.000000
1.000000 0.941176 0.000000
0.941176 1.000000 0.000000
0.882353 1.000000 0.000000
0.823529 1.000000 0.000000
0.764706 1.000000 0.000000
0.705882 1.000000 0.000000
0.647059 1.000000 0.000000
0.588235 1.000000 0.000000
0.529412 1.000000 0.000000
0.470588 1.000000 0.000000
0.411765 1.000000 0.000000
0.352941 1.000000 0.000000
0.294118 1.000000 0.000000
0.235294 1.000000 0.000000
0.176471 1.000000 0.000000
0.117647 1.000000 0.000000
0.058824 1.000000 0.000000
0.000000 0.941176 0.000000
0.000000 0.882353 0.000000
0.000000 0.823529 0.000000
0.000000 0.764706 0.000000
0.000000 0.705882 0.000000
0.000000 0.647059 0.000000
0.000000 0.588235 0.000000
0.000000 0.529412 0.000000
0.000000 0.470588 0.000000
0.000000 0.411765 0.000000
0.000000 0.352941 0.000000
0.000000 0.294118 0.000000
0.000000 0.235294 0.000000
0.000000 0.176471 0.000000
0.000000 0.117647 0.000000
0.000000 0.058824 0.000000
0.305970 0.335224 0.000000
0.311940 0.340448 0.000000
0.317910 0.345672 0.000000
0.323881 0.350896 0.000000
0.329851 0.356119 0.000000
0.335821 0.361343 0.000000
0.341791 0.366567 0.000000
0.347761 0.371791 0.000000
0.353731 0.377015 0.000000
0.359701 0.382239 0.000000
0.365672 0.387463 0.000000
0.371642 0.392687 0.000000
0.377612 0.397910 0.000000
0.383582 0.403134 0.000000
0.389552 0.408358 0.000000
0.395522 0.413582 0.000000
0.401493 0.418806 0.000000
0.407463 0.424030 0.000000
0.413433 0.429254 0.000000
0.419403 0.434478 0.000000
0.425373 0.439701 0.000000
0.431343 0.444925 0.000000
0.437313 0.450149 0.000000
0.443284 0.455373 0.000000
0.449254 0.460597 0.000000
0.455224 0.465821 0.000000
0.461194 0.471045 0.000000
0.467164 0.476269 0.000000
0.473134 0.481493 0.000000
0.479104 0.486716 0.000000
0.485075 0.491940 0.000000
0.491045 0.497164 0.000000
0.497015 0.502388 0.000000
0.502985 0.507612 0.000000
0.508955 0.512836 0.000000
0.514925 0.518060 0.000000
0.520896 0.523284 0.000000
0.526866 0.528507 0.000000
0.532836 0.533731 0.000000
0.538806 0.538955 0.000000
0.544776 0.544179 0.000000
0.550746 0.549403 0.000000
0.556716 0.554627 0.000000
0.562687 0.559851 0.000000
0.568657 0.565075 0.000000
0.574627 0.570299 0.000000
0.580597 0.575522 0.000000
0.586567 0.580746 0.000000
0.592537 0.585970 0.000000
0.598507 0.591194 0.000000
0.604478 0.596418 0.000000
0.610448 0.601642 0.000000
0.616418 0.606866 0.000000
0.622388 0.612090 0.000000
0.628358 0.617313 0.000000
0.634328 0.622537 0.000000
0.640299 0.627761 0.000000
0.646269 0.632985 0.000000
0.652239 0.638209 0.000000
0.658209 0.643433 0.000000
0.664179 0.648657 0.000000
0.670149 0.653881 0.000000
0.676119 0.659104 0.000000
0.682090 0.664328 0.000000
0.688060 0.669552 0.000000
0.694030 0.674776 0.000000
0.516135 0.080917 0.000000
0.549338 0.042552 0.000000
0.567302 0.088709 0.000000
0.555658 0.563778 0.000000
0.559301 0.571359 0.000000
0.552318 0.570919 0.000000
0.603235 0.047100 0.000000
0.446553 0.448087 0.000000
0.438652 0.443189 0.000000
0.445116 0.440368 0.000000
0.437254 0.190586 0.000000
0.465954 0.201747 0.000000
0.439184 0.213838 0.000000
0.453137 0.228102 0.000000
0.522423 0.410182 0.000000
0.522098 0.390982 0.000000
0.537289 0.398500 0.000000
0.453388 0.527105 0.000000
0.462022 0.524948 0.000000
0.461218 0.533993 0.000000
0.324300 0.374550 0.000000
0.319287 0.386214 0.000000
0.314834 0.375138 0.000000
0.668809 0.628853 0.000000
0.677366 0.632907 0.000000
0.668274 0.639611 0.000000
0.469934 0.529282 0.000000
0.439703 0.436699 0.000000
0.446608 0.432083 0.000000
0.542854 0.633425 0.000000
0.535117 0.647070 0.000000
0.524302 0.633157 0.000000
0.519372 0.648877 0.000000
0.586338 0.611293 0.000000
0.591638 0.624149 0.000000
0.575478 0.621479 0.000000
0.437962 0.035513 0.000000
0.421505 0.085456 0.000000
0.394924 0.044162 0.000000
0.445207 0.955749 0.000000
0.429168 0.919510 0.000000
0.464409 0.914226 0.000000
0.317150 0.400904 0.000000
0.328626 0.395860 0.000000
0.439616 0.884412 0.000000
0.330406 0.381773 0.000000
0.676842 0.602700 0.000000
0.674982 0.614185 0.000000
0.665930 0.611798 0.000000
0.414707 0.535036 0.000000
0.420123 0.526072 0.000000
0.425338 0.533771 0.000000
0.398407 0.375558 0.000000
0.393804 0.363255 0.000000
0.407284 0.365452 0.000000
0.407758 0.523337 0.000000
0.899969 0.377867 0.000000
0.945915 0.378245 0.000000
0.914158 0.409130 0.000000
0.358219 0.436142 0.000000
0.361390 0.425428 0.000000
0.369309 0.432300 0.000000
0.465999 0.075074 0.000000
0.269944 0.367761 0.000000
0.266521 0.352125 0.000000
0.283474 0.357667 0.000000
0.385889 0.083020 0.000000
0.359482 0.060981 0.000000
0.279658 0.346766 0.000000
0.363604 0.104040 0.000000
0.511115 0.503731 0.000000
0.503243 0.499914 0.000000
0.509146 0.494910 0.000000
0.513188 0.475753 0.000000
0.504957 0.474656 0.000000
0.511959 0.464784 0.000000
0.311863 0.447505 0.000000
0.293019 0.442078 0.000000
0.305555 0.431691 0.000000
0.499204 0.464990 0.000000
0.293855 0.459576 0.000000
0.396676 0.236328 0.000000
0.371014 0.247362 0.000000
0.373003 0.229199 0.000000
0.384478 0.261522 0.000000
0.555704 0.523331 0.000000
0.551313 0.515879 0.000000
0.562752 0.515269 0.000000
0.554954 0.506854 0.000000
0.804236 0.611103 0.000000
0.819351 0.593503 0.000000
0.832061 0.615776 0.000000
0.509908 0.485173 0.000000
0.129738 0.481190 0.000000
0.110722 0.443736 0.000000
0.154857 0.452634 0.000000
0.089738 0.485299 0.000000
0.396427 0.153886 0.000000
0.393058 0.115469 0.000000
0.420333 0.126587 0.000000
0.442628 0.413512 0.000000
0.434815 0.404283 0.000000
0.446816 0.400259 0.000000
0.499770 0.482873 0.000000
0.353883 0.235057 0.000000
0.351360 0.254011 0.000000
0.332147 0.240870 0.000000
0.112307 0.405527 0.000000
0.140355 0.392788 0.000000
0.142004 0.423465 0.000000
0.334868 0.263052 0.000000
0.551239 0.594093 0.000000
0.560217 0.601969 0.000000
0.546711 0.604614 0.000000
0.398510 0.570197 0.000000
0.387124 0.557316 0.000000
0.399978 0.555748 0.000000
0.705281 0.743146 0.000000
0.722930 0.758853 0.000000
0.697202 0.758074 0.000000
0.380190 0.572638 0.000000
0.278345 0.431947 0.000000
0.292575 0.428097 0.000000
0.470820 0.540616 0.000000
0.478213 0.533042 0.000000
0.480161 0.543190 0.000000
0.415268 0.299334 0.000000
0.412465 0.313515 0.000000
0.400419 0.297680 0.000000
0.396495 0.317117 0.000000
0.718655 0.732879 0.000000
0.709319 0.677587 0.000000
0.715709 0.670111 0.000000
0.719283 0.682820 0.000000
0.212992 0.453899 0.000000
0.184619 0.470046 0.000000
0.186665 0.440862 0.000000
0.452307 0.386568 0.000000
0.460371 0.397715 0.000000
0.478664 0.456068 0.000000
0.476179 0.462123 0.000000
0.471250 0.456445 0.000000
0.464654 0.388544 0.000000
0.483415 0.461045 0.000000
0.357146 0.449596 0.000000
0.344653 0.443966 0.000000
0.554562 0.459423 0.000000
0.543333 0.457517 0.000000
0.553850 0.449505 0.000000
0.543131 0.445036 0.000000
0.347312 0.459318 0.000000
0.781088 0.538918 0.000000
0.810909 0.534152 0.000000
0.799399 0.553968 0.000000
0.402869 0.534333 0.000000
0.408011 0.546121 0.000000
0.703844 0.670118 0.000000
0.552234 0.794299 0.000000
0.528593 0.795589 0.000000
0.539188 0.770312 0.000000
0.596088 0.518714 0.000000
0.593029 0.508081 0.000000
0.604120 0.510731 0.000000
0.384880 0.468703 0.000000
0.382270 0.455963 0.000000
0.394062 0.458803 0.000000
0.374729 0.466839 0.000000
0.340939 0.294790 0.000000
0.324530 0.290188 0.000000
0.338473 0.279923 0.000000
0.465367 0.336545 0.000000
0.477337 0.352846 0.000000
0.459495 0.350024 0.000000
0.584947 0.516440 0.000000
0.326802 0.302636 0.000000
0.945343 0.420397 0.000000
0.779746 0.749037 0.000000
0.771533 0.774140 0.000000
0.758291 0.749848 0.000000
0.743435 0.765852 0.000000
0.751942 0.297541 0.000000
0.784264 0.292048 0.000000
0.772562 0.330207 0.000000
0.812744 0.305799 0.000000
0.655547 0.494535 0.000000
0.649767 0.472522 0.000000
0.671966 0.480244 0.000000
0.612062 0.502007 0.000000
0.616789 0.515227 0.000000
0.403059 0.898561 0.000000
0.391512 0.946883 0.000000
0.625780 0.504699 0.000000
0.635988 0.491275 0.000000
0.596252 0.650380 0.000000
0.583401 0.655132 0.000000
0.583737 0.644777 0.000000
0.713099 0.416502 0.000000
0.708474 0.388943 0.000000
0.733625 0.389568 0.000000
0.684835 0.406222 0.000000
0.656936 0.416423 0.000000
0.633624 0.425116 0.000000
0.634362 0.400237 0.000000
0.646884 0.740682 0.000000
0.654954 0.726002 0.000000
0.663305 0.741855 0.000000
0.732481 0.441235 0.000000
0.751303 0.460839 0.000000
0.721338 0.462235 0.000000
0.759622 0.437863 0.000000
0.462761 0.363156 0.000000
0.373644 0.622389 0.000000
0.346217 0.613642 0.000000
0.370315 0.594521 0.000000
0.351411 0.640635 0.000000
0.695337 0.690220 0.000000
0.705202 0.700133 0.000000
0.692303 0.700990 0.000000
0.521365 0.516400 0.000000
0.522992 0.510597 0.000000
0.527633 0.513574 0.000000
0.291567 0.329512 0.000000
0.294927 0.318154 0.000000
0.365771 0.366553 0.000000
0.366135 0.358691 0.000000
0.374180 0.368122 0.000000
0.408232 0.327056 0.000000
0.423479 0.328280 0.000000
0.411272 0.339740 0.000000
0.664110 0.670607 0.000000
0.667245 0.662649 0.000000
[...]
POINT_DATA 1818
SCALARS UX float 1
LOOKUP_TABLE default
-0.000007
0.000005
0.625016
-1.828919
-0.192165
0.121275
0.000001
-0.000001
-0.000000
-0.000000
-0.000000
-0.000000
-0.000000
-0.000000
-0.000000
0.000000
0.000000
0.000000
0.000000
0.000000
0.000001
-0.000000
0.064359
0.125401
0.186924
0.259647
0.319430
0.384910
0.443032
0.491610
0.539498
0.584601
0.634574
0.684626
0.745686
0.765924
0.734476
0.682937
0.428321
0.246980
0.064036
-0.109318
-0.266645
-0.404418
-0.546732
-0.686406
-0.827383
-0.991820
-1.164873
-1.337467
-1.499500
-1.644170
-1.778189
-1.765348
-1.805918
-1.715403
-1.654885
-1.601609
-1.514120
-1.359808
-1.236016
-1.116586
-1.000274
-0.886316
-0.777622
-0.662278
-0.571065
-0.431701
-0.273338
-0.128955
-0.188184
-0.185671
-0.183447
-0.179258
-0.177411
-0.177873
-0.178570
-0.178890
-0.178552
-0.179270
-0.180872
-0.182879
-0.183938
-0.185510
-0.186347
-0.187144
-0.189020
-0.190570
-0.192155
-0.193106
-0.193867
-0.194704
-0.195804
-0.196815
-0.198649
-0.194138
-0.191927
-0.192957
-0.194631
-0.190622
-0.190723
-0.182834
-0.222941
-0.220368
-0.226404
-0.224930
-0.218330
-0.194916
-0.172806
-0.128531
-0.183839
-0.175560
-0.136516
-0.144593
-0.158218
-0.152508
-0.141847
-0.133596
-0.117818
-0.106788
-0.090848
-0.079204
-0.065164
-0.056974
-0.068344
-0.081720
-0.014893
-0.013217
0.003549
0.019664
0.037537
0.054591
0.070531
0.086680
0.099443
0.113431
-0.002336
-0.001097
-0.003010
-0.231012
-0.241523
-0.265559
-0.001420
-0.139355
-0.142828
-0.129059
-0.010720
-0.014126
-0.014992
-0.018925
-0.077972
-0.070757
-0.069908
-0.442705
-0.418699
-0.437081
-0.294688
-0.366375
-0.343586
0.105659
0.134611
0.085051
-0.407427
-0.129641
-0.118744
-0.387859
-0.420639
-0.434597
-0.463647
-0.235618
-0.239464
-0.285646
-0.000984
-0.000305
-0.000774
-0.865056
-0.890526
-0.797072
-0.408497
-0.367892
-0.853915
-0.304035
0.142806
0.141360
0.111648
-0.525114
-0.500944
-0.507244
-0.090673
-0.084536
-0.080394
-0.512509
0.285766
0.343948
0.333799
-0.409499
-0.369870
-0.370773
-0.001104
-0.345375
-0.308113
-0.286849
-0.002527
-0.003075
-0.267875
-0.002705
-0.164052
-0.158256
-0.133301
-0.115039
-0.123365
-0.108660
-0.491816
-0.504178
-0.470789
-0.118623
-0.537724
-0.018537
-0.020491
-0.012860
-0.030419
-0.094964
-0.097169
-0.072804
-0.083031
0.363554
0.373003
0.403889
-0.125370
-0.829045
-0.780930
-0.737650
-0.892211
-0.004066
-0.002549
-0.003078
-0.108043
-0.105776
-0.097855
-0.137345
-0.008755
-0.025761
-0.013461
-0.702238
-0.629633
-0.693753
-0.037123
-0.319008
-0.305862
-0.347035
-0.620038
-0.619507
-0.588162
-0.006662
0.024254
-0.047852
-0.660050
-0.503275
-0.476520
-0.428434
-0.395299
-0.416857
-0.050700
-0.056755
-0.051844
-0.062214
0.049496
0.165704
0.197912
0.191104
-0.646360
-0.726802
-0.662024
-0.084735
-0.092700
-0.126527
-0.135173
-0.133880
-0.085155
-0.128667
-0.435637
-0.438173
-0.074199
-0.081814
-0.074087
-0.080497
-0.474900
0.267927
0.309173
0.309361
-0.541969
-0.561896
0.159549
-0.488827
-0.562103
-0.510991
-0.028171
-0.033765
-0.020285
-0.434748
-0.410462
-0.389470
-0.450011
-0.072878
-0.073852
-0.055251
-0.057844
-0.059945
-0.062042
-0.042505
-0.084135
0.383268
0.222615
0.156490
0.152177
0.080521
0.035613
0.056842
0.073477
0.096952
0.040197
0.020874
0.054866
-0.013651
0.000084
-0.952768
-1.013585
0.006171
0.012281
-0.251374
-0.293675
-0.285059
0.069057
0.047713
0.074902
0.031891
0.007662
-0.012151
-0.017002
-0.171999
-0.134273
-0.125105
0.112598
0.152242
0.112065
0.146741
-0.069063
-0.765155
-0.804904
-0.720625
-0.839339
0.045540
0.063460
0.012341
-0.168390
-0.152397
-0.148301
-0.211647
-0.165563
-0.097689
-0.089209
-0.091483
-0.065330
-0.061493
-0.070897
-0.039062
-0.013895
-0.000194
-0.481222
-0.526579
-0.512226
-0.559784
-0.074136
-0.100260
-0.133913
-0.161877
-0.029905
-0.025641
-0.035244
-0.116242
-0.122867
-0.098372
-0.117333
-0.142105
-0.142186
-0.454575
-0.498274
-0.477256
-0.124942
-0.151735
-0.146625
-0.053185
-0.002936
0.054969
-0.041240
0.015254
-0.006021
-0.084315
-0.343761
-0.309247
-0.315211
-0.329671
-0.454919
-0.430042
-0.451437
-0.372684
-0.391510
-0.335956
-0.132453
-0.137741
-0.470433
-0.045319
-0.040787
-0.655103
-0.589692
-0.618388
-0.160568
-1.405612
-1.300286
-1.368340
-1.272103
-0.314941
-0.387887
-0.416430
-0.398749
-0.397071
-0.230328
-0.225746
0.182476
0.190961
0.160764
0.214421
-0.534209
-0.505945
-0.462823
-0.165912
-0.199825
-0.143306
-0.060915
-0.043365
-0.010228
0.013665
-0.098440
-0.162547
-0.219105
0.230214
0.232747
-0.222251
-0.372249
-0.364875
-0.145869
-0.191378
-0.190806
-0.385402
-0.230538
-0.224466
-0.485645
-0.407288
-0.453173
-0.245170
-0.263844
-0.059367
-0.050869
-0.082827
-0.075060
-0.069270
-0.081250
-0.048867
-0.058508
-0.060188
-1.246518
-1.144238
-1.120140
-1.333324
-1.310001
-1.386503
-1.230393
-0.067419
-0.111610
-0.207134
-0.205928
-0.332823
-0.362445
-0.327324
-0.360152
-0.308748
-0.332345
-0.305777
-0.363435
-0.390152
-0.345989
-0.378657
-0.389879
-0.412850
-0.418820
-0.453848
-0.126018
-0.143628
-0.142171
-0.034659
-0.040926
-0.033263
-0.045592
0.177534
0.128736
0.146627
0.210821
0.228705
-0.210140
-0.216844
-0.256717
-0.084566
-0.065440
-0.106037
-0.389675
-0.382260
-0.418389
-0.161894
-0.106060
-0.348987
-0.125163
-0.165426
-0.200452
-0.085173
-0.092558
-0.099099
-0.078188
-0.066348
-0.067504
-0.051955
-0.040922
-0.211839
-0.053689
-1.231651
-1.207302
-1.221484
-1.140237
-1.150306
-0.039154
-0.044090
-0.089976
-0.087212
-0.095367
-0.079831
-0.066782
-0.851987
-0.370686
-0.314186
-0.406375
-0.300106
-0.308518
-0.367346
-0.293516
-0.017878
-0.014395
0.014178
-0.036552
-0.069045
0.120021
-0.088226
-0.080569
-0.103092
-0.061400
-0.090830
-0.430053
-0.392871
-0.408351
-0.284189
-0.326018
-1.192250
-0.055542
-0.048281
-0.059307
-0.088803
-0.076874
-0.645584
-0.567141
-0.574240
-0.075503
-0.046339
-0.571948
-0.614440
-0.578136
-0.330759
-0.300943
-0.308358
-0.151607
-0.124685
-0.137712
-0.132597
-0.161190
0.101416
0.085052
-0.319641
-0.245010
-0.265461
-0.084280
-0.078281
-0.710671
-0.672311
-0.726130
-0.074318
-0.016961
-0.017104
-0.012873
-0.765586
-0.808746
-0.747718
-0.142877
-0.179468
-0.110110
-0.035063
-0.056492
-0.061459
-1.523216
-1.354197
-0.106543
-0.365398
-0.429505
-0.114499
-0.072472
-0.059489
-1.408114
-0.067007
-0.087914
-0.418762
-0.432185
0.141076
0.173949
0.166162
-0.435756
-0.096197
-0.102268
0.039327
-0.466141
-0.444391
-0.469346
-0.165071
-0.157381
-0.030828
-0.455945
-0.104638
-0.104909
-0.428159
-0.363177
-0.369781
-0.323012
-0.413841
0.297101
0.246712
0.248816
-0.000718
-0.021301
-0.030745
-0.802851
-0.724903
-0.719341
-0.047124
-0.040239
-0.145517
-0.175059
-0.142948
-0.135921
-0.005080
-0.425863
-0.404597
-0.165896
-0.161626
-0.318127
0.263543
0.340570
0.291478
0.430029
0.392036
-0.011956
-0.005531
-0.008826
-0.360013
-0.140159
-0.068182
-0.063544
-0.066514
-0.247687
-0.305972
-0.325590
-0.287852
0.012734
-0.240479
-0.227038
-0.502542
-0.526270
-0.487478
-0.482856
-0.473965
-0.501135
-0.283429
0.221181
0.219040
0.243001
-0.487703
-0.010079
0.281415
0.030169
0.021533
-0.118488
-0.100843
-0.122943
-0.096154
-0.108784
-0.079694
-0.105811
-0.262695
-0.142359
-0.277566
-0.281657
-1.077980
-1.090868
-0.050685
-0.047084
-0.121365
-0.158522
-0.107523
-0.162260
-1.064411
-0.211645
-1.005246
-1.070996
-1.017802
-0.208333
0.162700
0.142166
0.120167
0.113435
-0.059684
-0.055879
-0.336451
-0.286832
-0.285783
0.096688
0.100242
0.080362
0.076123
0.144065
0.157155
-1.194469
-1.144429
0.238240
-1.626917
-1.540623
-1.653310
0.277312
0.273159
0.262116
-0.608893
-0.629454
-0.522211
0.329167
0.295446
0.087006
0.030767
0.065305
0.019717
-0.706224
-0.055631
-0.061397
-0.058598
0.315568
0.365185
0.383030
-1.516449
-1.644061
-1.584622
0.398352
-0.251538
-0.244030
-0.285966
-0.295052
-0.301736
-0.425592
0.000718
0.001079
0.002837
0.550584
0.508897
0.581975
0.490106
0.585552
0.600336
0.649999
-0.411169
-0.444993
-0.646376
-0.547338
-0.542105
-0.515975
-0.025282
-0.048295
-0.621502
-0.626940
-0.704490
-0.587524
-0.546579
-0.788969
-0.025091
-0.037997
-1.188128
-0.005940
-1.022645
-0.942736
-0.969257
0.452648
0.509140
-0.231566
-0.211322
-0.103081
0.230268
0.115804
0.266355
0.042988
-0.134663
0.189408
-0.078459
-0.065142
-0.224027
-0.303987
-0.328939
-0.242275
-0.655518
-0.696599
-0.631390
-0.958931
-0.872865
-0.000877
-0.003727
0.003581
0.000802
0.010968
-0.173034
-0.137679
-0.176813
-0.778398
-0.000633
0.002231
-0.204599
-0.234429
-0.231346
0.518982
0.463694
-0.683216
0.281961
0.264575
0.259384
0.299421
-0.855877
-0.785330
-0.785391
0.323808
-0.003161
0.455926
-0.041722
-0.007346
-0.024206
-0.020577
-0.246462
-0.001424
-0.006249
-0.309971
-0.250568
-0.276955
0.316933
0.199675
-0.064062
-0.879995
-0.907123
-0.222060
-0.267054
0.006443
0.017756
0.001360
0.027552
-0.433006
-0.455460
-1.016222
-0.704151
0.027595
0.019293
-0.007142
-0.012937
-0.007758
0.015488
0.019982
-1.005201
-0.999860
-1.086550
-0.943698
-0.451491
-0.854473
-0.930990
-0.934937
-0.847547
-0.787590
-0.422921
-0.383141
-0.918949
-0.866524
-0.381460
-0.032582
-0.018338
-0.430059
-0.345793
-1.265481
-1.331780
-1.113293
-0.093711
-0.092022
-0.085129
-0.501191
-0.533077
-0.073218
-0.074024
-0.724661
-0.711764
-0.660232
-0.586842
-0.542478
-0.566850
-0.106025
-0.147871
-0.934787
-0.087206
-0.017846
-0.017528
-0.628367
-0.911825
-0.944594
-0.970127
-0.645435
-0.660655
0.037869
0.014811
-0.893944
-0.955624
-0.941017
-1.007448
-0.025519
-0.026278
-0.504432
0.184883
-0.143747
-0.122035
-0.023701
-0.034483
-0.028318
-0.241731
-0.033790
-0.874380
-0.606158
-0.635574
-0.655941
-0.712630
-0.777871
-0.839018
-0.798305
-0.069022
-0.072092
-0.878708
-0.059093
0.058008
0.050716
-1.022887
-0.922900
-1.021398
-0.384158
-0.451188
-0.404582
-0.408263
0.388475
0.440671
0.388584
0.345505
0.350876
-0.496500
-0.478449
-0.879307
-0.817168
-0.935009
-0.016200
0.334745
0.224347
0.431267
-0.968322
-1.045553
-1.177486
-1.168878
-1.091254
-0.403976
-0.533259
-1.096790
-0.068563
-0.078912
-0.063923
-0.367802
-0.338631
-0.410003
0.215450
0.203121
0.237989
-0.223230
0.344875
0.331793
-0.618072
-0.361837
-0.139921
-1.536120
-1.598151
-0.625647
-0.719336
0.011766
-0.000662
-0.007687
-0.084992
-0.071987
0.031522
-0.063621
0.049823
-0.437474
-0.515521
0.232582
0.241354
0.070665
-0.016253
-0.080009
0.356858
0.288690
0.370556
0.203191
-0.198902
-0.197124
-0.162913
-0.158306
-0.062142
-0.458871
-0.542713
-0.075586
-1.388241
-1.249440
-1.267583
-0.451870
-0.409166
-0.051960
-0.047741
-0.480068
-0.512907
-0.476160
-0.101780
-0.100002
-0.094428
-0.564856
-0.518864
-0.546098
-0.698042
0.260668
0.280496
0.320765
-0.429193
-0.490962
-0.505021
-0.008241
-0.006396
-0.010966
-0.542869
-0.801558
-0.008772
-0.771365
-0.481897
-0.594203
-0.604424
0.415699
-0.109278
0.118733
0.078719
-0.576628
-0.586912
-0.153555
-0.218454
-0.002067
-1.007536
-0.147566
-0.520668
-0.533243
-0.467729
-0.471461
-0.500733
-0.485283
0.097544
0.089105
0.095395
0.123139
-0.002490
-0.001211
-0.004387
-0.001555
-0.362357
-0.564601
-0.531410
-0.391871
-0.206094
0.056038
0.046281
-0.001525
0.659492
0.592574
0.449136
-0.037879
-0.008254
-0.357471
-0.453803
-0.450402
-0.431856
-0.571291
-0.085929
-0.018705
-0.090412
-0.310326
-0.105682
-0.059634
-0.052652
-0.002788
-0.041778
-0.033979
-0.047505
0.238099
-0.000363
-0.002916
-0.001583
-0.037096
-0.000007
-0.007141
-0.004343
0.305579
-0.922525
-0.997423
-0.893730
-1.023782
-1.073537
0.263514
0.167923
0.203143
0.142666
0.120901
0.113615
-0.549043
-0.079150
-0.002664
-0.003905
-0.005360
-0.078202
-0.070147
-0.081773
0.425405
0.470671
0.206500
-0.755345
-0.693383
-0.238888
-0.233692
0.027143
0.153614
0.110335
0.113062
-0.446346
-0.446534
-0.111948
-0.126562
-0.144275
-0.567336
-0.533521
-0.100168
-0.620483
-0.037338
-0.042151
-0.052263
-0.088236
-0.055219
0.234475
0.195621
-0.856881
-0.830354
-0.789361
-0.757068
-0.881407
-0.944758
-0.025434
-0.037340
-0.558516
-0.015777
-0.036090
-0.027341
0.437183
0.465279
-0.050929
-0.091088
-0.087745
-0.168937
-0.225584
-0.646903
-0.025814
-0.052294
-0.057962
-0.573854
-0.536079
0.234690
-0.006591
-0.007570
-0.017803
0.039829
-0.189199
-0.343485
-0.395714
0.137889
0.156795
0.117963
-0.321653
-0.321456
-0.269753
-0.345704
-0.014201
-0.003987
0.002139
-0.095854
-0.014860
-0.001415
0.006316
-0.330031
-0.057079
-0.004041
0.190470
0.223616
0.238303
0.173798
0.207097
0.432367
-0.402343
-0.565607
-0.596222
-0.673640
-0.609883
-0.640743
-0.717493
-0.348233
-0.005667
0.164487
0.029063
-0.334898
-0.324911
0.166442
0.188757
0.006091
-0.027184
-0.044682
-0.223853
-0.277999
-0.025504
-0.004103
-0.494520
0.189301
0.168848
0.100393
0.082524
-0.460922
-0.526280
-0.406667
0.085275
0.074880
-0.026382
-0.038850
-0.027298
-0.016589
0.075307
0.650629
-0.064219
0.041168
0.003426
-0.000629
-0.029647
-0.282664
-0.257235
0.498767
-0.044657
-0.264890
0.042653
0.067144
-0.357211
-0.440938
-0.525089
-0.549045
-0.496062
-0.857772
-0.014846
-0.039069
-0.118911
-0.150911
-0.141331
-0.809665
-0.377337
-0.708135
-0.010396
-0.006608
-0.027371
-0.003480
0.012756
-0.468357
0.033784
-0.250057
-0.146128
-0.452497
-0.436980
-0.268175
-0.245940
-0.238395
-0.227483
-0.125650
-0.324145
-0.558092
-0.116529
-0.041983
-0.080950
-0.260353
-0.260390
-0.213493
0.068609
-0.051621
-0.045210
-0.237186
-0.188439
0.150098
0.177826
-0.729375
-0.797694
-0.699330
-0.123667
-0.259417
0.116874
0.089133
-0.038695
-0.273865
-0.293127
-0.311341
-0.554192
-0.578877
-0.097697
-0.040667
0.298486
0.339483
-0.071916
-0.095701
0.006503
-0.095265
-0.099247
-0.036467
-0.089697
-0.021749
0.341114
-0.089409
-0.336150
-0.331640
0.048298
-0.130658
-0.121094
0.383427
-0.111546
-0.143338
-0.161350
-0.829703
-0.881841
-0.124564
-0.146252
-0.330069
-0.368937
-0.331290
0.367159
-0.362386
-0.270462
-0.330741
0.104516
-0.220698
-0.112605
-0.100024
-0.367816
-0.095946
-0.100596
-0.119353
-0.274129
-0.321678
-0.051201
-0.032292
-0.015766
-0.006905
-0.033104
-0.120475
-1.183440
-0.239433
-0.263784
-0.221593
-0.111454
-0.435730
-0.428349
-0.083086
-0.078583
-0.213511
-0.085120
-0.144661
-0.044351
-0.010139
-0.095960
-0.088876
-0.097496
-0.088445
-0.344885
-0.309597
-0.279483
0.030110
0.032779
0.054563
-0.349674
-0.374552
-0.087289
-0.357402
-0.354400
-0.017387
-0.009795
0.081767
-0.019964
-0.283663
-0.343097
-0.396703
-0.630956
-0.078049
-0.281578
-0.079848
-0.083740
-0.595221
-0.600658
-0.048461
-0.163698
-0.139458
-0.403622
-0.082839
-0.001212
-0.080346
-0.602954
-0.640658
-0.046774
-0.432061
-0.371528
-0.437119
-0.459355
-0.350130
-0.386430
-0.284347
-0.275432
-0.076033
-0.060781
-0.058140
-0.662085
-0.695857
-0.090109
-0.086383
-0.614600
-0.654104
-0.661021
-0.289852
-0.287852
-0.312813
-0.613714
0.074373
0.072639
-0.035877
-0.451419
-0.478666
-0.362264
-0.324282
-0.310276
-0.104662
-0.108487
-0.057724
-0.094500
-0.776510
-0.793996
-0.467293
-0.041289
-0.003737
-0.058281
-0.108546
-0.480153
-0.000176
0.000228
-0.202198
-0.274006
-0.116277
-0.118844
-0.339505
-0.304869
-0.086610
-0.097714
-0.105507
0.019797
-0.301212
0.028922
-0.144314
0.190513
0.193461
-0.472493
-0.444883
-0.123506
-0.137497
-0.182021
-0.219424
0.128347
0.074340
-0.068992
-0.265614
0.085481
-0.406351
0.056264
0.021049
0.027808
-0.409795
0.143707
0.006867
-0.123019
-0.086197
-0.098925
-0.002687
0.013571
-1.431207
-1.339063
-1.476789
-0.403646
0.198324
-0.030002
-0.015960
-0.039738
-0.007306
-0.784156
0.237077
-0.473721
-0.401187
-0.358347
-0.031020
-0.040855
-0.034866
-0.056006
-0.077253
-0.339557
-0.352572
-1.710299
0.002832
0.404541
0.523638
-1.736348
-1.759842
-0.329224
0.001919
0.033098
0.008104
0.359397
0.560018
0.155539
0.064251
-0.313093
0.126100
-0.344665
-0.137494
-0.095417
-0.016245
-0.040799
-0.097420
0.178032
0.118825
-0.384417
-0.570058
-0.605601
0.524553
0.459799
-0.005093
0.203757
-0.657998
-0.683681
-0.728382
-0.122043
-0.119295
-0.112194
-0.100938
-0.360707
-0.013343
0.142964
0.008613
-0.249930
-0.718520
-0.899364
-0.084449
0.388579
0.543346
0.481921
-1.038463
-1.116016
-0.754709
0.133183
0.111972
-0.751566
-0.171410
-0.022010
-0.019462
-0.335610
-0.024441
-0.244714
-0.300354
0.153841
0.285392
0.213456
0.147189
0.076577
-0.459118
-0.024342
-0.023763
-0.029489
-0.410983
0.541389
-1.467079
-0.099752
-0.106023
-0.624221
0.075076
-0.037026
-0.072196
-0.506025
-0.062643
-0.055129
-0.611665
0.077718
-0.567120
-0.111528
-0.120969
-0.003082
-0.202412
0.002441
-0.508693
-0.032113
0.002237
-0.003581
-0.512560
0.387547
0.046159
-0.291354
-0.289318
-0.001878
0.287137
-1.405284
-1.529845
-1.408641
-0.362183
-0.435259
0.059856
-0.972453
-0.052949
0.051741
0.046890
-0.076894
-1.058827
-1.124552
-0.224460
0.173129
0.149903
-0.121632
-0.133169
-0.251282
-0.279329
-0.682408
-0.732326
-0.110892
-0.295827
-0.146284
-0.150244
-0.575516
-1.141822
-0.001279
0.002492
-0.022320
0.015487
-0.116468
0.121670
0.059686
-0.020216
-0.348629
-0.388581
0.017906
-0.009873
-0.406078
-0.077134
0.100816
-0.418152
0.234857
-0.263457
-0.418972
0.003584
0.028894
-0.243132
-0.253460
-0.530117
-0.367168
0.006071
0.011379
0.025160
-0.089359
-0.072891
-0.117354
-0.232986
-0.371279
0.135588
-0.090658
-0.231694
-0.332923
0.039432
0.047715
-0.139466
-0.126276
-0.099337
0.114150
0.280339
-0.169700
-0.160776
-0.260467
-0.768425
0.030002
-0.456218
-0.095071
-0.089651
-0.037969
-0.098309
-0.573542
-0.012508
-0.312674
-0.157524
0.054823
-0.285347
-0.242749
-0.224136
-0.539535
-0.156141
-0.122264
-0.531484
0.007009
-0.246761
-0.053473
-0.104020
-0.146194
-0.173190
-0.198963
-0.185913
-0.084352
-0.347565
-0.318871
-0.103777
-0.081013
-0.091509
-0.238116
-0.290976
-0.257698
-0.295792
-0.261482
-0.119573
-0.290972
-0.237541
-0.143850
-0.030564
-0.378229
0.120126
0.260169
-0.112745
-0.261666
-0.248443
-0.130852
-0.110298
-0.086009
-0.264272
-0.138814
-0.246865
-0.289855
-0.138254
-0.107632
-0.073172
-0.055749
0.064621
-0.507392
-0.082940
-0.432184
-0.172698
-0.450098
-0.011580
-0.140888
-0.114844
-0.530841
-0.131951
-0.120704
-0.118865
-0.377026
-0.154584
-0.271984
-0.301227
-0.047070
-0.150768
-0.493717
-0.113322
-0.059479
-0.215742
-0.324564
-0.096733
SCALARS UY float 1
LOOKUP_TABLE default
-0.000008
-0.000008
-1.664996
-1.664998
-0.160838
-0.686109
-0.000001
-0.000003
-0.000002
-0.000002
-0.000002
-0.000002
-0.000002
-0.000002
-0.000002
-0.000002
-0.000002
-0.000002
-0.000002
-0.000003
-0.000003
-0.000002
-0.061205
-0.130526
-0.214849
-0.290042
-0.372217
-0.446335
-0.517658
-0.583637
-0.650113
-0.721482
-0.799888
-0.879194
-0.976469
-1.089665
-1.254030
-1.459108
-1.664998
-1.664997
-1.664998
-1.664997
-1.664997
-1.664998
-1.664998
-1.664998
-1.664998
-1.664998
-1.664998
-1.664997
-1.664997
-1.664997
-1.664997
-1.664997
-1.618406
-1.552633
-1.461308
-1.378697
-1.309612
-1.210440
-1.097510
-1.006398
-0.914451
-0.820492
-0.730292
-0.637214
-0.501131
-0.375134
-0.236914
-0.106772
-0.167441
-0.171451
-0.175491
-0.181491
-0.185679
-0.187599
-0.189330
-0.191654
-0.193950
-0.195654
-0.196255
-0.197431
-0.199692
-0.201371
-0.202995
-0.204618
-0.205346
-0.206451
-0.207581
-0.209225
-0.211375
-0.213064
-0.214357
-0.218088
-0.220603
-0.224909
-0.227064
-0.227457
-0.224727
-0.231076
-0.230916
-0.239934
-0.288932
-0.292270
-0.284794
-0.288022
-0.295911
-0.292006
-0.253395
-0.303947
-0.315217
-0.321908
-0.280789
-0.315358
-0.364142
-0.369604
-0.381364
-0.389239
-0.406236
-0.417899
-0.422046
-0.433826
-0.449456
-0.456817
-0.519346
-0.458933
-0.535128
-0.521941
-0.542749
-0.562692
-0.583591
-0.604681
-0.623916
-0.642442
-0.658743
-0.676784
-0.007429
-0.007115
-0.007502
-0.409570
-0.432916
-0.440454
-0.006101
-0.154978
-0.168412
-0.145990
-0.024388
-0.026330
-0.030156
-0.033610
-0.106280
-0.100959
-0.097529
-0.455891
-0.440444
-0.463096
-0.287119
-0.349179
-0.328173
-0.481619
-0.497115
-0.528324
-0.441399
-0.147569
-0.137607
-0.628928
-0.667863
-0.635342
-0.679185
-0.545768
-0.585546
-0.585890
-0.000286
-0.004971
-0.001308
-1.540945
-1.434623
-1.434179
-0.389131
-0.355258
-1.345905
-0.296410
-0.399997
-0.428973
-0.418350
-0.508767
-0.484575
-0.501460
-0.115668
-0.106444
-0.104876
-0.490644
-0.346132
-0.404202
-0.403529
-0.393867
-0.359582
-0.360969
-0.006404
-0.291896
-0.262144
-0.242598
-0.004956
-0.004580
-0.226838
-0.005942
-0.211212
-0.234336
-0.208362
-0.147069