# vtk DataFile Version 2.0
Test
ASCII
DATASET POLYDATA
POINTS 1818 float
0.000000 0.000000 0.000000
1.000000 0.000000 0.000000
1.000000 1.000000 0.000000
0.000000 1.000000 0.000000
0.300000 0.330000 0.000000
0.700000 0.680000 0.000000
0.058824 0.000000 0.000000
0.117647 0.000000 0.000000
0.176471 0.000000 0.000000
0.235294 0.000000 0.000000
0.294118 0.000000 0.000000
0.352941 0.000000 0.000000
0.411765 0.000000 0.000000
0.470588 0.000000 0.000000
0.529412 0.000000 0.000000
0.588235 0.000000 0.000000
0.647059 0.000000 0.000000
0.705882 0.000000 0.000000
0.764706 0.000000 0.000000
0.823529 0.000000 0.000000
0.882353 0.000000 0.000000
0.941176 0.000000 0.000000
1.000000 0.058824 0.000000
1.000000 0.117647 0.000000
1.000000 0.176471 0.000000
1.000000 0.235294 0.000000
1.000000 0.294118 0.000000
1.000000 0.352941 0.000000
1.000000 0.411765 0.000000
1.000000 0.470588 0.000000
1.000000 0.529412 0.000000
1.000000 0.588235 0.000000
1.000000 0.647059 0.000000
1.000000 0.705882 0.000000
1.000000 0.764706 0.000000
1.000000 0.823529 0.000000
1.000000 0.882353 0.000000
1.000000 0.941176 0.000000
0.941176 1.000000 0.000000
0.882353 1.000000 0.000000
0.823529 1.000000 0.000000
0.764706 1.000000 0.000000
0.705882 1.000000 0.000000
0.647059 1.000000 0.000000
0.588235 1.000000 0.000000
0.529412 1.000000 0.000000
0.470588 1.000000 0.000000
0.411765 1.000000 0.000000
0.352941 1.000000 0.000000
0.294118 1.000000 0.000000
0.235294 1.000000 0.000000
0.176471 1.000000 0.000000
0.117647 1.000000 0.000000
0.058824 1.000000 0.000000
0.000000 0.941176 0.000000
0.000000 0.882353 0.000000
0.000000 0.823529 0.000000
0.000000 0.764706 0.000000
0.000000 0.705882 0.000000
0.000000 0.647059 0.000000
0.000000 0.588235 0.000000
0.000000 0.529412 0.000000
0.000000 0.470588 0.000000
0.000000 0.411765 0.000000
0.000000 0.352941 0.000000
0.000000 0.294118 0.000000
0.000000 0.235294 0.000000
0.000000 0.176471 0.000000
0.000000 0.117647 0.000000
0.000000 0.058824 0.000000
0.305970 0.335224 0.000000
0.311940 0.340448 0.000000
0.317910 0.345672 0.000000
0.323881 0.350896 0.000000
0.329851 0.356119 0.000000
0.335821 0.361343 0.000000
0.341791 0.366567 0.000000
0.347761 0.371791 0.000000
0.353731 0.377015 0.000000
0.359701 0.382239 0.000000
0.365672 0.387463 0.000000
0.371642 0.392687 0.000000
0.377612 0.397910 0.000000
0.383582 0.403134 0.000000
0.389552 0.408358 0.000000
0.395522 0.413582 0.000000
0.401493 0.418806 0.000000
0.407463 0.424030 0.000000
0.413433 0.429254 0.000000
0.419403 0.434478 0.000000
0.425373 0.439701 0.000000
0.431343 0.444925 0.000000
0.437313 0.450149 0.000000
0.443284 0.455373 0.000000
0.449254 0.460597 0.000000
0.455224 0.465821 0.000000
0.461194 0.471045 0.000000
0.467164 0.476269 0.000000
0.473134 0.481493 0.000000
0.479104 0.486716 0.000000
0.485075 0.491940 0.000000
0.491045 0.497164 0.000000
0.497015 0.502388 0.000000
0.502985 0.507612 0.000000
0.508955 0.512836 0.000000
0.514925 0.518060 0.000000
0.520896 0.523284 0.000000
0.526866 0.528507 0.000000
0.532836 0.533731 0.000000
0.538806 0.538955 0.000000
0.544776 0.544179 0.000000
0.550746 0.549403 0.000000
0.556716 0.554627 0.000000
0.562687 0.559851 0.000000
0.568657 0.565075 0.000000
0.574627 0.570299 0.000000
0.580597 0.575522 0.000000
0.586567 0.580746 0.000000
0.592537 0.585970 0.000000
0.598507 0.591194 0.000000
0.604478 0.596418 0.000000
0.610448 0.601642 0.000000
0.616418 0.606866 0.000000
0.622388 0.612090 0.000000
0.628358 0.617313 0.000000
0.634328 0.622537 0.000000
0.640299 0.627761 0.000000
0.646269 0.632985 0.000000
0.652239 0.638209 0.000000
0.658209 0.643433 0.000000
0.664179 0.648657 0.000000
0.670149 0.653881 0.000000
0.676119 0.659104 0.000000
0.682090 0.664328 0.000000
0.688060 0.669552 0.000000
0.694030 0.674776 0.000000
0.516135 0.080917 0.000000
0.549338 0.042552 0.000000
0.567302 0.088709 0.000000
0.555658 0.563778 0.000000
0.559301 0.571359 0.000000
0.552318 0.570919 0.000000
0.603235 0.047100 0.000000
0.446553 0.448087 0.000000
0.438652 0.443189 0.000000
0.445116 0.440368 0.000000
0.437254 0.190586 0.000000
0.465954 0.201747 0.000000
0.439184 0.213838 0.000000
0.453137 0.228102 0.000000
0.522423 0.410182 0.000000
0.522098 0.390982 0.000000
0.537289 0.398500 0.000000
0.453388 0.527105 0.000000
0.462022 0.524948 0.000000
0.461218 0.533993 0.000000
0.324300 0.374550 0.000000
0.319287 0.386214 0.000000
0.314834 0.375138 0.000000
0.668809 0.628853 0.000000
0.677366 0.632907 0.000000
0.668274 0.639611 0.000000
0.469934 0.529282 0.000000
0.439703 0.436699 0.000000
0.446608 0.432083 0.000000
0.542854 0.633425 0.000000
0.535117 0.647070 0.000000
0.524302 0.633157 0.000000
0.519372 0.648877 0.000000
0.586338 0.611293 0.000000
0.591638 0.624149 0.000000
0.575478 0.621479 0.000000
0.437962 0.035513 0.000000
0.421505 0.085456 0.000000
0.394924 0.044162 0.000000
0.445207 0.955749 0.000000
0.429168 0.919510 0.000000
0.464409 0.914226 0.000000
0.317150 0.400904 0.000000
0.328626 0.395860 0.000000
0.439616 0.884412 0.000000
0.330406 0.381773 0.000000
0.676842 0.602700 0.000000
0.674982 0.614185 0.000000
0.665930 0.611798 0.000000
0.414707 0.535036 0.000000
0.420123 0.526072 0.000000
0.425338 0.533771 0.000000
0.398407 0.375558 0.000000
0.393804 0.363255 0.000000
0.407284 0.365452 0.000000
0.407758 0.523337 0.000000
0.899969 0.377867 0.000000
0.945915 0.378245 0.000000
0.914158 0.409130 0.000000
0.358219 0.436142 0.000000
0.361390 0.425428 0.000000
0.369309 0.432300 0.000000
0.465999 0.075074 0.000000
0.269944 0.367761 0.000000
0.266521 0.352125 0.000000
0.283474 0.357667 0.000000
0.385889 0.083020 0.000000
0.359482 0.060981 0.000000
0.279658 0.346766 0.000000
0.363604 0.104040 0.000000
0.511115 0.503731 0.000000
0.503243 0.499914 0.000000
0.509146 0.494910 0.000000
0.513188 0.475753 0.000000
0.504957 0.474656 0.000000
0.511959 0.464784 0.000000
0.311863 0.447505 0.000000
0.293019 0.442078 0.000000
0.305555 0.431691 0.000000
0.499204 0.464990 0.000000
0.293855 0.459576 0.000000
0.396676 0.236328 0.000000
0.371014 0.247362 0.000000
0.373003 0.229199 0.000000
0.384478 0.261522 0.000000
0.555704 0.523331 0.000000
0.551313 0.515879 0.000000
0.562752 0.515269 0.000000
0.554954 0.506854 0.000000
0.804236 0.611103 0.000000
0.819351 0.593503 0.000000
0.832061 0.615776 0.000000
0.509908 0.485173 0.000000
0.129738 0.481190 0.000000
0.110722 0.443736 0.000000
0.154857 0.452634 0.000000
0.089738 0.485299 0.000000
0.396427 0.153886 0.000000
0.393058 0.115469 0.000000
0.420333 0.126587 0.000000
0.442628 0.413512 0.000000
0.434815 0.404283 0.000000
0.446816 0.400259 0.000000
0.499770 0.482873 0.000000
0.353883 0.235057 0.000000
0.351360 0.254011 0.000000
0.332147 0.240870 0.000000
0.112307 0.405527 0.000000
0.140355 0.392788 0.000000
0.142004 0.423465 0.000000
0.334868 0.263052 0.000000
0.551239 0.594093 0.000000
0.560217 0.601969 0.000000
0.546711 0.604614 0.000000
0.398510 0.570197 0.000000
0.387124 0.557316 0.000000
0.399978 0.555748 0.000000
0.705281 0.743146 0.000000
0.722930 0.758853 0.000000
0.697202 0.758074 0.000000
0.380190 0.572638 0.000000
0.278345 0.431947 0.000000
0.292575 0.428097 0.000000
0.470820 0.540616 0.000000
0.478213 0.533042 0.000000
0.480161 0.543190 0.000000
0.415268 0.299334 0.000000
0.412465 0.313515 0.000000
0.400419 0.297680 0.000000
0.396495 0.317117 0.000000
0.718655 0.732879 0.000000
0.709319 0.677587 0.000000
0.715709 0.670111 0.000000
0.719283 0.682820 0.000000
0.212992 0.453899 0.000000
0.184619 0.470046 0.000000
0.186665 0.440862 0.000000
0.452307 0.386568 0.000000
0.460371 0.397715 0.000000
0.478664 0.456068 0.000000
0.476179 0.462123 0.000000
0.471250 0.456445 0.000000
0.464654 0.388544 0.000000
0.483415 0.461045 0.000000
0.357146 0.449596 0.000000
0.344653 0.443966 0.000000
0.554562 0.459423 0.000000
0.543333 0.457517 0.000000
0.553850 0.449505 0.000000
0.543131 0.445036 0.000000
0.347312 0.459318 0.000000
0.781088 0.538918 0.000000
0.810909 0.534152 0.000000
0.799399 0.553968 0.000000
0.402869 0.534333 0.000000
0.408011 0.546121 0.000000
0.703844 0.670118 0.000000
0.552234 0.794299 0.000000
0.528593 0.795589 0.000000
0.539188 0.770312 0.000000
0.596088 0.518714 0.000000
0.593029 0.508081 0.000000
0.604120 0.510731 0.000000
0.384880 0.468703 0.000000
0.382270 0.455963 0.000000
0.394062 0.458803 0.000000
0.374729 0.466839 0.000000
0.340939 0.294790 0.000000
0.324530 0.290188 0.000000
0.338473 0.279923 0.000000
0.465367 0.336545 0.000000
0.477337 0.352846 0.000000
0.459495 0.350024 0.000000
0.584947 0.516440 0.000000
0.326802 0.302636 0.000000
0.945343 0.420397 0.000000
0.779746 0.749037 0.000000
0.771533 0.774140 0.000000
0.758291 0.749848 0.000000
0.743435 0.765852 0.000000
0.751942 0.297541 0.000000
0.784264 0.292048 0.000000
0.772562 0.330207 0.000000
0.812744 0.305799 0.000000
0.655547 0.494535 0.000000
0.649767 0.472522 0.000000
0.671966 0.480244 0.000000
0.612062 0.502007 0.000000
0.616789 0.515227 0.000000
0.403059 0.898561 0.000000
0.391512 0.946883 0.000000
0.625780 0.504699 0.000000
0.635988 0.491275 0.000000
0.596252 0.650380 0.000000
0.583401 0.655132 0.000000
0.583737 0.644777 0.000000
0.713099 0.416502 0.000000
0.708474 0.388943 0.000000
0.733625 0.389568 0.000000
0.684835 0.406222 0.000000
0.656936 0.416423 0.000000
0.633624 0.425116 0.000000
0.634362 0.400237 0.000000
0.646884 0.740682 0.000000
0.654954 0.726002 0.000000
0.663305 0.741855 0.000000
0.732481 0.441235 0.000000
0.751303 0.460839 0.000000
0.721338 0.462235 0.000000
0.759622 0.437863 0.000000
0.462761 0.363156 0.000000
0.373644 0.622389 0.000000
0.346217 0.613642 0.000000
0.370315 0.594521 0.000000
0.351411 0.640635 0.000000
0.695337 0.690220 0.000000
0.705202 0.700133 0.000000
0.692303 0.700990 0.000000
0.521365 0.516400 0.000000
0.522992 0.510597 0.000000
0.527633 0.513574 0.000000
0.291567 0.329512 0.000000
0.294927 0.318154 0.000000
0.365771 0.366553 0.000000
0.366135 0.358691 0.000000
0.374180 0.368122 0.000000
0.408232 0.327056 0.000000
0.423479 0.328280 0.000000
0.411272 0.339740 0.000000
0.664110 0.670607 0.000000
0.667245 0.662649 0.000000
[...]
POINT_DATA 1818
SCALARS UX float 1
LOOKUP_TABLE default
-0.000001
0.000001
0.055340
-0.322098
-0.092857
-0.007856
0.000000
-0.000000
-0.000000
-0.000000
-0.000000
-0.000000
-0.000000
-0.000000
-0.000000
0.000000
0.000000
0.000000
0.000000
0.000000
0.000000
-0.000000
0.044103
0.066712
0.082878
0.097397
0.109465
0.119974
0.129085
0.136119
0.141539
0.144933
0.145619
0.144953
0.140901
0.127017
0.099280
0.073915
0.010543
-0.020086
-0.040198
-0.057080
-0.073376
-0.089952
-0.107397
-0.125759
-0.145553
-0.167002
-0.189502
-0.212599
-0.235776
-0.258555
-0.280680
-0.301573
-0.317614
-0.312064
-0.305656
-0.298982
-0.292005
-0.284931
-0.277690
-0.269852
-0.260825
-0.250588
-0.239248
-0.225468
-0.207978
-0.183389
-0.135251
-0.081215
-0.090586
-0.090010
-0.089534
-0.088794
-0.087052
-0.086071
-0.084109
-0.083948
-0.083364
-0.082382
-0.081944
-0.081879
-0.082205
-0.082893
-0.082844
-0.081851
-0.084629
-0.084404
-0.084351
-0.082733
-0.082209
-0.081552
-0.079908
-0.080270
-0.079155
-0.077038
-0.075522
-0.072994
-0.071429
-0.069426
-0.069087
-0.066669
-0.066631
-0.061576
-0.061131
-0.059092
-0.057411
-0.054566
-0.053614
-0.049896
-0.048353
-0.046009
-0.044635
-0.043198
-0.042669
-0.041411
-0.040716
-0.038907
-0.037893
-0.036749
-0.036120
-0.035511
-0.034434
-0.032269
-0.031006
-0.028602
-0.027870
-0.028077
-0.026467
-0.024436
-0.021527
-0.018690
-0.014900
-0.012677
-0.010839
-0.009899
-0.001471
-0.000198
0.000510
-0.097227
-0.100865
-0.108987
0.000963
-0.031600
-0.034853
-0.025273
-0.011445
-0.008881
-0.012883
-0.011854
0.000758
-0.000328
0.003319
-0.147293
-0.144547
-0.145046
-0.145561
-0.157905
-0.151636
0.040237
0.047090
0.022781
-0.142133
-0.027560
-0.019075
-0.116914
-0.118717
-0.123109
-0.124087
-0.099573
-0.098888
-0.105989
-0.001678
-0.004880
-0.002822
-0.152292
-0.156885
-0.143969
-0.165237
-0.159040
-0.152495
-0.147703
0.050999
0.049265
0.046838
-0.157989
-0.156358
-0.155059
-0.028767
-0.029061
-0.025573
-0.159602
0.099693
0.111466
0.108165
-0.162048
-0.157409
-0.157500
-0.002943
-0.168937
-0.161862
-0.158458
-0.005866
-0.004735
-0.151398
-0.008648
-0.020765
-0.028127
-0.011430
0.001646
-0.001197
0.001594
-0.177790
-0.182235
-0.176706
-0.002401
-0.184790
-0.020875
-0.026414
-0.023633
-0.025532
0.012396
0.011795
0.016967
0.014340
0.094888
0.099555
0.103343
-0.001600
-0.233333
-0.232609
-0.223208
-0.243476
-0.011893
-0.008405
-0.007891
-0.017357
-0.019416
-0.016029
-0.007733
-0.027431
-0.030970
-0.032024
-0.225619
-0.216598
-0.221871
-0.035934
-0.115723
-0.112307
-0.117380
-0.163542
-0.166618
-0.162694
-0.047169
-0.040744
-0.053969
-0.169360
-0.184569
-0.179619
-0.142340
-0.139566
-0.139525
-0.021956
-0.023070
-0.024906
-0.026682
-0.034643
0.015282
0.035489
0.021129
-0.207557
-0.217531
-0.213148
-0.015002
-0.012943
-0.009753
-0.013496
-0.014155
-0.012330
-0.008468
-0.165418
-0.167700
0.011387
0.008684
0.010451
0.007678
-0.169637
0.084348
0.093766
0.091507
-0.161262
-0.160111
0.020352
-0.110327
-0.119194
-0.115063
0.026859
0.025142
0.028312
-0.161551
-0.160202
-0.157138
-0.163944
-0.040124
-0.044812
-0.038473
-0.013021
-0.010582
-0.014131
0.023603
-0.046493
0.117492
0.014860
-0.011573
-0.008200
-0.029496
0.043866
0.051213
0.055360
0.061978
0.041239
0.037702
0.045022
0.029647
0.032030
-0.166113
-0.171751
0.033576
0.035273
-0.096783
-0.101288
-0.101804
0.051246
0.046409
0.053794
0.041700
0.034723
0.028912
0.026956
-0.072656
-0.068491
-0.066341
0.060062
0.068060
0.058782
0.068001
-0.013352
-0.173442
-0.182142
-0.173468
-0.181500
-0.030747
-0.026731
-0.040668
-0.028341
-0.014442
-0.010606
-0.109633
-0.081106
-0.042660
-0.037978
-0.036159
-0.024443
-0.021265
-0.024110
-0.055080
-0.043330
-0.041165
-0.165755
-0.170274
-0.171078
-0.175151
-0.063224
-0.070673
-0.079028
-0.021825
0.002175
0.006637
0.004569
-0.054225
-0.057441
-0.048797
-0.033442
-0.043156
-0.044874
-0.134292
-0.138108
-0.138765
-0.044925
-0.056063
-0.055905
-0.019920
-0.046819
-0.036897
-0.052310
-0.044382
-0.026483
-0.033920
-0.130948
-0.124029
-0.122772
-0.130884
-0.186518
-0.178309
-0.183574
-0.157777
-0.163444
-0.158841
-0.044725
-0.044526
-0.122300
0.022398
0.023158
-0.184957
-0.180186
-0.179333
-0.074399
-0.249195
-0.234192
-0.235691
-0.224498
-0.144703
-0.132105
-0.134716
-0.134347
-0.131117
-0.119112
-0.117497
0.050697
0.051479
0.046556
0.056391
-0.181523
-0.177114
-0.172412
-0.085635
-0.107010
-0.079447
-0.065159
-0.056490
-0.041383
-0.023608
-0.079103
-0.104621
-0.125168
0.049135
0.032344
-0.117163
-0.138174
-0.135743
-0.077004
-0.090733
-0.090287
-0.136175
-0.121747
-0.119972
-0.116566
-0.107772
-0.111613
-0.124982
-0.133390
-0.028122
-0.027796
-0.041774
-0.039495
-0.036285
-0.043767
0.015862
0.013275
0.010511
-0.272858
-0.267118
-0.259372
-0.257464
-0.249759
-0.259759
-0.246504
-0.063269
-0.073666
-0.081707
-0.084230
-0.124686
-0.128945
-0.125023
-0.130171
-0.119791
-0.123187
-0.118799
-0.153370
-0.156489
-0.151667
-0.153783
-0.153806
-0.156523
-0.155736
-0.144984
-0.029323
-0.037965
-0.038558
0.009951
0.005171
0.008100
0.006069
0.079374
0.068565
0.073458
0.087526
0.089067
-0.116392
-0.121842
-0.134113
0.012847
0.014582
-0.005399
-0.146238
-0.143776
-0.148264
-0.084026
-0.071651
-0.139090
-0.076075
-0.086657
-0.091359
-0.009897
-0.008084
-0.011058
0.014760
0.017051
0.017403
-0.034519
-0.033871
-0.090456
0.020088
-0.230880
-0.222016
-0.238322
-0.225510
-0.232957
0.000896
0.002572
0.006927
0.009300
0.006435
0.010404
0.010164
-0.242279
-0.092458
-0.084188
-0.093975
-0.083602
-0.159397
-0.174636
-0.153444
0.016948
0.023884
0.031277
-0.029874
0.006988
-0.024146
0.011194
0.012336
-0.065754
-0.058131
-0.062370
-0.167499
-0.162307
-0.162788
-0.098207
-0.103816
-0.261149
0.016945
0.019888
0.017020
-0.018631
-0.017491
-0.132688
-0.125451
-0.123162
-0.015099
0.020860
-0.183601
-0.188855
-0.187359
-0.150547
-0.142924
-0.144241
-0.016419
0.002378
-0.009824
-0.000509
-0.025896
0.010968
0.010125
-0.128245
-0.107828
-0.114271
-0.030321
-0.026919
-0.194911
-0.189750
-0.190924
-0.026746
-0.002270
-0.005090
-0.005137
-0.198595
-0.205916
-0.200603
-0.073154
-0.090770
-0.061560
-0.039030
-0.042915
-0.048714
-0.241512
-0.217229
0.009344
-0.173445
-0.185565
0.005177
0.013836
0.017736
-0.227720
0.013181
0.005829
-0.130941
-0.130030
0.064333
0.071186
0.068465
-0.134720
0.003728
0.004330
0.042249
-0.150087
-0.149382
-0.148187
-0.105189
-0.101839
-0.045993
-0.152268
-0.013730
-0.011511
-0.150738
-0.109024
-0.112401
-0.105840
-0.115514
0.096873
0.086008
0.088575
0.015831
0.000541
-0.005825
-0.149081
-0.140813
-0.137330
-0.029849
-0.025059
-0.008496
-0.031751
-0.021179
-0.013908
-0.000898
-0.167281
-0.164432
-0.045070
-0.043140
-0.142224
0.050148
0.073127
0.049410
0.124948
0.076940
0.010968
0.014082
0.015211
-0.163168
-0.013838
-0.021615
-0.019050
-0.019234
-0.101323
-0.124271
-0.108726
-0.103690
0.021823
-0.127633
-0.121657
-0.173402
-0.177765
-0.173044
-0.146624
-0.143465
-0.145902
-0.143556
0.062239
0.056210
0.063862
-0.142348
-0.007977
0.101516
0.038509
0.036272
-0.009436
0.007694
-0.011270
0.010596
0.001785
0.015783
-0.031770
-0.133890
-0.072513
-0.141939
-0.141589
-0.215347
-0.223044
-0.014920
-0.011493
-0.060070
-0.072868
0.003792
-0.070795
-0.248875
-0.077714
-0.204937
-0.207087
-0.197444
-0.078378
0.063041
0.058196
0.055746
0.053028
-0.016504
-0.018217
-0.100790
-0.096190
-0.093960
0.052259
0.052020
0.048549
0.046976
0.073883
0.077135
-0.212275
-0.209807
0.094577
-0.290149
-0.267723
-0.285753
0.073392
0.069914
0.063437
-0.120322
-0.125219
-0.112073
0.078340
0.099608
0.058803
0.039478
0.050507
0.030022
-0.133455
0.006465
0.002861
0.001840
0.072658
0.080709
0.082199
-0.244504
-0.261063
-0.262475
0.091818
-0.123433
-0.116381
-0.136011
-0.151717
-0.152233
-0.187184
0.010053
0.006540
0.018446
0.127458
0.126193
0.137485
0.115569
0.111465
0.130835
0.131160
-0.099955
-0.101400
-0.222977
-0.209466
-0.208947
-0.109658
0.012970
-0.016902
-0.218388
-0.217408
-0.227729
-0.191784
-0.188708
-0.238792
0.010081
-0.013297
-0.195030
-0.009162
-0.182375
-0.170070
-0.171837
0.127166
0.134731
-0.071908
-0.072314
-0.058822
-0.017497
-0.032623
-0.003750
-0.042673
-0.060646
-0.025899
-0.029466
-0.030457
-0.125074
-0.155085
-0.162556
-0.131539
-0.191758
-0.197792
-0.193649
-0.253580
-0.247065
-0.008495
-0.013270
-0.006997
-0.013331
-0.014880
-0.076131
-0.069923
-0.074918
-0.235521
-0.003831
-0.005989
-0.091541
-0.100513
-0.099917
0.132296
0.121229
-0.201173
0.081305
0.075733
0.074869
0.082825
-0.231215
-0.225417
-0.221152
0.089940
-0.003436
0.113762
-0.052901
-0.002904
-0.014451
-0.016447
-0.103525
0.002378
-0.005697
-0.090751
-0.083840
-0.084928
0.045505
0.014989
-0.035208
-0.158982
-0.161155
-0.076949
-0.106445
0.029390
0.036237
0.027689
0.040760
-0.170804
-0.172266
-0.176401
-0.131649
-0.006400
-0.013821
0.009608
0.006860
0.004796
-0.009556
-0.026065
-0.233869
-0.226251
-0.237121
-0.224192
-0.117410
-0.225968
-0.228958
-0.236472
-0.220002
-0.217015
-0.125032
-0.119243
-0.169063
-0.159813
-0.121707
-0.043919
-0.035935
-0.104365
-0.093942
-0.261082
-0.274766
-0.247109
-0.003041
-0.005293
-0.002787
-0.135210
-0.140424
-0.022044
-0.023978
-0.208301
-0.211849
-0.203579
-0.173937
-0.169199
-0.168695
-0.077839
-0.090298
-0.218215
-0.000384
0.007572
0.003848
-0.173743
-0.189060
-0.186814
-0.195744
-0.177858
-0.215599
0.044428
0.035509
-0.200278
-0.205371
-0.208969
-0.214175
0.003418
-0.000846
-0.166340
0.083559
-0.041703
-0.031460
0.001106
-0.001130
-0.005043
-0.102298
-0.006294
-0.180307
-0.145181
-0.144827
-0.150167
-0.154886
-0.192022
-0.198582
-0.199084
-0.016524
-0.019616
-0.207766
0.004127
0.044074
0.041839
-0.255348
-0.241716
-0.249415
-0.107251
-0.114933
-0.111731
-0.181838
0.114669
0.122510
0.112063
0.105219
0.103487
-0.196792
-0.194688
-0.191218
-0.190716
-0.198057
-0.048902
0.038855
0.007022
0.075624
-0.216896
-0.225211
-0.202198
-0.204033
-0.191751
-0.183543
-0.205938
-0.196632
-0.002636
-0.004276
-0.000275
-0.140266
-0.135835
-0.145443
0.061166
0.063240
0.067571
-0.117411
0.099629
0.094391
-0.213233
-0.106748
-0.022682
-0.276329
-0.291992
-0.121058
-0.131828
0.033951
0.031592
0.030327
-0.036973
-0.033659
0.037643
-0.031584
0.040564
-0.186760
-0.198286
0.064099
0.069719
0.044921
0.012079
-0.033137
0.086230
0.070911
0.103057
0.057433
-0.081062
-0.082768
-0.076798
-0.078281
0.006660
-0.102286
-0.111165
0.004567
-0.229430
-0.207686
-0.216552
-0.129961
-0.126020
0.001170
0.006156
-0.127539
-0.131599
-0.130090
-0.001655
-0.003517
-0.000726
-0.148121
-0.143003
-0.143661
-0.183790
0.073488
0.078302
0.080910
-0.178377
-0.185956
-0.191572
-0.013999
-0.016783
-0.019229
-0.193869
-0.146664
-0.022472
-0.141231
-0.102898
-0.207591
-0.205610
0.110004
-0.005005
0.065267
0.055756
-0.144680
-0.147967
-0.068016
-0.074619
-0.012307
-0.238903
-0.068382
-0.165543
-0.198256
-0.190389
-0.160169
-0.162161
-0.162948
0.050377
0.047617
0.048791
0.057662
0.013895
0.017755
0.012955
0.019942
-0.171933
-0.136193
-0.135520
-0.178022
-0.116610
-0.027106
-0.030840
-0.042263
0.104884
0.073727
0.047583
-0.003017
-0.046119
-0.092829
-0.178304
-0.175405
-0.170615
-0.199573
-0.067649
-0.028550
-0.050641
-0.087922
-0.054353
-0.002327
-0.003291
-0.005549
-0.021631
-0.017476
-0.018885
0.053380
0.014480
0.010234
0.008067
-0.052695
0.018873
-0.028681
-0.022130
0.095516
-0.178053
-0.187863
-0.178148
-0.186813
-0.200438
0.086304
0.061175
0.066861
0.053988
0.049993
0.047427
-0.191678
-0.022452
0.002762
0.006072
0.004913
-0.012669
-0.009712
-0.010479
0.116881
0.125793
0.076580
-0.181861
-0.176239
-0.086869
-0.088941
0.036203
0.070617
0.060741
0.062633
-0.159484
-0.157852
-0.059403
-0.064631
-0.080845
-0.180385
-0.175504
-0.062507
-0.185525
0.020473
0.019709
0.016753
-0.061522
-0.055962
0.053480
0.044711
-0.169681
-0.170819
-0.162309
-0.162711
-0.169254
-0.175900
0.015974
0.011696
-0.208188
0.016251
0.019264
0.023824
0.103679
0.103410
0.011850
-0.058998
-0.058876
-0.068426
-0.082745
-0.129874
-0.042802
-0.050173
-0.055142
-0.164891
-0.163842
0.069216
0.025285
0.019319
0.018567
-0.031235
-0.083819
-0.099311
-0.104348
0.037393
0.038509
0.011139
-0.151404
-0.150960
-0.139435
-0.085943
-0.032831
-0.026445
-0.024463
-0.061090
-0.037380
-0.033297
-0.025143
-0.102138
-0.056736
-0.017237
0.070007
0.077328
0.076540
0.051419
0.069793
0.094187
-0.160900
-0.111640
-0.131821
-0.142466
-0.136117
-0.134871
-0.145308
-0.119877
0.008131
0.043454
-0.042892
-0.083714
-0.081394
0.054877
0.055008
0.033987
0.026038
0.021742
-0.122771
-0.137349
-0.047852
0.009328
-0.170739
0.058703
0.058321
0.046055
0.042738
-0.167093
-0.205953
-0.170771
0.051407
0.048259
0.021422
0.015239
0.018948
0.022611
0.050279
0.116899
-0.050815
0.031965
0.007430
0.012427
-0.021383
-0.111135
-0.099426
0.106982
-0.002180
-0.106882
0.037660
0.043160
-0.097632
-0.108234
-0.123092
-0.128407
-0.121457
-0.162502
0.028966
0.025144
-0.050587
-0.064870
-0.060659
-0.160263
-0.123753
-0.229660
0.030415
0.031353
0.026331
0.032054
0.036232
-0.158057
0.020298
-0.138636
-0.065424
-0.138176
-0.163805
-0.107822
-0.094863
-0.094249
-0.121975
-0.025481
-0.147827
-0.205339
-0.034684
-0.055196
-0.065303
-0.144263
-0.136888
-0.113610
0.035878
-0.009435
-0.008250
-0.122280
-0.087047
0.017466
0.028245
-0.164649
-0.172311
-0.166046
-0.000548
-0.129238
0.051531
0.046383
-0.009530
-0.111054
-0.115530
-0.116975
-0.140200
-0.140344
-0.045143
-0.054303
0.099112
0.105986
0.002399
-0.047184
-0.001154
-0.041187
-0.044445
0.016761
-0.037149
-0.046597
0.088552
-0.068079
-0.152758
-0.151746
0.039108
-0.008624
-0.005214
0.107872
-0.003136
-0.021907
-0.040335
-0.213490
-0.215174
-0.073811
-0.079074
-0.150833
-0.156172
-0.151269
0.112569
-0.155835
-0.109418
-0.127853
0.054805
-0.095093
-0.053728
-0.050133
-0.132921
-0.028382
-0.033546
0.000627
-0.111475
-0.119751
0.020791
0.024543
0.028732
0.029995
0.025580
-0.011285
-0.247753
-0.106461
-0.121715
-0.112251
-0.051519
-0.094791
-0.095492
0.002825
0.006204
-0.083381
-0.050558
-0.015871
-0.006571
0.015051
-0.027348
-0.024613
-0.024403
-0.021648
-0.121553
-0.141644
-0.130774
0.035468
0.035585
0.039670
-0.124003
-0.125017
-0.025853
-0.149230
-0.149943
0.000731
0.003239
0.045211
-0.001916
-0.156125
-0.168970
-0.159635
-0.151019
-0.020026
-0.128068
-0.028877
-0.031443
-0.195940
-0.198856
-0.006043
-0.046042
-0.021184
-0.127506
-0.007147
-0.001083
-0.007911
-0.169120
-0.170891
0.009963
-0.137419
-0.159572
-0.190999
-0.194727
-0.168702
-0.127799
-0.115730
-0.110546
0.017194
0.020664
0.020643
-0.158227
-0.157023
-0.032598
-0.032449
-0.159195
-0.160874
-0.165379
-0.091676
-0.089687
-0.128007
-0.156034
0.043023
0.041648
-0.015240
-0.154539
-0.155713
-0.157339
-0.151344
-0.150744
-0.028516
-0.026488
0.015571
-0.005046
-0.152532
-0.151337
-0.133413
-0.053804
-0.045886
-0.006867
-0.015049
-0.153157
0.004135
0.004063
-0.092531
-0.118141
-0.019572
-0.022591
-0.128787
-0.121882
-0.034266
0.001258
0.000113
0.031123
-0.147376
0.032113
-0.036927
0.077004
0.076057
-0.163236
-0.161298
-0.071620
-0.071365
-0.085222
-0.089381
0.007715
0.042629
-0.005702
-0.104884
0.037008
-0.164196
0.051978
0.037739
0.039353
-0.164997
0.047636
0.026249
-0.018255
0.012548
0.009474
-0.046510
0.028714
-0.259042
-0.246341
-0.251876
-0.181124
0.080323
0.023887
0.028252
0.021811
0.000495
-0.211852
0.088975
-0.167241
-0.152785
-0.148070
-0.013327
-0.005945
-0.011266
0.020227
-0.001530
-0.114563
-0.112332
-0.280650
-0.015429
0.022060
0.045233
-0.299379
-0.300887
-0.111551
0.010345
0.034130
0.013588
0.002469
0.042238
-0.005114
-0.029770
-0.148347
-0.006464
-0.155905
-0.056714
0.011342
0.027212
0.019681
0.007712
0.069674
0.033917
-0.152429
-0.151311
-0.152072
0.100758
0.093316
0.001650
0.040339
-0.143923
-0.148650
-0.152205
-0.009015
-0.006141
-0.007730
-0.005904
-0.115549
-0.016004
0.056429
0.030664
-0.131849
-0.142982
-0.222036
-0.057465
0.044380
0.086228
0.078865
-0.182093
-0.191552
-0.205732
0.061325
0.057670
-0.152423
-0.085839
-0.004635
-0.008017
-0.166134
-0.007731
-0.076644
-0.109784
0.063979
0.084599
-0.005514
-0.024021
-0.034209
-0.190582
-0.040823
-0.010788
-0.009333
-0.157574
0.117216
-0.244460
-0.008513
-0.009748
-0.197335
0.056252
0.023086
0.009737
-0.116679
0.013401
-0.006736
-0.139206
0.051974
-0.133275
-0.024132
-0.028613
0.004905
-0.110945
0.017622
-0.125295
-0.050743
-0.019481
-0.018338
-0.128989
0.095350
0.046383
-0.142900
-0.142441
-0.035530
0.008070
-0.269269
-0.284854
-0.276359
-0.127043
-0.155830
0.018316
-0.176842
0.003800
0.046442
0.044637
-0.062357
-0.179612
-0.189882
-0.127295
0.077250
0.071123
0.001720
0.000191
-0.096190
-0.112165
-0.179301
-0.184664
0.006784
-0.148866
-0.066810
-0.069146
-0.158219
-0.216374
0.029939
0.023341
0.027000
0.036413
-0.072778
0.069212
0.052612
-0.048774
-0.135555
-0.141565
0.037650
0.027431
-0.136642
0.016595
-0.020334
-0.159377
0.052327
-0.104555
-0.171426
0.032134
0.040644
-0.093651
-0.093328
-0.146781
-0.155539
0.032096
0.033281
0.035384
-0.036757
0.007565
-0.060184
-0.127946
-0.175794
-0.007519
0.002512
-0.128232
-0.148174
0.016450
0.037577
-0.025608
-0.014506
-0.021627
0.067483
0.100195
-0.076492
-0.074187
-0.106168
-0.187619
0.041934
-0.140606
-0.041605
-0.040203
-0.046677
-0.007611
-0.154661
0.026635
-0.143008
-0.072926
0.038977
-0.134549
-0.112943
-0.113724
-0.153842
-0.081010
-0.070613
-0.150368
0.030899
-0.132328
-0.059496
-0.037670
-0.058279
-0.036998
-0.084417
-0.081103
0.005088
-0.140465
-0.143292
-0.047305
-0.054169
-0.037309
-0.107885
-0.117149
-0.099244
-0.122531
-0.098284
-0.044916
-0.117820
-0.095025
-0.059142
-0.043682
-0.133158
0.045793
0.029139
-0.070083
-0.144164
-0.135271
-0.051294
-0.013697
-0.005527
-0.097657
-0.027211
-0.129848
-0.145324
-0.030420
0.005291
0.014911
0.021900
0.041821
-0.151114
-0.000450
-0.139342
-0.099548
-0.142480
0.027528
-0.064329
0.006846
-0.155487
-0.005949
-0.010309
-0.012873
-0.158562
-0.028269
-0.108299
-0.118025
-0.052072
-0.067533
-0.152233
-0.021680
0.018311
-0.095075
-0.125433
-0.032905
SCALARS UY float 1
LOOKUP_TABLE default
-0.000001
-0.000001
-0.509999
-0.510000
-0.127105
-0.327300
-0.000000
-0.000001
-0.000000
-0.000000
-0.000000
-0.000000
-0.000000
-0.000000
-0.000000
-0.000000
-0.000000
-0.000000
-0.000000
-0.000000
-0.000001
-0.000000
-0.044021
-0.075527
-0.099371
-0.122232
-0.143635
-0.164887
-0.185772
-0.205724
-0.225451
-0.244582
-0.263855
-0.283433
-0.305736
-0.340196
-0.388591
-0.449032
-0.509999
-0.509999
-0.510000
-0.510000
-0.510000
-0.510000
-0.510000
-0.510000
-0.510000
-0.510000
-0.510000
-0.510000
-0.510000
-0.510000
-0.510000
-0.510000
-0.481609
-0.453363
-0.425796
-0.399001
-0.372988
-0.348747
-0.325992
-0.304755
-0.284815
-0.265778
-0.247041
-0.228318
-0.207407
-0.179377
-0.134409
-0.084682
-0.129726
-0.130880
-0.133451
-0.134606
-0.137583
-0.139953
-0.143149
-0.144642
-0.145682
-0.147566
-0.149225
-0.152282
-0.155337
-0.160686
-0.161977
-0.165426
-0.168352
-0.170978
-0.173487
-0.176776
-0.179056
-0.181178
-0.184061
-0.186968
-0.189771
-0.191422
-0.192860
-0.195766
-0.196456
-0.199774
-0.202330
-0.205960
-0.206135
-0.211129
-0.210555
-0.213917
-0.216061
-0.219847
-0.220257
-0.224256
-0.226128
-0.229562
-0.231611
-0.236366
-0.240713
-0.244215
-0.247409
-0.251809
-0.255299
-0.258948
-0.261873
-0.268887
-0.271009
-0.275171
-0.278360
-0.285897
-0.288863
-0.292366
-0.295634
-0.299733
-0.303757
-0.307336
-0.311911
-0.314412
-0.321487
-0.323971
-0.015122
-0.007736
-0.017126
-0.282432
-0.291674
-0.295339
-0.008810
-0.141853
-0.141127
-0.133455
-0.040069
-0.043251
-0.046539
-0.050791
-0.115199
-0.107943
-0.111621
-0.277580
-0.276956
-0.281268
-0.195530
-0.208106
-0.198704
-0.240936
-0.240007
-0.261730
-0.279336
-0.132182
-0.124693
-0.332134
-0.338079
-0.330471
-0.337789
-0.322310
-0.330264
-0.328830
-0.006266
-0.015834
-0.007957
-0.488474
-0.470214
-0.469098
-0.217485
-0.212908
-0.453280
-0.200361
-0.220441
-0.226066
-0.224388
-0.279227
-0.275470
-0.279125
-0.102542
-0.098075
-0.097763
-0.273802
-0.154526
-0.163571
-0.169624
-0.234587
-0.228695
-0.231542
-0.013791
-0.200908
-0.190680
-0.191837
-0.015646
-0.011436
-0.179859
-0.020268
-0.172162
-0.173559
-0.159419
-0.140963
-0.140765
-0.135779
-0.241101
-0.239856
-0.234033
-0.135974
-0.247834
-0.053086
-0.056937
-0.051421
-0.061250
-0.166912
-0.162069