# vtk DataFile Version 2.0
Test
ASCII
DATASET POLYDATA
POINTS 1818 float
0.000000 0.000000 0.000000
1.000000 0.000000 0.000000
1.000000 1.000000 0.000000
0.000000 1.000000 0.000000
0.300000 0.330000 0.000000
0.700000 0.680000 0.000000
0.058824 0.000000 0.000000
0.117647 0.000000 0.000000
0.176471 0.000000 0.000000
0.235294 0.000000 0.000000
0.294118 0.000000 0.000000
0.352941 0.000000 0.000000
0.411765 0.000000 0.000000
0.470588 0.000000 0.000000
0.529412 0.000000 0.000000
0.588235 0.000000 0.000000
0.647059 0.000000 0.000000
0.705882 0.000000 0.000000
0.764706 0.000000 0.000000
0.823529 0.000000 0.000000
0.882353 0.000000 0.000000
0.941176 0.000000 0.000000
1.000000 0.058824 0.000000
1.000000 0.117647 0.000000
1.000000 0.176471 0.000000
1.000000 0.235294 0.000000
1.000000 0.294118 0.000000
1.000000 0.352941 0.000000
1.000000 0.411765 0.000000
1.000000 0.470588 0.000000
1.000000 0.529412 0.000000
1.000000 0.588235 0.000000
1.000000 0.647059 0.000000
1.000000 0.705882 0.000000
1.000000 0.764706 0.000000
1.000000 0.823529 0.000000
1.000000 0.882353 0.000000
1.000000 0.941176 0.000000
0.941176 1.000000 0.000000
0.882353 1.000000 0.000000
0.823529 1.000000 0.000000
0.764706 1.000000 0.000000
0.705882 1.000000 0.000000
0.647059 1.000000 0.000000
0.588235 1.000000 0.000000
0.529412 1.000000 0.000000
0.470588 1.000000 0.000000
0.411765 1.000000 0.000000
0.352941 1.000000 0.000000
0.294118 1.000000 0.000000
0.235294 1.000000 0.000000
0.176471 1.000000 0.000000
0.117647 1.000000 0.000000
0.058824 1.000000 0.000000
0.000000 0.941176 0.000000
0.000000 0.882353 0.000000
0.000000 0.823529 0.000000
0.000000 0.764706 0.000000
0.000000 0.705882 0.000000
0.000000 0.647059 0.000000
0.000000 0.588235 0.000000
0.000000 0.529412 0.000000
0.000000 0.470588 0.000000
0.000000 0.411765 0.000000
0.000000 0.352941 0.000000
0.000000 0.294118 0.000000
0.000000 0.235294 0.000000
0.000000 0.176471 0.000000
0.000000 0.117647 0.000000
0.000000 0.058824 0.000000
0.305970 0.335224 0.000000
0.311940 0.340448 0.000000
0.317910 0.345672 0.000000
0.323881 0.350896 0.000000
0.329851 0.356119 0.000000
0.335821 0.361343 0.000000
0.341791 0.366567 0.000000
0.347761 0.371791 0.000000
0.353731 0.377015 0.000000
0.359701 0.382239 0.000000
0.365672 0.387463 0.000000
0.371642 0.392687 0.000000
0.377612 0.397910 0.000000
0.383582 0.403134 0.000000
0.389552 0.408358 0.000000
0.395522 0.413582 0.000000
0.401493 0.418806 0.000000
0.407463 0.424030 0.000000
0.413433 0.429254 0.000000
0.419403 0.434478 0.000000
0.425373 0.439701 0.000000
0.431343 0.444925 0.000000
0.437313 0.450149 0.000000
0.443284 0.455373 0.000000
0.449254 0.460597 0.000000
0.455224 0.465821 0.000000
0.461194 0.471045 0.000000
0.467164 0.476269 0.000000
0.473134 0.481493 0.000000
0.479104 0.486716 0.000000
0.485075 0.491940 0.000000
0.491045 0.497164 0.000000
0.497015 0.502388 0.000000
0.502985 0.507612 0.000000
0.508955 0.512836 0.000000
0.514925 0.518060 0.000000
0.520896 0.523284 0.000000
0.526866 0.528507 0.000000
0.532836 0.533731 0.000000
0.538806 0.538955 0.000000
0.544776 0.544179 0.000000
0.550746 0.549403 0.000000
0.556716 0.554627 0.000000
0.562687 0.559851 0.000000
0.568657 0.565075 0.000000
0.574627 0.570299 0.000000
0.580597 0.575522 0.000000
0.586567 0.580746 0.000000
0.592537 0.585970 0.000000
0.598507 0.591194 0.000000
0.604478 0.596418 0.000000
0.610448 0.601642 0.000000
0.616418 0.606866 0.000000
0.622388 0.612090 0.000000
0.628358 0.617313 0.000000
0.634328 0.622537 0.000000
0.640299 0.627761 0.000000
0.646269 0.632985 0.000000
0.652239 0.638209 0.000000
0.658209 0.643433 0.000000
0.664179 0.648657 0.000000
0.670149 0.653881 0.000000
0.676119 0.659104 0.000000
0.682090 0.664328 0.000000
0.688060 0.669552 0.000000
0.694030 0.674776 0.000000
0.516135 0.080917 0.000000
0.549338 0.042552 0.000000
0.567302 0.088709 0.000000
0.555658 0.563778 0.000000
0.559301 0.571359 0.000000
0.552318 0.570919 0.000000
0.603235 0.047100 0.000000
0.446553 0.448087 0.000000
0.438652 0.443189 0.000000
0.445116 0.440368 0.000000
0.437254 0.190586 0.000000
0.465954 0.201747 0.000000
0.439184 0.213838 0.000000
0.453137 0.228102 0.000000
0.522423 0.410182 0.000000
0.522098 0.390982 0.000000
0.537289 0.398500 0.000000
0.453388 0.527105 0.000000
0.462022 0.524948 0.000000
0.461218 0.533993 0.000000
0.324300 0.374550 0.000000
0.319287 0.386214 0.000000
0.314834 0.375138 0.000000
0.668809 0.628853 0.000000
0.677366 0.632907 0.000000
0.668274 0.639611 0.000000
0.469934 0.529282 0.000000
0.439703 0.436699 0.000000
0.446608 0.432083 0.000000
0.542854 0.633425 0.000000
0.535117 0.647070 0.000000
0.524302 0.633157 0.000000
0.519372 0.648877 0.000000
0.586338 0.611293 0.000000
0.591638 0.624149 0.000000
0.575478 0.621479 0.000000
0.437962 0.035513 0.000000
0.421505 0.085456 0.000000
0.394924 0.044162 0.000000
0.445207 0.955749 0.000000
0.429168 0.919510 0.000000
0.464409 0.914226 0.000000
0.317150 0.400904 0.000000
0.328626 0.395860 0.000000
0.439616 0.884412 0.000000
0.330406 0.381773 0.000000
0.676842 0.602700 0.000000
0.674982 0.614185 0.000000
0.665930 0.611798 0.000000
0.414707 0.535036 0.000000
0.420123 0.526072 0.000000
0.425338 0.533771 0.000000
0.398407 0.375558 0.000000
0.393804 0.363255 0.000000
0.407284 0.365452 0.000000
0.407758 0.523337 0.000000
0.899969 0.377867 0.000000
0.945915 0.378245 0.000000
0.914158 0.409130 0.000000
0.358219 0.436142 0.000000
0.361390 0.425428 0.000000
0.369309 0.432300 0.000000
0.465999 0.075074 0.000000
0.269944 0.367761 0.000000
0.266521 0.352125 0.000000
0.283474 0.357667 0.000000
0.385889 0.083020 0.000000
0.359482 0.060981 0.000000
0.279658 0.346766 0.000000
0.363604 0.104040 0.000000
0.511115 0.503731 0.000000
0.503243 0.499914 0.000000
0.509146 0.494910 0.000000
0.513188 0.475753 0.000000
0.504957 0.474656 0.000000
0.511959 0.464784 0.000000
0.311863 0.447505 0.000000
0.293019 0.442078 0.000000
0.305555 0.431691 0.000000
0.499204 0.464990 0.000000
0.293855 0.459576 0.000000
0.396676 0.236328 0.000000
0.371014 0.247362 0.000000
0.373003 0.229199 0.000000
0.384478 0.261522 0.000000
0.555704 0.523331 0.000000
0.551313 0.515879 0.000000
0.562752 0.515269 0.000000
0.554954 0.506854 0.000000
0.804236 0.611103 0.000000
0.819351 0.593503 0.000000
0.832061 0.615776 0.000000
0.509908 0.485173 0.000000
0.129738 0.481190 0.000000
0.110722 0.443736 0.000000
0.154857 0.452634 0.000000
0.089738 0.485299 0.000000
0.396427 0.153886 0.000000
0.393058 0.115469 0.000000
0.420333 0.126587 0.000000
0.442628 0.413512 0.000000
0.434815 0.404283 0.000000
0.446816 0.400259 0.000000
0.499770 0.482873 0.000000
0.353883 0.235057 0.000000
0.351360 0.254011 0.000000
0.332147 0.240870 0.000000
0.112307 0.405527 0.000000
0.140355 0.392788 0.000000
0.142004 0.423465 0.000000
0.334868 0.263052 0.000000
0.551239 0.594093 0.000000
0.560217 0.601969 0.000000
0.546711 0.604614 0.000000
0.398510 0.570197 0.000000
0.387124 0.557316 0.000000
0.399978 0.555748 0.000000
0.705281 0.743146 0.000000
0.722930 0.758853 0.000000
0.697202 0.758074 0.000000
0.380190 0.572638 0.000000
0.278345 0.431947 0.000000
0.292575 0.428097 0.000000
0.470820 0.540616 0.000000
0.478213 0.533042 0.000000
0.480161 0.543190 0.000000
0.415268 0.299334 0.000000
0.412465 0.313515 0.000000
0.400419 0.297680 0.000000
0.396495 0.317117 0.000000
0.718655 0.732879 0.000000
0.709319 0.677587 0.000000
0.715709 0.670111 0.000000
0.719283 0.682820 0.000000
0.212992 0.453899 0.000000
0.184619 0.470046 0.000000
0.186665 0.440862 0.000000
0.452307 0.386568 0.000000
0.460371 0.397715 0.000000
0.478664 0.456068 0.000000
0.476179 0.462123 0.000000
0.471250 0.456445 0.000000
0.464654 0.388544 0.000000
0.483415 0.461045 0.000000
0.357146 0.449596 0.000000
0.344653 0.443966 0.000000
0.554562 0.459423 0.000000
0.543333 0.457517 0.000000
0.553850 0.449505 0.000000
0.543131 0.445036 0.000000
0.347312 0.459318 0.000000
0.781088 0.538918 0.000000
0.810909 0.534152 0.000000
0.799399 0.553968 0.000000
0.402869 0.534333 0.000000
0.408011 0.546121 0.000000
0.703844 0.670118 0.000000
0.552234 0.794299 0.000000
0.528593 0.795589 0.000000
0.539188 0.770312 0.000000
0.596088 0.518714 0.000000
0.593029 0.508081 0.000000
0.604120 0.510731 0.000000
0.384880 0.468703 0.000000
0.382270 0.455963 0.000000
0.394062 0.458803 0.000000
0.374729 0.466839 0.000000
0.340939 0.294790 0.000000
0.324530 0.290188 0.000000
0.338473 0.279923 0.000000
0.465367 0.336545 0.000000
0.477337 0.352846 0.000000
0.459495 0.350024 0.000000
0.584947 0.516440 0.000000
0.326802 0.302636 0.000000
0.945343 0.420397 0.000000
0.779746 0.749037 0.000000
0.771533 0.774140 0.000000
0.758291 0.749848 0.000000
0.743435 0.765852 0.000000
0.751942 0.297541 0.000000
0.784264 0.292048 0.000000
0.772562 0.330207 0.000000
0.812744 0.305799 0.000000
0.655547 0.494535 0.000000
0.649767 0.472522 0.000000
0.671966 0.480244 0.000000
0.612062 0.502007 0.000000
0.616789 0.515227 0.000000
0.403059 0.898561 0.000000
0.391512 0.946883 0.000000
0.625780 0.504699 0.000000
0.635988 0.491275 0.000000
0.596252 0.650380 0.000000
0.583401 0.655132 0.000000
0.583737 0.644777 0.000000
0.713099 0.416502 0.000000
0.708474 0.388943 0.000000
0.733625 0.389568 0.000000
0.684835 0.406222 0.000000
0.656936 0.416423 0.000000
0.633624 0.425116 0.000000
0.634362 0.400237 0.000000
0.646884 0.740682 0.000000
0.654954 0.726002 0.000000
0.663305 0.741855 0.000000
0.732481 0.441235 0.000000
0.751303 0.460839 0.000000
0.721338 0.462235 0.000000
0.759622 0.437863 0.000000
0.462761 0.363156 0.000000
0.373644 0.622389 0.000000
0.346217 0.613642 0.000000
0.370315 0.594521 0.000000
0.351411 0.640635 0.000000
0.695337 0.690220 0.000000
0.705202 0.700133 0.000000
0.692303 0.700990 0.000000
0.521365 0.516400 0.000000
0.522992 0.510597 0.000000
0.527633 0.513574 0.000000
0.291567 0.329512 0.000000
0.294927 0.318154 0.000000
0.365771 0.366553 0.000000
0.366135 0.358691 0.000000
0.374180 0.368122 0.000000
0.408232 0.327056 0.000000
0.423479 0.328280 0.000000
0.411272 0.339740 0.000000
0.664110 0.670607 0.000000
0.667245 0.662649 0.000000
[...]
POINT_DATA 1818
SCALARS UX float 1
LOOKUP_TABLE default
-0.000003
0.000002
-0.103362
-0.705200
-0.210510
-0.148352
0.000000
-0.000000
-0.000000
-0.000000
-0.000000
-0.000000
-0.000000
-0.000000
-0.000000
0.000000
0.000000
0.000000
0.000000
0.000000
0.000000
-0.000000
0.044252
0.066724
0.082767
0.096743
0.107985
0.117539
0.125752
0.132160
0.136878
0.139860
0.143476
0.148597
0.152290
0.103670
0.017458
-0.066130
-0.252381
-0.340201
-0.378466
-0.403022
-0.426119
-0.448279
-0.470253
-0.491467
-0.513480
-0.537692
-0.563621
-0.590428
-0.616862
-0.641898
-0.665407
-0.685678
-0.700077
-0.692334
-0.681906
-0.670636
-0.658254
-0.645839
-0.634168
-0.623579
-0.614273
-0.605187
-0.595510
-0.579708
-0.558612
-0.508414
-0.363829
-0.173302
-0.206513
-0.203862
-0.203065
-0.198834
-0.193155
-0.190000
-0.189297
-0.190931
-0.186801
-0.187117
-0.188088
-0.184676
-0.188083
-0.191407
-0.188926
-0.189175
-0.189418
-0.189943
-0.190594
-0.189203
-0.188874
-0.188855
-0.186468
-0.184395
-0.186811
-0.184146
-0.183928
-0.179415
-0.178809
-0.179294
-0.172384
-0.193473
-0.199284
-0.189179
-0.190994
-0.194288
-0.189613
-0.190712
-0.189125
-0.185999
-0.186127
-0.185501
-0.186461
-0.185130
-0.184090
-0.181376
-0.181425
-0.179336
-0.176794
-0.177378
-0.173312
-0.174929
-0.174089
-0.171276
-0.167855
-0.169431
-0.175780
-0.173999
-0.174520
-0.170935
-0.167565
-0.165496
-0.160958
-0.157365
-0.153902
-0.151871
-0.002971
-0.000804
-0.000409
-0.293635
-0.312351
-0.338035
0.000726
-0.110239
-0.112248
-0.087024
-0.017331
-0.013927
-0.019607
-0.018391
-0.019450
-0.016933
-0.013074
-0.445099
-0.434438
-0.441605
-0.380439
-0.444175
-0.430683
-0.052903
-0.044759
-0.085590
-0.429033
-0.091521
-0.067293
-0.424325
-0.437205
-0.439759
-0.449783
-0.343643
-0.355492
-0.379322
-0.002776
-0.007601
-0.004370
-0.520470
-0.525042
-0.510144
-0.459192
-0.443204
-0.519157
-0.398824
-0.004055
-0.019778
-0.025584
-0.476718
-0.469524
-0.469109
-0.066177
-0.062913
-0.054890
-0.476323
0.095575
0.107650
0.103007
-0.458813
-0.444211
-0.443560
-0.004915
-0.451847
-0.427003
-0.427690
-0.008817
-0.006976
-0.389565
-0.012671
-0.101495
-0.117887
-0.078732
-0.041889
-0.047820
-0.036622
-0.494193
-0.502284
-0.488090
-0.043653
-0.510658
-0.031643
-0.040883
-0.035578
-0.039884
-0.043192
-0.037637
-0.025450
-0.026393
0.075492
0.083841
0.087362
-0.054248
-0.577338
-0.576634
-0.564227
-0.589887
-0.017632
-0.012540
-0.011986
-0.053727
-0.054640
-0.045774
-0.069521
-0.041316
-0.048425
-0.048848
-0.569633
-0.557828
-0.563203
-0.057470
-0.386889
-0.382187
-0.403117
-0.499021
-0.501415
-0.493424
-0.311803
-0.305107
-0.344530
-0.509938
-0.504854
-0.493967
-0.437639
-0.423165
-0.430968
-0.036611
-0.040020
-0.041220
-0.046914
-0.262436
-0.102753
-0.067684
-0.094716
-0.544160
-0.558095
-0.550534
-0.039537
-0.039023
-0.055807
-0.064950
-0.064430
-0.035375
-0.056064
-0.469382
-0.473570
-0.015457
-0.019876
-0.014357
-0.017975
-0.481066
0.071187
0.082129
0.077839
-0.483748
-0.485073
-0.091307
-0.463361
-0.474651
-0.466368
-0.005650
-0.005552
-0.000490
-0.465040
-0.457705
-0.448309
-0.470453
-0.070130
-0.078587
-0.064304
-0.026483
-0.025156
-0.030194
-0.011670
-0.085469
0.112541
-0.147808
-0.231451
-0.203728
-0.276639
0.043573
0.051214
0.054265
0.061440
0.024443
0.023593
0.032382
0.004225
0.004617
-0.535313
-0.542607
0.010054
0.016178
-0.376083
-0.395238
-0.387711
0.046434
0.042605
0.050531
0.036270
0.026935
0.018345
0.018712
-0.385149
-0.364705
-0.369404
0.054185
0.060935
0.051084
0.062393
-0.031263
-0.524477
-0.534889
-0.520406
-0.537041
-0.212372
-0.211149
-0.253352
-0.120276
-0.091812
-0.085171
-0.249862
-0.176306
-0.101415
-0.085268
-0.084917
-0.044468
-0.038806
-0.045988
-0.264896
-0.225457
-0.224325
-0.478522
-0.493351
-0.491276
-0.504063
-0.255025
-0.283507
-0.307374
-0.109736
-0.001458
0.003882
0.000523
-0.121117
-0.128776
-0.102104
-0.093786
-0.119159
-0.122892
-0.442849
-0.457309
-0.450709
-0.112616
-0.143423
-0.138250
-0.034500
-0.342322
-0.319379
-0.372925
-0.356976
-0.039406
-0.072410
-0.389835
-0.349932
-0.347008
-0.379883
-0.493859
-0.476022
-0.490181
-0.437828
-0.449905
-0.431880
-0.118457
-0.119974
-0.453256
-0.010395
-0.006525
-0.525429
-0.513819
-0.515968
-0.164974
-0.624332
-0.606813
-0.611425
-0.597497
-0.386327
-0.416481
-0.428636
-0.420834
-0.420926
-0.276441
-0.264594
-0.023258
-0.028805
-0.041777
-0.006247
-0.506809
-0.496548
-0.482537
-0.186604
-0.253275
-0.167022
-0.127621
-0.103478
-0.069559
-0.032810
-0.161644
-0.253129
-0.322304
-0.052964
-0.084539
-0.283271
-0.410474
-0.405935
-0.273046
-0.323341
-0.314801
-0.414764
-0.286864
-0.275944
-0.460148
-0.442784
-0.454197
-0.298662
-0.327791
-0.047769
-0.045602
-0.080297
-0.071352
-0.065298
-0.081651
0.002344
-0.003190
-0.003791
-0.630970
-0.620795
-0.612984
-0.624577
-0.618378
-0.630651
-0.611517
-0.271501
-0.312401
-0.263643
-0.271292
-0.385864
-0.404511
-0.381334
-0.401657
-0.367187
-0.385822
-0.367888
-0.436031
-0.448744
-0.425212
-0.440418
-0.443370
-0.453149
-0.453885
-0.447231
-0.090824
-0.115042
-0.114274
0.004879
-0.000143
0.003855
-0.000618
0.076832
0.066791
0.072050
0.085239
0.085136
-0.262111
-0.273076
-0.333608
-0.055353
-0.054801
-0.092934
-0.423897
-0.417726
-0.438641
-0.318046
-0.275341
-0.392017
-0.284271
-0.313938
-0.347787
-0.033001
-0.033578
-0.038296
-0.021240
-0.015785
-0.019006
-0.056809
-0.054303
-0.361829
-0.011797
-0.600326
-0.592222
-0.606131
-0.591992
-0.597441
-0.004771
-0.004140
-0.025531
-0.024393
-0.030329
-0.019397
-0.008002
-0.589136
-0.445882
-0.437023
-0.450737
-0.431622
-0.433905
-0.471148
-0.435435
-0.070837
-0.047072
-0.029848
-0.047543
-0.009850
-0.287171
-0.023670
-0.018625
-0.332278
-0.305797
-0.334139
-0.468080
-0.452155
-0.458816
-0.396704
-0.409781
-0.619218
-0.003085
-0.000761
-0.006300
-0.047966
-0.041319
-0.488772
-0.475854
-0.476573
-0.036313
-0.002392
-0.514994
-0.525501
-0.519439
-0.420150
-0.378753
-0.387553
-0.095678
-0.060046
-0.085334
-0.065585
-0.112205
-0.109061
-0.109889
-0.343422
-0.272738
-0.289711
-0.063360
-0.054162
-0.540145
-0.531973
-0.537455
-0.050345
-0.004990
-0.008953
-0.008695
-0.547271
-0.556336
-0.547713
-0.154891
-0.204106
-0.123032
-0.061900
-0.072197
-0.086631
-0.622791
-0.595302
-0.040847
-0.472973
-0.499292
-0.056481
-0.013485
-0.009088
-0.606471
-0.010161
-0.023123
-0.429646
-0.434826
0.055259
0.062263
0.057859
-0.436582
-0.028723
-0.033018
0.031419
-0.454295
-0.447685
-0.453554
-0.249176
-0.243149
-0.085588
-0.453683
-0.044257
-0.043829
-0.444337
-0.420831
-0.420438
-0.404033
-0.437019
0.088618
0.077592
0.081844
-0.080415
-0.108675
-0.123006
-0.512423
-0.500889
-0.498359
-0.048319
-0.039909
-0.076598
-0.127530
-0.086988
-0.067996
-0.002626
-0.464420
-0.457492
-0.132569
-0.129639
-0.364558
-0.054410
-0.007743
-0.064043
0.119689
0.007865
0.009913
0.013749
0.014375
-0.447162
-0.086242
-0.042016
-0.036191
-0.038951
-0.256813
-0.330567
-0.401294
-0.385216
-0.070298
-0.326698
-0.274037
-0.491861
-0.501801
-0.488298
-0.456526
-0.451532
-0.460626
-0.362031
-0.009527
-0.013162
0.009174
-0.454558
-0.012478
0.099278
0.016736
0.009871
-0.085305
-0.061344
-0.093771
-0.051509
-0.078278
-0.042899
-0.085229
-0.323121
-0.258528
-0.361312
-0.368253
-0.579748
-0.586674
-0.027544
-0.022402
-0.128574
-0.164190
-0.039246
-0.390271
-0.602660
-0.404098
-0.567174
-0.572075
-0.561153
-0.397043
0.042496
0.031640
0.033127
0.022836
-0.032331
-0.032889
-0.422005
-0.403279
-0.409707
0.035645
0.031781
0.029677
0.024511
0.074312
0.077366
-0.583743
-0.579038
0.093623
-0.667925
-0.645527
-0.666766
0.018745
-0.000657
-0.015372
-0.480911
-0.484317
-0.468504
0.029756
0.094000
0.060224
0.041853
0.052082
0.032233
-0.495667
-0.004540
-0.010641
-0.009128
-0.002037
0.030504
0.029210
-0.624843
-0.643966
-0.643220
0.063141
-0.301327
-0.283010
-0.353112
-0.401980
-0.401976
-0.512472
0.011636
0.007710
0.020840
0.120614
0.118527
0.132666
0.103315
0.094665
0.128420
0.131401
-0.450919
-0.456025
-0.577196
-0.560732
-0.558715
-0.467715
0.009287
-0.029059
-0.566963
-0.561211
-0.575421
-0.524952
-0.515999
-0.590505
0.007014
-0.023435
-0.569565
-0.013938
-0.551252
-0.537102
-0.540340
0.120489
0.128062
-0.423686
-0.422962
-0.403854
-0.316788
-0.352427
-0.263744
-0.380228
-0.407813
-0.347777
-0.054957
-0.054099
-0.323782
-0.422353
-0.440685
-0.356790
-0.532512
-0.541506
-0.532096
-0.602891
-0.597173
-0.012145
-0.019104
-0.009571
-0.018706
-0.020175
-0.373893
-0.357827
-0.380421
-0.582773
-0.005425
-0.007748
-0.301436
-0.336335
-0.325560
0.125234
0.112509
-0.543072
0.060321
0.049300
0.054278
0.058087
-0.576882
-0.568148
-0.564958
0.070857
-0.005906
0.102110
-0.353435
-0.005526
-0.022446
-0.025091
-0.325337
0.002542
-0.009204
-0.428928
-0.412680
-0.422985
-0.079586
-0.129719
-0.060225
-0.524931
-0.528526
-0.413746
-0.359187
0.029989
0.036259
0.027231
0.041515
-0.471757
-0.478086
-0.546703
-0.495417
-0.009073
-0.018171
0.009064
0.005637
0.003881
-0.020230
-0.036846
-0.590255
-0.584320
-0.598052
-0.578823
-0.449639
-0.573368
-0.580865
-0.585963
-0.568950
-0.562248
-0.433714
-0.420203
-0.534520
-0.524498
-0.417746
-0.069969
-0.054131
-0.453066
-0.438073
-0.624378
-0.636809
-0.605437
-0.030372
-0.031746
-0.025542
-0.458243
-0.467780
-0.045924
-0.048169
-0.551801
-0.553164
-0.542615
-0.506053
-0.493929
-0.497596
-0.159081
-0.202412
-0.574012
-0.025216
0.005713
0.001833
-0.510899
-0.547999
-0.548415
-0.556888
-0.516357
-0.554032
0.043093
0.034556
-0.557154
-0.564956
-0.567178
-0.575187
0.000719
-0.004509
-0.483972
0.082788
-0.118317
-0.089978
-0.001633
-0.005870
-0.010058
-0.326781
-0.012526
-0.538647
-0.485647
-0.491160
-0.496237
-0.506493
-0.542646
-0.552392
-0.550364
-0.035924
-0.043082
-0.562582
-0.108164
0.024254
0.017135
-0.605263
-0.588770
-0.600001
-0.434005
-0.451283
-0.436748
-0.487312
0.106401
0.114208
0.102576
0.096149
0.093004
-0.522154
-0.517632
-0.547758
-0.544111
-0.557459
-0.388896
-0.105670
-0.184070
0.001973
-0.575246
-0.586404
-0.575227
-0.576015
-0.562569
-0.491964
-0.546854
-0.566104
-0.017939
-0.023342
-0.013847
-0.406903
-0.381182
-0.432448
0.012573
0.030279
0.031993
-0.281702
0.087259
0.079246
-0.552085
-0.423769
-0.119511
-0.650422
-0.666077
-0.483799
-0.497436
0.003278
-0.000279
-0.000334
-0.069819
-0.060718
0.007722
-0.053938
0.008973
-0.496383
-0.522555
-0.010228
0.015931
0.016940
0.010237
-0.062551
0.055425
-0.002529
0.089858
-0.032183
-0.382820
-0.376320
-0.363142
-0.354537
-0.006936
-0.459759
-0.471479
-0.015049
-0.606897
-0.583144
-0.590859
-0.442483
-0.427358
-0.007560
-0.002485
-0.453742
-0.462733
-0.451524
-0.034583
-0.034918
-0.029883
-0.477729
-0.463978
-0.471693
-0.526777
0.034427
0.047472
0.047900
-0.480881
-0.503389
-0.509843
-0.020813
-0.024636
-0.028652
-0.518497
-0.510882
-0.033421
-0.505772
-0.462330
-0.541311
-0.538228
0.098319
-0.040470
0.062845
0.053542
-0.479245
-0.482506
-0.399991
-0.416450
-0.017981
-0.593005
-0.391565
-0.486127
-0.522081
-0.502546
-0.469700
-0.478073
-0.476240
0.025049
0.015553
0.011446
0.040931
0.014683
0.018477
0.013136
0.019982
-0.458473
-0.475796
-0.467203
-0.472918
-0.278776
-0.193391
-0.206785
-0.238543
0.082080
-0.023050
-0.102313
-0.009280
-0.260497
-0.443523
-0.487754
-0.482836
-0.469538
-0.528122
-0.141339
-0.022645
-0.094182
-0.432915
-0.106772
-0.014503
-0.013385
-0.008782
-0.034625
-0.027488
-0.031057
-0.036570
0.016226
0.011236
0.009219
-0.295553
0.020286
-0.042172
-0.032361
0.085726
-0.540542
-0.552721
-0.538486
-0.553986
-0.567296
0.075582
0.032705
0.042895
0.011367
0.004238
-0.010781
-0.518340
-0.051246
0.002477
0.006457
0.004620
-0.033151
-0.026740
-0.030803
0.107547
0.117841
0.066608
-0.531512
-0.520001
-0.396757
-0.387246
0.001882
0.065943
0.056308
0.059353
-0.464212
-0.462489
-0.117914
-0.135181
-0.328808
-0.510973
-0.500557
-0.367499
-0.522831
0.008142
0.005212
-0.000014
-0.345204
-0.316647
-0.027203
-0.046517
-0.529757
-0.528297
-0.519075
-0.516022
-0.531452
-0.540733
0.011408
0.005101
-0.546078
0.013825
0.009269
0.013052
0.085418
0.081041
0.000652
-0.384546
-0.396292
-0.410219
-0.399233
-0.487705
-0.068759
-0.081967
-0.098891
-0.493501
-0.486262
0.042335
0.023256
0.018154
0.015290
-0.199881
-0.366055
-0.429174
-0.443146
-0.070684
-0.075198
-0.110856
-0.418589
-0.413608
-0.357036
-0.441314
-0.048375
-0.038431
-0.035308
-0.376090
-0.057178
-0.049851
-0.035678
-0.415512
-0.339873
-0.024915
0.054118
0.064565
0.060438
-0.008246
0.050605
0.063498
-0.456103
-0.474385
-0.482140
-0.496619
-0.485391
-0.489206
-0.502870
-0.402184
0.007913
-0.043994
-0.370641
-0.439710
-0.436927
0.005532
-0.000067
0.028132
0.003779
-0.005259
-0.283118
-0.362963
-0.218598
0.009690
-0.486862
0.012300
0.020201
-0.008840
-0.025778
-0.475698
-0.553316
-0.459573
0.039656
0.032864
0.014260
0.007193
0.013175
0.018712
0.041082
0.105514
-0.222907
-0.057264
-0.110278
-0.091319
-0.033139
-0.362253
-0.371602
0.085791
-0.009805
-0.352212
-0.038081
0.008529
-0.437444
-0.453437
-0.468008
-0.473105
-0.461309
-0.525567
-0.006815
-0.013756
-0.119603
-0.151697
-0.140911
-0.519985
-0.414288
-0.581577
0.008806
0.013273
-0.000067
0.017400
0.025569
-0.467126
-0.079106
-0.349568
-0.240516
-0.442103
-0.467021
-0.324768
-0.282885
-0.285684
-0.282442
-0.082926
-0.396964
-0.538811
-0.095456
-0.273943
-0.304050
-0.379202
-0.336332
-0.256770
-0.050067
-0.021196
-0.017719
-0.288497
-0.298409
-0.102748
-0.067054
-0.514345
-0.526519
-0.511922
-0.052682
-0.317378
0.012097
0.001477
-0.018035
-0.351445
-0.363692
-0.380343
-0.473083
-0.479025
-0.093835
-0.282317
0.092143
0.097949
-0.089770
-0.093726
-0.120953
-0.092557
-0.104466
-0.063394
-0.078995
-0.075723
0.064441
-0.299968
-0.423592
-0.426042
0.000924
-0.060582
-0.048336
0.096755
-0.040770
-0.090071
-0.128582
-0.563246
-0.568207
-0.332016
-0.339391
-0.421193
-0.440566
-0.422771
0.105722
-0.438357
-0.298410
-0.374651
0.041412
-0.352268
-0.113779
-0.099100
-0.401274
-0.070527
-0.083894
-0.072474
-0.341774
-0.383076
-0.034785
-0.028691
-0.013238
-0.015974
-0.019684
-0.101121
-0.609685
-0.264240
-0.307861
-0.262020
-0.115927
-0.454395
-0.454218
-0.020443
-0.016413
-0.264937
-0.092607
-0.078708
-0.121902
-0.081377
-0.071611
-0.060932
-0.064462
-0.054129
-0.398100
-0.386323
-0.335848
-0.013505
-0.020727
-0.007312
-0.398140
-0.411033
-0.060592
-0.426843
-0.424753
-0.001554
0.001620
0.006777
-0.005080
-0.415619
-0.449447
-0.453870
-0.492450
-0.047582
-0.334746
-0.056617
-0.062312
-0.529513
-0.531160
-0.015759
-0.134732
-0.086888
-0.423959
-0.029071
-0.001994
-0.027248
-0.502338
-0.508933
0.001006
-0.434257
-0.445921
-0.523104
-0.528330
-0.457779
-0.415674
-0.301392
-0.293345
-0.035114
-0.026722
-0.020865
-0.501515
-0.505414
-0.075942
-0.071974
-0.494587
-0.502039
-0.506530
-0.416761
-0.419782
-0.352052
-0.492217
-0.001439
-0.010882
-0.025194
-0.457606
-0.464714
-0.442003
-0.414912
-0.413927
-0.077857
-0.073538
-0.057088
-0.096673
-0.512658
-0.513370
-0.447136
-0.317027
-0.280086
-0.019687
-0.052036
-0.460719
0.004856
0.004833
-0.307651
-0.310264
-0.064168
-0.070850
-0.386960
-0.357662
-0.069279
-0.030051
-0.034792
-0.039448
-0.403256
-0.043701
-0.114427
0.070625
0.068192
-0.474203
-0.467062
-0.339630
-0.352954
-0.352931
-0.373240
-0.116397
-0.016473
-0.021457
-0.362651
-0.053358
-0.457915
0.053385
0.039678
0.041610
-0.455225
-0.030954
0.028450
-0.069347
-0.023810
-0.030509
-0.296308
0.031148
-0.633066
-0.618047
-0.629657
-0.479672
0.075197
0.010686
0.014552
0.004917
-0.001324
-0.558669
0.083632
-0.478937
-0.447127
-0.427586
-0.021467
-0.013719
-0.019354
-0.016371
-0.021074
-0.402019
-0.411642
-0.663996
-0.014487
-0.192263
-0.133697
-0.682107
-0.685098
-0.399853
0.011940
0.035725
0.014627
-0.270721
-0.148711
-0.156720
-0.232450
-0.412886
-0.168608
-0.437632
-0.134474
-0.030222
-0.026675
-0.050910
-0.030872
0.057150
-0.072735
-0.440566
-0.480758
-0.488181
0.069322
0.057103
0.000572
-0.052654
-0.494820
-0.500019
-0.507256
-0.051149
-0.047098
-0.044162
-0.037215
-0.412343
-0.024014
0.022680
0.032184
-0.316026
-0.501770
-0.574069
-0.105714
-0.101498
0.026878
0.007883
-0.552279
-0.563809
-0.552221
0.049276
0.047918
-0.510003
-0.338703
-0.008845
-0.013112
-0.447923
-0.013164
-0.424625
-0.383668
0.048426
0.068065
-0.242283
-0.317372
-0.335715
-0.523221
-0.062849
-0.017246
-0.015847
-0.455097
0.104212
-0.623009
-0.037876
-0.045323
-0.534929
0.057790
0.003051
-0.012303
-0.464706
-0.006452
-0.128819
-0.486050
0.045242
-0.476766
-0.068861
-0.085389
0.005561
-0.252148
0.019747
-0.463505
-0.383228
-0.027507
-0.026292
-0.463576
0.073682
0.043886
-0.369862
-0.366971
-0.053714
-0.214170
-0.638063
-0.655278
-0.642529
-0.404095
-0.458207
-0.091280
-0.543648
-0.107441
0.039978
0.036318
-0.308673
-0.551182
-0.562758
-0.281062
0.073848
0.067495
-0.053268
-0.059501
-0.283134
-0.336951
-0.521572
-0.531741
-0.041006
-0.400110
-0.152349
-0.158892
-0.486721
-0.583885
0.026572
0.024255
0.009550
0.034226
-0.145817
0.069042
0.053300
-0.080338
-0.390820
-0.419287
0.033754
0.022368
-0.422951
-0.031616
-0.226330
-0.459066
-0.042820
-0.287518
-0.465669
-0.004648
0.033163
-0.378728
-0.388340
-0.468536
-0.439433
-0.016700
-0.007723
-0.006708
-0.073229
-0.012341
-0.401588
-0.298908
-0.467718
-0.152113
-0.025139
-0.289981
-0.410933
-0.090950
-0.022681
-0.093534
-0.062942
-0.057668
0.068042
0.096949
-0.258284
-0.254838
-0.295033
-0.537973
0.043310
-0.443975
-0.087825
-0.079794
-0.229350
-0.106270
-0.483662
-0.032399
-0.386856
-0.166649
-0.026154
-0.348124
-0.274893
-0.267312
-0.475559
-0.291582
-0.259510
-0.471424
-0.025983
-0.347427
-0.270880
-0.094708
-0.141705
-0.124356
-0.272398
-0.266478
-0.020430
-0.394167
-0.402456
-0.107944
-0.227250
-0.091147
-0.260315
-0.348722
-0.288822
-0.336822
-0.261343
-0.113571
-0.345951
-0.277129
-0.138768
-0.217592
-0.410330
-0.035876
-0.091882
-0.261203
-0.365153
-0.340047
-0.127216
-0.053232
-0.028547
-0.268341
-0.105314
-0.305932
-0.380254
-0.113425
-0.039414
-0.016316
-0.027707
0.000928
-0.465752
-0.092700
-0.434746
-0.228863
-0.444092
0.021117
-0.143757
-0.044898
-0.474918
-0.057810
-0.051176
-0.055562
-0.448101
-0.112660
-0.296318
-0.341224
-0.235516
-0.153981
-0.463240
-0.064726
-0.011547
-0.330498
-0.377102
-0.079498
SCALARS UY float 1
LOOKUP_TABLE default
-0.000003
-0.000003
-0.859999
-0.859999
-0.221191
-0.466712
-0.000001
-0.000001
-0.000001
-0.000001
-0.000001
-0.000001
-0.000001
-0.000001
-0.000001
-0.000001
-0.000001
-0.000001
-0.000001
-0.000001
-0.000001
-0.000001
-0.044304
-0.075194
-0.099029
-0.121693
-0.143480
-0.165602
-0.188134
-0.210810
-0.233617
-0.256134
-0.279626
-0.302805
-0.330989
-0.374720
-0.539623
-0.713912
-0.859999
-0.859999
-0.859999
-0.859999
-0.859999
-0.859999
-0.859999
-0.859999
-0.859999
-0.859999
-0.859999
-0.859999
-0.859999
-0.859999
-0.859999
-0.859999
-0.833859
-0.807505
-0.781382
-0.755863
-0.730283
-0.705152
-0.679788
-0.653843
-0.627175
-0.601189
-0.577515
-0.558226
-0.531424
-0.476936
-0.316879
-0.166022
-0.224178
-0.226071
-0.227709
-0.231948
-0.238433
-0.241655
-0.242945
-0.243957
-0.248165
-0.248821
-0.249985
-0.256878
-0.262988
-0.263413
-0.268978
-0.270455
-0.275456
-0.278298
-0.280964
-0.284447
-0.287044
-0.288476
-0.292634
-0.297444
-0.295193
-0.293078
-0.297604
-0.303207
-0.303139
-0.304359
-0.311667
-0.331447
-0.325498
-0.337726
-0.333371
-0.337311
-0.345123
-0.347602
-0.352188
-0.357633
-0.361882
-0.364563
-0.370383
-0.373608
-0.376748
-0.380181
-0.382219
-0.388835
-0.393386
-0.398127
-0.404499
-0.408021
-0.409184
-0.414485
-0.419602
-0.417342
-0.436867
-0.437801
-0.437150
-0.442630
-0.445782
-0.447730
-0.452557
-0.455732
-0.456953
-0.460617
-0.017844
-0.009141
-0.020415
-0.468913
-0.490964
-0.510394
-0.010480
-0.216926
-0.222318
-0.199406
-0.047352
-0.051626
-0.055555
-0.061089
-0.142691
-0.132687
-0.136090
-0.555310
-0.548847
-0.559453
-0.416653
-0.496176
-0.447760
-0.337056
-0.338682
-0.370765
-0.548828
-0.199255
-0.177998
-0.618441
-0.634307
-0.624828
-0.640122
-0.555324
-0.573938
-0.587259
-0.007136
-0.018051
-0.008914
-0.836133
-0.815679
-0.814465
-0.514829
-0.501291
-0.796647
-0.425248
-0.290153
-0.307800
-0.306886
-0.575568
-0.566421
-0.571025
-0.146996
-0.137703
-0.134426
-0.568796
-0.158868
-0.165990
-0.173918
-0.521011
-0.505785
-0.507103
-0.016003
-0.507998
-0.485046
-0.480284