# vtk DataFile Version 2.0
Test
ASCII
DATASET POLYDATA
POINTS 1437 float
0.000000 0.000000 0.000000
30.000000 0.000000 0.000000
30.000000 100.000000 0.000000
0.000000 100.000000 0.000000
16.400000 50.000000 0.000000
2.142857 0.000000 0.000000
4.285714 0.000000 0.000000
6.428571 0.000000 0.000000
8.571429 0.000000 0.000000
10.714286 0.000000 0.000000
12.857143 0.000000 0.000000
15.000000 0.000000 0.000000
17.142857 0.000000 0.000000
19.285714 0.000000 0.000000
21.428571 0.000000 0.000000
23.571429 0.000000 0.000000
25.714286 0.000000 0.000000
27.857143 0.000000 0.000000
30.000000 2.040816 0.000000
30.000000 4.081633 0.000000
30.000000 6.122449 0.000000
30.000000 8.163265 0.000000
30.000000 10.204082 0.000000
30.000000 12.244898 0.000000
30.000000 14.285714 0.000000
30.000000 16.326531 0.000000
30.000000 18.367347 0.000000
30.000000 20.408163 0.000000
30.000000 22.448980 0.000000
30.000000 24.489796 0.000000
30.000000 26.530612 0.000000
30.000000 28.571429 0.000000
30.000000 30.612245 0.000000
30.000000 32.653061 0.000000
30.000000 34.693878 0.000000
30.000000 36.734694 0.000000
30.000000 38.775510 0.000000
30.000000 40.816327 0.000000
30.000000 42.857143 0.000000
30.000000 44.897959 0.000000
30.000000 46.938776 0.000000
30.000000 48.979592 0.000000
30.000000 51.020408 0.000000
30.000000 53.061224 0.000000
30.000000 55.102041 0.000000
30.000000 57.142857 0.000000
30.000000 59.183673 0.000000
30.000000 61.224490 0.000000
30.000000 63.265306 0.000000
30.000000 65.306122 0.000000
30.000000 67.346939 0.000000
30.000000 69.387755 0.000000
30.000000 71.428571 0.000000
30.000000 73.469388 0.000000
30.000000 75.510204 0.000000
30.000000 77.551020 0.000000
30.000000 79.591837 0.000000
30.000000 81.632653 0.000000
30.000000 83.673469 0.000000
30.000000 85.714286 0.000000
30.000000 87.755102 0.000000
30.000000 89.795918 0.000000
30.000000 91.836735 0.000000
30.000000 93.877551 0.000000
30.000000 95.918367 0.000000
30.000000 97.959184 0.000000
27.857143 100.000000 0.000000
25.714286 100.000000 0.000000
23.571429 100.000000 0.000000
21.428571 100.000000 0.000000
19.285714 100.000000 0.000000
17.142857 100.000000 0.000000
15.000000 100.000000 0.000000
12.857143 100.000000 0.000000
10.714286 100.000000 0.000000
8.571429 100.000000 0.000000
6.428571 100.000000 0.000000
4.285714 100.000000 0.000000
2.142857 100.000000 0.000000
0.000000 97.959184 0.000000
0.000000 95.918367 0.000000
0.000000 93.877551 0.000000
0.000000 91.836735 0.000000
0.000000 89.795918 0.000000
0.000000 87.755102 0.000000
0.000000 85.714286 0.000000
0.000000 83.673469 0.000000
0.000000 81.632653 0.000000
0.000000 79.591837 0.000000
0.000000 77.551020 0.000000
0.000000 75.510204 0.000000
0.000000 73.469388 0.000000
0.000000 71.428571 0.000000
0.000000 69.387755 0.000000
0.000000 67.346939 0.000000
0.000000 65.306122 0.000000
0.000000 63.265306 0.000000
0.000000 61.224490 0.000000
0.000000 59.183673 0.000000
0.000000 57.142857 0.000000
0.000000 55.102041 0.000000
0.000000 53.061224 0.000000
0.000000 51.020408 0.000000
0.000000 48.979592 0.000000
0.000000 46.938776 0.000000
0.000000 44.897959 0.000000
0.000000 42.857143 0.000000
0.000000 40.816327 0.000000
0.000000 38.775510 0.000000
0.000000 36.734694 0.000000
0.000000 34.693878 0.000000
0.000000 32.653061 0.000000
0.000000 30.612245 0.000000
0.000000 28.571429 0.000000
0.000000 26.530612 0.000000
0.000000 24.489796 0.000000
0.000000 22.448980 0.000000
0.000000 20.408163 0.000000
0.000000 18.367347 0.000000
0.000000 16.326531 0.000000
0.000000 14.285714 0.000000
0.000000 12.244898 0.000000
0.000000 10.204082 0.000000
0.000000 8.163265 0.000000
0.000000 6.122449 0.000000
0.000000 4.081633 0.000000
0.000000 2.040816 0.000000
16.388506 50.179028 0.000000
16.354213 50.355116 0.000000
16.297683 50.525374 0.000000
16.219846 50.687005 0.000000
16.121979 50.837355 0.000000
16.005689 50.973956 0.000000
15.872886 51.094564 0.000000
15.725750 51.197200 0.000000
15.566697 51.280178 0.000000
15.398339 51.342135 0.000000
15.223440 51.382054 0.000000
15.044872 51.399281 0.000000
14.865568 51.393531 0.000000
14.688471 51.364899 0.000000
14.516489 51.313856 0.000000
14.352446 51.241239 0.000000
14.199037 51.148241 0.000000
14.058779 51.036389 0.000000
13.933976 50.907520 0.000000
13.826677 50.763749 0.000000
13.738644 50.607437 0.000000
13.671322 50.441152 0.000000
13.625817 50.267622 0.000000
13.602876 50.089698 0.000000
13.602876 49.910302 0.000000
13.625817 49.732378 0.000000
13.671322 49.558848 0.000000
13.738644 49.392563 0.000000
13.826677 49.236251 0.000000
13.933976 49.092480 0.000000
14.058779 48.963611 0.000000
14.199037 48.851759 0.000000
14.352446 48.758761 0.000000
14.516489 48.686144 0.000000
14.688471 48.635101 0.000000
14.865568 48.606469 0.000000
15.044872 48.600719 0.000000
15.223440 48.617946 0.000000
15.398339 48.657865 0.000000
15.566697 48.719822 0.000000
15.725750 48.802800 0.000000
15.872886 48.905436 0.000000
16.005689 49.026044 0.000000
16.121979 49.162645 0.000000
16.219846 49.312995 0.000000
16.297683 49.474626 0.000000
16.354213 49.644884 0.000000
16.388506 49.820972 0.000000
16.142290 51.090246 0.000000
16.381031 49.246029 0.000000
16.476220 50.570036 0.000000
16.567534 49.809478 0.000000
13.432060 49.919357 0.000000
27.959184 67.346939 0.000000
15.062546 51.587060 0.000000
27.959184 79.591837 0.000000
2.040816 20.408163 0.000000
2.040816 30.612245 0.000000
2.040816 81.632653 0.000000
2.040816 69.387755 0.000000
27.959184 16.326531 0.000000
27.959184 24.489796 0.000000
27.959184 32.653061 0.000000
2.000226 63.022103 0.000000
2.040816 38.775510 0.000000
27.959184 38.775510 0.000000
2.063520 56.953992 0.000000
27.959184 59.183673 0.000000
15.000000 97.857143 0.000000
15.000000 2.142857 0.000000
27.959184 44.897959 0.000000
27.959184 51.020408 0.000000
2.058026 48.891267 0.000000
2.040816 12.244898 0.000000
27.959184 8.163265 0.000000
2.119286 91.907213 0.000000
27.959184 87.755102 0.000000
8.571429 2.142857 0.000000
21.428571 97.857143 0.000000
2.040816 6.122449 0.000000
27.959184 93.877551 0.000000
23.571429 2.142857 0.000000
6.428571 97.857143 0.000000
2.040816 44.897959 0.000000
15.808727 51.356253 0.000000
2.040816 77.551020 0.000000
27.959184 71.428571 0.000000
2.040816 26.530612 0.000000
4.285714 2.142857 0.000000
25.714286 97.857143 0.000000
2.021897 52.958989 0.000000
27.959184 53.061224 0.000000
27.914278 55.273576 0.000000
27.959184 61.224490 0.000000
27.879705 47.169173 0.000000
2.040816 36.734694 0.000000
1.985319 42.671502 0.000000
2.040816 4.081633 0.000000
27.959184 95.918367 0.000000
27.842785 41.012410 0.000000
27.904213 63.341606 0.000000
1.981595 60.897410 0.000000
2.040816 34.693878 0.000000
2.142857 97.857143 0.000000
27.857143 2.142857 0.000000
21.428571 2.142857 0.000000
8.571429 97.857143 0.000000
19.285714 2.142857 0.000000
10.714286 97.857143 0.000000
12.857143 2.142857 0.000000
17.142857 97.857143 0.000000
2.040816 73.469388 0.000000
2.040816 85.714286 0.000000
27.959184 28.571429 0.000000
27.957036 12.244796 0.000000
27.959184 20.408163 0.000000
27.959184 75.510204 0.000000
27.959184 81.632653 0.000000
2.040816 24.489796 0.000000
2.040816 18.367347 0.000000
2.101567 67.270721 0.000000
27.990742 34.718564 0.000000
2.040816 16.326531 0.000000
2.040816 10.204082 0.000000
2.040816 89.795918 0.000000
27.959184 83.673469 0.000000
27.959184 89.795918 0.000000
2.098379 2.081372 0.000000
27.901617 97.918624 0.000000
28.130079 4.091715 0.000000
1.869924 95.908287 0.000000
16.576970 50.167357 0.000000
25.954712 32.689406 0.000000
4.048051 69.354174 0.000000
4.081633 24.489796 0.000000
25.916213 79.588913 0.000000
4.086221 18.371935 0.000000
3.897904 34.877606 0.000000
3.923124 61.572806 0.000000
26.128612 39.133691 0.000000
26.214823 61.491956 0.000000
3.871989 43.375621 0.000000
26.265426 45.355943 0.000000
26.372982 51.593494 0.000000
15.011971 95.726257 0.000000
14.987483 4.273197 0.000000
4.095212 12.258477 0.000000
25.904714 87.741449 0.000000
8.590547 95.733404 0.000000
4.124327 91.817489 0.000000
23.644909 4.177846 0.000000
1.898679 46.664421 0.000000
1.887660 50.867252 0.000000
28.104743 49.216969 0.000000
28.091622 57.507646 0.000000
1.793213 54.763850 0.000000
1.898425 40.673936 0.000000
28.092220 43.114891 0.000000
1.898792 59.041649 0.000000
26.349643 53.492500 0.000000
3.788008 38.504633 0.000000
26.348185 4.174096 0.000000
28.073402 36.848913 0.000000
3.770644 95.809804 0.000000
1.947709 64.759841 0.000000
27.961478 65.481833 0.000000
2.032166 32.492602 0.000000
21.409200 4.266343 0.000000
6.436167 2.135262 0.000000
23.563887 97.864684 0.000000
17.151762 2.133952 0.000000
12.848401 97.865884 0.000000
10.720797 2.136346 0.000000
19.279431 97.863426 0.000000
25.741048 2.116095 0.000000
4.208553 97.884202 0.000000
2.040816 71.428571 0.000000
27.959184 73.469388 0.000000
2.040044 28.570656 0.000000
2.040816 79.591837 0.000000
2.040816 75.510204 0.000000
27.959184 30.612245 0.000000
27.959184 69.387755 0.000000
27.959184 77.551020 0.000000
2.040816 22.448980 0.000000
27.959184 22.448980 0.000000
27.959252 26.530681 0.000000
27.959184 18.367347 0.000000
2.040816 83.673469 0.000000
27.959184 14.285714 0.000000
25.913747 81.628033 0.000000
2.043283 87.757569 0.000000
2.046930 14.291828 0.000000
27.956122 10.201020 0.000000
27.953028 85.708130 0.000000
2.051111 8.173560 0.000000
27.948877 91.826428 0.000000
27.877535 6.025956 0.000000
2.132881 93.976795 0.000000
4.000357 6.267740 0.000000
4.120886 4.222927 0.000000
25.999609 93.732219 0.000000
25.879089 95.777048 0.000000
15.649674 48.560769 0.000000
26.010158 67.277614 0.000000
25.918367 24.489796 0.000000
4.081633 79.591837 0.000000
25.916050 16.328010 0.000000
23.873553 79.584761 0.000000
3.481175 55.433151 0.000000
24.733850 51.947925 0.000000
3.652422 50.744354 0.000000
25.910700 12.249504 0.000000
23.509255 6.363423 0.000000
26.366938 49.758281 0.000000
26.399277 43.548901 0.000000
3.661711 59.758281 0.000000
25.957156 34.691433 0.000000
10.699495 4.264413 0.000000
19.300303 95.735157 0.000000
17.109994 4.256463 0.000000
[...]
POINT_DATA 1437
SCALARS UX float 1
LOOKUP_TABLE default
0.000000
0.000000
0.000000
0.000000
24.151588
-0.000000
0.000000
0.000000
0.000000
0.000000
0.000000
0.000000
0.000000
0.000000
0.000000
0.000000
0.000000
-0.000000
0.841963
1.665860
2.358105
3.176536
4.000204
4.914110
5.866115
6.841127
7.854397
8.920328
9.989524
11.071423
12.155973
13.241161
14.313445
15.363334
16.382331
17.366636
18.285363
19.135553
19.871593
20.472260
20.920869
21.143963
21.134640
20.912449
20.488718
19.880036
19.133655
18.293421
17.376455
16.399227
15.374711
14.324601
13.247944
12.166901
11.076043
9.992032
8.915871
7.865677
6.845999
5.840726
4.925247
4.025655
3.168602
2.417217
1.674502
0.933417
-0.000000
0.000000
0.000000
0.000000
0.000000
0.000000
0.000000
0.000000
0.000000
0.000000
0.000000
0.000000
-0.000000
0.840819
1.669590
2.363713
3.166709
4.028599
4.900850
5.863616
6.840142
7.863141
8.915041
9.987062
11.066341
12.156462
13.242000
14.315840
15.373386
16.397439
17.366262
18.289413
19.122237
19.872851
20.482189
20.904732
21.140054
21.143959
20.917184
20.480848
19.879165
19.135824
18.288501
17.376939
16.394258
15.373433
14.322388
13.250118
12.162728
11.076015
9.993154
8.920934
7.869216
6.847347
5.838217
4.923454
4.024215
3.167474
2.416434
1.674096
0.933203
24.150708
24.145958
24.141098
24.135638
24.123438
24.111096
24.101864
24.088360
24.088328
24.078028
24.080804
24.075615
24.072116
24.078928
24.085131
24.091613
24.099925
24.108943
24.118490
24.127969
24.133427
24.139092
24.143426
24.145046
24.143771
24.142957
24.139012
24.133833
24.126568
24.114114
24.105471
24.095655
24.087904
24.078139
24.074869
24.074746
24.074330
24.075635
24.079146
24.084219
24.093491
24.103281
24.112612
24.122730
24.130990
24.139551
24.146020
24.152960
23.950375
24.013522
24.034526
24.062727
24.065642
15.461675
23.823765
8.852773
8.857240
14.383387
7.778123
14.381607
6.731083
11.058959
15.456959
17.634140
18.467158
18.470323
20.191973
19.345709
0.438862
0.447863
20.760734
21.460873
21.466238
4.746598
2.943685
2.914831
4.748522
0.458676
0.459535
2.151074
2.151879
0.505588
0.494479
20.762830
23.892487
9.947643
13.290367
12.177275
0.521777
0.521957
21.236398
21.217734
20.726174
18.470284
21.276932
17.525777
20.049205
1.400046
1.400394
19.437479
17.491504
18.611735
16.508018
0.691665
0.693705
0.466187
0.478495
0.452143
0.458274
0.449893
0.455101
12.171001
5.716478
13.282396
4.752673
8.857923
11.062656
7.776844
11.061274
7.780993
15.507376
16.513227
6.737255
3.837573
3.825790
6.735356
3.839034
0.634571
0.634757
1.388554
1.392024
24.062605
15.552363
14.454034
11.051346
8.806616
7.707960
16.690076
18.444439
18.766557
18.468126
20.487693
21.085881
21.636333
1.037791
1.042661
4.623447
4.625220
1.072503
2.807175
1.095106
21.151458
21.447509
21.459082
19.976579
20.820551
19.272141
20.197482
19.384660
21.341645
18.467450
1.252905
17.563799
1.253433
16.784055
16.426266
15.380922
1.068442
0.492535
0.492810
0.445217
0.444659
0.451684
0.453777
0.546645
0.545261
13.282423
12.179185
13.289345
8.856868
11.057524
14.380687
14.384768
9.952667
9.953102
9.951514
12.170921
7.774933
6.729235
5.716697
7.703011
4.751945
5.717854
3.830686
5.720691
2.979530
2.980744
2.088218
2.093967
2.038611
1.224712
2.039563
1.224963
23.867279
15.575265
11.047583
8.795259
6.626744
8.758815
20.827097
21.815282
21.700916
4.614977
1.905958
21.717210
20.521154
19.240744
16.595391
1.066359
1.061863
1.041774
1.042026
13.320789
11.047431
13.335865
9.921575
5.619593
5.624001
3.679483
3.680818
19.148224
21.457853
19.514365
17.774120
19.289641
21.487897
20.944279
20.442347
15.780151
14.440783
12.188910
2.821791
1.150147
16.794885
16.652800
17.583072
17.654653
1.051005
1.060821
20.933189
1.047214
1.034948
13.316963
14.458320
1.093401
1.093240
15.531352
12.188897
9.917126
8.799834
7.702421
5.600624
8.808639
3.664563
6.634297
6.630377
17.634043
23.836371
2.817059
2.818442
1.999528
2.027535
19.799852
17.598802
17.744346
16.780849
11.049798
14.494343
6.556431
16.653815
20.583207
13.340328
8.753614
21.251204
20.597207
1.790878
1.762228
4.536561
3.554060
1.794831
4.536227
14.473870
9.895250
23.921914
19.351045
1.902803
21.593304
2.715767
1.775753
1.844021
20.300419
18.030982
16.597098
15.516122
19.313718
21.481508
19.215901
21.681701
16.625406
19.545010
1.743725
13.313049
12.203484
1.095126
1.093641
18.565573
1.770790
1.762488
14.437895
9.898456
11.051364
12.184141
9.917233
9.919067
7.706283
8.758568
7.648554
4.609600
3.670628
6.629438
5.594995
6.573044
3.596834
3.598367
1.915939
1.917222
21.335141
19.978547
21.622143
19.986334
21.911765
23.996812
19.381495
17.593299
11.036334
6.565980
17.570905
16.508969
21.737077
21.879476
11.038363
9.875899
21.132847
23.931264
2.666555
2.616573
6.558376
2.561355
2.583444
20.760474
14.471761
13.346184
12.193966
7.623939
21.028156
23.903740
4.479517
4.539141
1.813799
1.815942
21.104399
18.433920
1.814997
22.093873
21.548078
21.877982
21.706357
20.143925
1.763116
15.598360
15.567672
13.321229
14.456097
17.745059
1.790739
18.811163
15.584966
1.764878
12.194130
13.360879
12.190091
9.891417
8.749649
7.641779
9.876450
11.044874
9.892604
5.541394
5.508197
7.643748
19.981718
5.539202
4.507264
18.577063
23.903835
20.014741
2.750461
2.752335
4.527439
3.598747
2.638969
19.909498
24.016807
21.078456
21.875705
21.784310
19.785483
17.263761
24.015020
19.767206
20.039361
21.737306
21.114199
14.520765
22.020232
16.650554
14.480538
11.029796
9.868196
6.501397
11.030666
2.586998
17.523608
18.421119
19.351209
20.003791
2.603836
22.086927
14.445338
13.375613
12.194541
7.601838
6.537944
18.629567
18.453533
20.598416
2.624392
3.558067
3.509093
3.512925
20.349974
21.999935
21.002761
21.015408
21.868115
18.235967
15.586161
21.536697
16.634268
12.213296
12.216121
2.599437
16.616603
2.599741
13.348458
11.034459
7.641219
9.866349
8.682598
15.521438
7.601064
11.037381
5.450346
8.748113
5.515348
21.405140
5.486290
6.532975
5.505130
4.497122
3.590358
2.659765
2.624291
2.626529
21.391046
23.901559
21.702313
23.946717
17.488709
20.044154
19.222360
21.622327
22.262797
22.078819
18.459866
16.597140
14.487630
11.024007
8.705897
8.750717
6.497043
16.620639
11.022810
6.528886
21.493389
17.607851
12.195978
8.719803
6.564197
23.751931
20.658382
19.227949
18.476098
24.054518
22.105272
21.191989
3.518634
20.471959
3.522704
20.559192
3.557015
3.532516
20.525016
21.412195
19.100541
21.926955
15.571478
2.586254
12.204489
15.604058
17.578437
19.993077
11.030797
12.194256
15.540051
2.607342
14.495849
13.376353
13.330959
6.505930
9.857905
7.604408
8.722562
5.462759
4.450012
22.145666
5.546741
4.423277
5.441484
17.299555
20.263180
21.273731
21.862557
23.746301
20.760899
22.307004
21.483814
22.349716
18.456406
15.625294
14.502035
13.381293
11.024059
8.708773
6.493565
16.582874
17.497347
12.193661
9.809815
6.464797
6.547040
21.999406
20.577602
20.679156
19.196741
15.554244
12.190635
12.183685
13.339281
22.301765
22.158492
19.297848
19.885740
21.690527
21.251995
3.643162
4.482491
16.590847
17.550269
18.931487
19.690811
3.507977
3.501601
16.638679
18.466685
13.340776
21.394287
15.586575
8.709030
14.460674
3.521335
5.476910
7.584084
9.853777
3.572890
9.887164
21.039108
7.646600
7.648543
18.175577
4.436053
4.542306
4.476426
21.934372
21.577804
20.895063
19.961090
24.071883
21.086176
23.986357
19.906157
20.581760
21.446523
19.782722
17.771921
15.540961
13.344529
11.062704
16.617297
8.768718
11.909574
9.858496
4.839420
19.236973
21.542289
22.145596
7.562262
5.563247
4.484853
19.554585
18.292167
4.497013
22.076484
21.905551
4.453019
19.206417
17.553260
21.954181
21.332563
20.406170
22.444149
16.664777
21.275762
13.365381
12.209594
14.538563
17.554541
19.180239
3.506266
13.341259
15.548463
7.615877
11.015373
5.417451
9.860762
20.173272
15.595800
7.583369
7.805321
8.595955
4.450195
6.503056
5.493487
5.408825
21.030167
21.098778
21.825626
22.222364
21.865641
20.496383
22.169066
20.600557
20.902576
21.402418
22.364632
22.266169
19.524961
19.202127
17.536965
23.876783
14.405660
12.004221
17.407323
9.943657
7.790482
20.794512
13.337126
13.347255
5.664652
19.601813
12.195162
16.652046
10.979610
9.849040
8.701025
7.610109
8.716823
7.583085
6.490250
16.474552
6.461251
21.582619
18.459446
16.588698
21.420378
22.508335
22.024063
18.441159
14.511716
15.616311
22.543507
14.464252
18.457614
17.615845
14.458963
10.919977
12.211936
9.935353
8.848525
21.096967
21.762406
20.875427
19.892199
5.607670
22.398250
23.916495
5.741998
21.780797
21.700030
7.641051
20.132823
18.823876
22.196539
4.587005
5.498840
22.082957
20.417622
21.640232
20.947618
21.237415
23.781530
21.664560
22.575303
22.510377
18.424140
19.116132
20.416432
15.580646
18.497778
14.475314
23.959323
14.467391
13.359317
21.668296
12.212237
11.098664
18.778812
9.921631
16.578387
17.560655
22.476475
23.871232
20.207789
21.829151
19.860713
15.519503
17.537621
22.057178
16.646259
12.942688
15.565926
21.568611
8.771444
22.006474
11.015817
14.366820
21.247412
22.623649
13.281839
20.963711
22.505695
6.948661
21.765771
12.123193
11.024415
20.446859
22.388965
9.857320
10.144153
19.859625
8.912747
8.724428
6.694242
17.556841
7.679774
19.167559
6.624623
5.614346
18.327338
22.320916
21.756904
19.120499
20.820947
20.803365
21.210832
21.959319
22.625967
21.968136
19.373140
22.091303
19.073158
19.869043
22.321673
22.538696
17.717864
18.358087
20.310423
22.438731
22.677006
22.390012
21.172382
18.276694
21.933208
22.068752
20.844854
16.456505
21.629393
24.044162
15.531990
22.729751
14.521346
21.405224
20.372825
19.234119
20.264641
13.369178
23.827173
23.710372
21.264612
12.209498
18.293437
11.027378
16.557551
19.770924
23.993178
17.322286
20.665357
21.590650
22.271022
22.559265
23.685024
21.522425
22.263373
20.658948
22.303941
20.349430
23.702532
20.435784
22.211933
22.671348
19.137736
19.300531
21.164839
22.632432
23.954638
23.990178
21.572261
19.839789
20.794894
23.889922
18.572707
21.871119
22.775410
22.332028
22.809061
22.481470
22.263154
21.945090
21.287711
19.762111
21.537666
23.835975
19.641579
18.923119
23.620577
22.091465
20.766966
20.032793
15.405292
22.678740
20.280700
22.686276
18.991344
22.141851
21.670134
22.506501
22.746770
23.523576
22.263211
20.393363
20.260890
21.449104
19.976259
20.964823
19.559617
23.649487
22.623632
24.059433
19.769348
22.746536
22.916024
20.900202
21.914480
21.725383
22.061517
21.779556
22.838084
22.295086
20.127161
22.526274
22.366336
23.730587
22.590844
21.172459
23.536275
22.832870
19.662778
23.774580
24.062850
21.126669
21.263594
21.797803
19.945075
23.552177
22.278604
22.087511
21.055397
22.556033
20.765337
22.015510
20.318641
21.492026
22.667427
23.962363
21.390515
22.827251
22.305583
22.711552
22.974302
20.619720
22.900684
22.988925
20.602544
21.964617
21.634618
20.887763
22.887366
23.527596
22.407159
23.578931
23.741106
20.351690
24.066114
21.851692
22.142440
23.481809
20.183006
21.661796
22.533234
21.924251
22.205434
22.045858
22.511318
21.201321
23.023863
23.419253
22.825953
22.650407
20.990864
22.475530
23.653502
22.654434
20.696764
21.784644
21.720686
22.181862
22.949691
21.167305
23.976248
23.122535
22.726642
23.022639
23.325978
22.923839
23.818110
21.551008
22.449401
22.777235
23.856786
23.367197
21.936136
23.601750
20.681450
23.369924
20.835703
21.847440
21.990574
22.365913
22.791400
21.627589
21.826292
22.787348
22.389833
23.191302
21.246610
23.224214
21.154393
23.310472
23.837413
23.682430
23.490826
22.853224
23.163082
22.296036
23.167013
22.449157
21.569250
22.896732
23.076076
22.927307
23.092879
21.375861
21.445076
23.011578
22.948567
21.102237
23.856195
23.485469
23.575108
23.693457
21.890756
22.788244
20.859235
22.569889
22.279474
23.300685
23.134834
21.957507
23.494406
23.690127
21.480759
23.842278
21.585785
23.211314
23.847041
22.225826
23.299115
22.955471
22.515691
22.236315
21.394511
23.199324
22.705388
23.162703
23.465015
21.919709
21.815677
23.049425
21.354235
23.153868
23.013032
23.331843
23.148400
23.616433
22.971201
23.740408
21.251057
23.444574
22.646230
23.013868
23.439137
23.879741
22.542362
22.559438
22.237330
23.368796
23.053042
23.610935
22.996980
23.077955
22.497553
21.965815
23.035678
23.492414
21.625079
23.364288
23.121581
23.471355
23.345949
22.908453
21.764561
23.211170
23.139272
22.544161
23.361032
23.278700
22.278963
23.214668
21.979810
21.765231
22.141480
23.011073
23.652472
23.748931
23.262187
22.813832
21.591755
23.127044
22.461350
23.578741
22.237457
23.607587
22.950207
23.462331
21.854882
22.161576
22.659133
22.383623
23.264506
23.526549
23.387596
23.175461
22.527731
23.379386
22.790247
23.367880
22.809472
22.959074
23.501160
23.410021
22.085888
23.236873
22.737980
23.251459
22.149426
23.677085
21.959529
22.861836
23.116228
23.141405
22.413362
23.203566
22.693042
23.565819
23.332550
23.287188
22.552654
23.598852
22.989586
23.486843
23.770294
23.580349
22.209725
22.855829
22.528838
23.299676
22.828991
22.785758
23.853359
23.352625
23.546765
23.802326
23.429674
23.019754
23.241378
22.050367
23.521184
23.834218
23.017777
22.236990
23.413027
23.646786
23.186521
23.084349
22.573106
23.272645
23.843730
23.658157
22.804807
23.458718
22.725288
23.586221
23.017097
23.566548
23.406621
23.597636
23.837403
22.545472
23.178134
22.376982
22.782602
23.926996
23.688791
22.842290
22.937351
22.542193
23.387009
23.413893
23.690559
23.665137
23.722644
22.873085
23.313054
23.801947
23.007434
23.739643
23.042746
23.556379
23.735441
23.107276
22.683295
23.434137
22.826460
23.070836
23.419386
23.610580
23.431865
23.599568
23.894509
22.260086
22.829982
22.715482
23.057437
23.596570
23.609916
22.859936
23.734419
23.246410
23.762053
23.262971
23.862351
23.826994
23.886764
22.954777
23.233927
23.908861
23.811580
23.512749
22.672288
23.615687
23.059672
23.725083
23.234608
23.365139
23.351874
23.290952
23.975637
24.041886
22.970017
23.876268
23.486588
24.023715
23.115311
23.890333
23.880620
23.799072
23.951342
23.832638
23.793619
23.972232
23.367599
23.701229
22.584461
24.008487
23.080198
23.581887
23.201206
23.841824
23.525884
23.718534
23.938045
23.825562
23.949829
22.888586
23.953754
24.060135
23.593856
23.110794
23.656190
23.375103
24.084624
23.512202
23.728918
24.006083
23.154425
23.230572
23.609904
23.891991
23.759971
23.413638
SCALARS UY float 1
LOOKUP_TABLE default
0.000000
-0.000000
0.000000
-0.000000
0.006848
0.000000
0.000000
0.000000
0.000000
0.000000
0.000000
0.000000
-0.000000
-0.000000
-0.000000
-0.000000
-0.000000
-0.000000
-0.886925
-1.712367
-2.397637
-2.968488
-3.480784
-3.903475
-4.267856
-4.585419
-4.839049
-5.018487
-5.136111
-5.189283
-5.192510
-5.128441
-4.997500
-4.799779
-4.534088
-4.194892
-3.769016
-3.264359
-2.675971
-1.981807
-1.229940
-0.420393
0.427274
1.234828
1.990978
2.675666
3.277498
3.782025
4.202960
4.546415
4.815262
5.015026
5.138019
5.210076
5.214380
5.153853
5.030682
4.845399
4.600314
4.296668
3.911368
3.482540
2.994234
2.409777
1.761770
1.002647
0.000000
0.000000
0.000000
0.000000
0.000000
0.000000
-0.000000
-0.000000
-0.000000
-0.000000
-0.000000
-0.000000
-0.000000
-0.889273
-1.716537
-2.403215
-2.968530
-3.464201
-3.908067
-4.271358
-4.585534
-4.833367
-5.020373
-5.134610
-5.199490
-5.198136
-5.133538
-5.003974
-4.807573
-4.541759
-4.192770
-3.770867
-3.263904
-2.667963
-1.993593
-1.216702
-0.411795
0.424982
1.233148
2.001993
2.679469
3.274123
3.781796
4.202882
4.546028
4.811700
5.011395
5.143974
5.215790
5.207649
5.149566
5.027482
4.843918
4.600601
4.297483
3.911615
3.482500
2.994039
2.409489
1.761493
1.002495
0.012698
0.016763
0.021568
0.025469
0.026385
0.025056
0.028024
0.023133
0.022251
0.017202
0.015570
0.010409
0.007896
-0.004582
-0.006340
-0.006481
-0.011289
-0.009704
-0.008293
-0.008707
-0.005979
-0.005981
-0.002167
0.005025
0.010377
0.014997
0.019391
0.019636
0.023215
0.025128
0.024250
0.021754
0.022307
0.019881
0.012696
0.010019
0.006109
0.001875
-0.000459
-0.002062
-0.007781
-0.011382
-0.012495
-0.010651
-0.008287
-0.006588
-0.000920
0.005365
0.105876
-0.076111
0.077685
-0.017172
0.016451
3.861358
0.017138
4.046536
4.043551
4.028851
-3.870002
-4.023569
-3.653943
-4.193462
-3.851302
-3.320433
3.004035
-2.995802
-2.045357
2.591947
0.003804
0.000886
-1.558365
0.332124
0.360180
3.080298
-2.249909
-2.205092
3.080004
0.208530
0.207693
1.773830
1.773941
-0.295785
-0.289627
1.575408
0.092673
-4.145333
4.148309
4.200670
0.397862
0.397841
-0.924359
0.975638
1.612344
3.005721
-0.882550
3.354880
2.174021
1.203270
1.203360
-2.506920
3.345322
-2.953958
3.636008
-0.618047
-0.615336
-0.201291
-0.204723
-0.130106
-0.131670
0.063188
0.062643
-4.191790
-3.387663
-4.133831
-3.057072
-4.028605
4.208312
3.882945
4.210260
3.881033
-3.823134
-3.634684
3.662413
2.696132
-2.687791
3.663058
2.695936
0.570695
0.570728
-1.226704
-1.228377
0.029735
-3.053606
-3.188057
3.324511
3.186075
3.051419
2.913746
-2.456143
-2.364030
2.496544
1.619535
-1.191818
0.438778
0.001053
0.001587
2.370915
2.370172
-0.409217
-1.667582
-0.591583
1.076838
-0.271101
-0.248082
2.240310
-1.506483
2.664810
-2.067447
-2.591587
0.930260
2.497827
-0.925232
-3.370194
-0.911360
-3.597935
3.661196
3.882775
-0.411943
0.292666
0.292681
-0.061649
-0.061906
0.130333
0.129190
-0.408159
-0.408804
-4.135182
4.205018
4.144183
-4.028762
-4.192448
-4.020769
4.030312
4.150921
4.152389
-4.141421
-4.191218
-3.869736
-3.656583
-3.386278
3.053801
-3.060632
3.395341
-2.677507
3.395019
2.258982
2.258953
-1.697596
-1.693431
1.329544
0.859203
1.329546
0.859307
-0.062608
3.084140
-3.321591
-3.184807
-2.865209
2.450104
-1.405011
0.459542
-0.190060
-2.355110
-0.899074
-0.058677
-1.616950
-2.241433
-2.874015
0.265281
0.265495
-0.122869
-0.128750
3.282702
-3.323413
-3.269736
3.280684
2.640099
2.638225
2.051152
2.050576
2.330406
-0.768983
-2.064791
-2.683428
2.221703
0.686137
1.301478
1.695938
3.084590
3.192612
3.327583
-1.680731
-0.630897
2.881092
-2.935106
-2.785289
2.718196
-0.262852
-0.263977
1.325299
0.126625
0.128175
-3.274017
-3.179834
0.576560
0.576619
-3.050676
3.328939
3.282804
-3.178587
-3.045726
-2.631819
3.187267
-2.034291
2.870090
2.871157
2.692075
0.021510
1.693419
1.693231
-1.294461
-1.292660
2.004261
2.203884
-2.237862
2.338871
2.564024
-2.457741
2.185308
-2.239331
1.382760
2.529943
-2.440607
-1.009757
1.425253
0.396048
-0.190870
1.781690
-1.511779
0.397326
1.781144
-2.452205
2.525480
-0.089768
1.873792
-0.937155
-0.593340
-1.268123
-0.195354
-0.628142
-1.723556
-2.149458
-2.338670
2.469540
1.848034
0.844728
-1.897629
0.309752
2.298281
-1.762644
-0.396103
3.287233
-3.319079
0.412520
0.412482
2.027254
0.193330
0.195799
3.192776
2.523554
3.325602
-3.320600
-3.273066
-3.270560
-3.040918
2.451341
2.333125
-2.352941
-2.027342
-2.860350
-2.632542
2.185549
1.527326
1.527161
0.963868
0.964064
-0.939275
1.918432
-0.453880
-1.963219
0.094891
0.089368
1.525839
-1.771700
1.889771
-2.173785
1.730931
1.837627
0.674702
-0.013476
-2.554652
1.854812
-1.100753
-0.082027
-0.914134
-0.513933
-2.177783
0.533599
0.536092
-1.316950
2.463157
-2.523108
2.561849
1.710892
1.172316
0.084420
1.284955
1.315731
0.614328
0.615097
1.113720
2.056679
-0.685103
0.148075
-0.758291
-0.239540
0.604670
-1.644790
-0.008007
-2.374600
2.403653
2.546006
2.490868
2.117670
-0.397016
-1.966052
-2.403038
0.003474
2.563791
-2.519059
-2.553503
-2.514694
-2.442754
2.335855
1.855270
2.561256
-2.512401
2.001842
-1.991546
-2.326466
1.655044
1.994461
-1.766398
-2.014819
-0.056556
1.634005
1.252502
1.252611
-1.772114
-1.534914
-1.220198
-1.681678
0.087527
-1.198196
-0.262256
-0.503965
-2.056749
-2.343113
-0.075473
-1.402712
1.396189
-0.657578
1.046966
-1.821079
-0.316591
-1.718537
1.831220
1.282191
-1.847823
-1.588189
-1.874841
-0.261516
1.687340
1.653554
-1.566761
1.414288
0.257617
-0.133780
1.865718
-1.874322
1.896394
-1.701604
1.593683
1.627791
-1.685691
-1.376694
-0.605959
-1.124008
1.085015
1.075583
-1.324519
0.421681
-1.073191
1.094143
0.283021
-1.708277
-1.784029
-0.791449
-1.817391
-2.559324
-1.877883
0.255011
1.779304
-0.252946
1.874460
1.886883
-2.325336
-1.847483
1.769401
1.869535
1.705429
-2.549969
-1.441161
1.796867
-1.989786
0.906950
1.452104
1.592668
1.451511
-1.282512
-1.086159
-0.870180
0.897338
0.896949
0.907544
0.061449
-0.526900
-0.063598
-1.834498
1.187459
-1.265441
0.767384
0.178747
0.262806
1.270139