# vtk DataFile Version 2.0
Test
ASCII
DATASET POLYDATA
POINTS 1161 float
0.000000 0.000000 0.000000
13.600000 0.000000 0.000000
15.000000 1.400000 0.000000
15.000000 50.000000 0.000000
0.000000 50.000000 0.000000
0.962136 0.000000 0.000000
1.863013 0.000000 0.000000
2.706530 0.000000 0.000000
3.496339 0.000000 0.000000
4.235861 0.000000 0.000000
4.928297 0.000000 0.000000
5.576644 0.000000 0.000000
6.183711 0.000000 0.000000
6.752126 0.000000 0.000000
7.284349 0.000000 0.000000
7.782685 0.000000 0.000000
8.249292 0.000000 0.000000
8.686190 0.000000 0.000000
9.095269 0.000000 0.000000
9.478303 0.000000 0.000000
9.836948 0.000000 0.000000
10.172758 0.000000 0.000000
10.487187 0.000000 0.000000
10.781596 0.000000 0.000000
11.057260 0.000000 0.000000
11.315372 0.000000 0.000000
11.557049 0.000000 0.000000
11.783339 0.000000 0.000000
11.995221 0.000000 0.000000
12.193612 0.000000 0.000000
12.379372 0.000000 0.000000
12.553304 0.000000 0.000000
12.716161 0.000000 0.000000
12.868650 0.000000 0.000000
13.011429 0.000000 0.000000
13.145117 0.000000 0.000000
13.270294 0.000000 0.000000
13.387500 0.000000 0.000000
13.497244 0.000000 0.000000
13.600719 0.044872 0.000000
13.602876 0.089698 0.000000
13.606469 0.134432 0.000000
13.611494 0.179028 0.000000
13.617946 0.223440 0.000000
13.625817 0.267622 0.000000
13.635101 0.311529 0.000000
13.645787 0.355116 0.000000
13.657865 0.398339 0.000000
13.671322 0.441152 0.000000
13.686144 0.483511 0.000000
13.702317 0.525374 0.000000
13.719822 0.566697 0.000000
13.738644 0.607437 0.000000
13.758761 0.647554 0.000000
13.780154 0.687005 0.000000
13.802800 0.725750 0.000000
13.826677 0.763749 0.000000
13.851759 0.800963 0.000000
13.878021 0.837355 0.000000
13.905436 0.872886 0.000000
13.933976 0.907520 0.000000
13.963611 0.941221 0.000000
13.994311 0.973956 0.000000
14.026044 1.005689 0.000000
14.058779 1.036389 0.000000
14.092480 1.066024 0.000000
14.127114 1.094564 0.000000
14.162645 1.121979 0.000000
14.199037 1.148241 0.000000
14.236251 1.173323 0.000000
14.274250 1.197200 0.000000
14.312995 1.219846 0.000000
14.352446 1.241239 0.000000
14.392563 1.261356 0.000000
14.433303 1.280178 0.000000
14.474626 1.297683 0.000000
14.516489 1.313856 0.000000
14.558848 1.328678 0.000000
14.601661 1.342135 0.000000
14.644884 1.354213 0.000000
14.688471 1.364899 0.000000
14.732378 1.374183 0.000000
14.776560 1.382054 0.000000
14.820972 1.388506 0.000000
14.865568 1.393531 0.000000
14.910302 1.397124 0.000000
14.955128 1.399281 0.000000
15.000000 2.391837 0.000000
15.000000 3.383673 0.000000
15.000000 4.375510 0.000000
15.000000 5.367347 0.000000
15.000000 6.359184 0.000000
15.000000 7.351020 0.000000
15.000000 8.342857 0.000000
15.000000 9.334694 0.000000
15.000000 10.326531 0.000000
15.000000 11.318367 0.000000
15.000000 12.310204 0.000000
15.000000 13.302041 0.000000
15.000000 14.293878 0.000000
15.000000 15.285714 0.000000
15.000000 16.277551 0.000000
15.000000 17.269388 0.000000
15.000000 18.261224 0.000000
15.000000 19.253061 0.000000
15.000000 20.244898 0.000000
15.000000 21.236735 0.000000
15.000000 22.228571 0.000000
15.000000 23.220408 0.000000
15.000000 24.212245 0.000000
15.000000 25.204082 0.000000
15.000000 26.195918 0.000000
15.000000 27.187755 0.000000
15.000000 28.179592 0.000000
15.000000 29.171429 0.000000
15.000000 30.163265 0.000000
15.000000 31.155102 0.000000
15.000000 32.146939 0.000000
15.000000 33.138776 0.000000
15.000000 34.130612 0.000000
15.000000 35.122449 0.000000
15.000000 36.114286 0.000000
15.000000 37.106122 0.000000
15.000000 38.097959 0.000000
15.000000 39.089796 0.000000
15.000000 40.081633 0.000000
15.000000 41.073469 0.000000
15.000000 42.065306 0.000000
15.000000 43.057143 0.000000
15.000000 44.048980 0.000000
15.000000 45.040816 0.000000
15.000000 46.032653 0.000000
15.000000 47.024490 0.000000
15.000000 48.016327 0.000000
15.000000 49.008163 0.000000
14.000000 50.000000 0.000000
13.000000 50.000000 0.000000
12.000000 50.000000 0.000000
11.000000 50.000000 0.000000
10.000000 50.000000 0.000000
9.000000 50.000000 0.000000
8.000000 50.000000 0.000000
7.000000 50.000000 0.000000
6.000000 50.000000 0.000000
5.000000 50.000000 0.000000
4.000000 50.000000 0.000000
3.000000 50.000000 0.000000
2.000000 50.000000 0.000000
1.000000 50.000000 0.000000
0.000000 48.979592 0.000000
0.000000 47.959184 0.000000
0.000000 46.938776 0.000000
0.000000 45.918367 0.000000
0.000000 44.897959 0.000000
0.000000 43.877551 0.000000
0.000000 42.857143 0.000000
0.000000 41.836735 0.000000
0.000000 40.816327 0.000000
0.000000 39.795918 0.000000
0.000000 38.775510 0.000000
0.000000 37.755102 0.000000
0.000000 36.734694 0.000000
0.000000 35.714286 0.000000
0.000000 34.693878 0.000000
0.000000 33.673469 0.000000
0.000000 32.653061 0.000000
0.000000 31.632653 0.000000
0.000000 30.612245 0.000000
0.000000 29.591837 0.000000
0.000000 28.571429 0.000000
0.000000 27.551020 0.000000
0.000000 26.530612 0.000000
0.000000 25.510204 0.000000
0.000000 24.489796 0.000000
0.000000 23.469388 0.000000
0.000000 22.448980 0.000000
0.000000 21.428571 0.000000
0.000000 20.408163 0.000000
0.000000 19.387755 0.000000
0.000000 18.367347 0.000000
0.000000 17.346939 0.000000
0.000000 16.326531 0.000000
0.000000 15.306122 0.000000
0.000000 14.285714 0.000000
0.000000 13.265306 0.000000
0.000000 12.244898 0.000000
0.000000 11.224490 0.000000
0.000000 10.204082 0.000000
0.000000 9.183673 0.000000
0.000000 8.163265 0.000000
0.000000 7.142857 0.000000
0.000000 6.122449 0.000000
0.000000 5.102041 0.000000
0.000000 4.081633 0.000000
0.000000 3.061224 0.000000
0.000000 2.040816 0.000000
0.000000 1.020408 0.000000
13.909350 0.941829 0.000000
14.008163 30.163265 0.000000
14.008163 34.130612 0.000000
14.008163 40.081633 0.000000
14.008163 16.277551 0.000000
14.008163 20.244898 0.000000
14.008163 24.212245 0.000000
14.008163 8.342857 0.000000
9.817943 0.353805 0.000000
11.775871 0.218822 0.000000
1.020408 30.612245 0.000000
1.020408 40.816327 0.000000
1.020408 24.489796 0.000000
1.020408 20.408163 0.000000
1.020408 16.326531 0.000000
1.018362 11.223256 0.000000
1.019479 36.734114 0.000000
7.766240 0.481890 0.000000
13.744884 0.708217 0.000000
8.000000 49.000000 0.000000
12.710787 0.157483 0.000000
13.643785 0.498333 0.000000
0.966982 6.081341 0.000000
5.555248 0.626951 0.000000
1.020408 44.897959 0.000000
14.008163 45.040816 0.000000
14.008163 4.375510 0.000000
14.135230 1.157510 0.000000
1.110406 3.998402 0.000000
13.581910 0.276906 0.000000
4.000000 49.000000 0.000000
11.000000 49.000000 0.000000
3.468805 0.753815 0.000000
13.286828 0.128125 0.000000
13.571292 0.182798 0.000000
14.008163 47.024490 0.000000
14.008163 11.318367 0.000000
1.020408 47.959184 0.000000
13.986969 1.039883 0.000000
11.033365 0.256493 0.000000
12.375655 0.180019 0.000000
1.020408 34.693878 0.000000
1.020408 28.571429 0.000000
1.020408 14.285714 0.000000
14.008163 13.302041 0.000000
14.008163 26.195918 0.000000
14.008163 36.114286 0.000000
14.008163 42.065306 0.000000
13.000000 49.000000 0.000000
9.061761 0.377165 0.000000
13.846846 0.875143 0.000000
13.602565 0.367194 0.000000
14.330468 1.278355 0.000000
0.985135 1.963183 0.000000
1.848016 0.860187 0.000000
13.006717 0.138067 0.000000
6.733368 0.549656 0.000000
13.981312 2.366987 0.000000
14.517684 1.371589 0.000000
14.008163 5.367347 0.000000
13.502952 0.103492 0.000000
14.008163 6.359184 0.000000
1.012223 8.075156 0.000000
2.000000 49.000000 0.000000
10.466507 0.317468 0.000000
4.903734 0.664259 0.000000
14.008163 48.016327 0.000000
1.020408 46.938776 0.000000
1.020408 43.877551 0.000000
1.020408 42.857143 0.000000
1.020408 18.367347 0.000000
1.020408 22.448980 0.000000
1.020408 32.653061 0.000000
1.020408 27.551020 0.000000
1.020408 38.775510 0.000000
1.020408 26.530612 0.000000
1.020408 13.265306 0.000000
1.020408 10.204082 0.000000
9.000026 48.999914 0.000000
6.000000 49.000000 0.000000
14.008163 43.057143 0.000000
14.008163 38.097959 0.000000
14.008163 27.187755 0.000000
14.008163 18.261224 0.000000
14.008163 21.236735 0.000000
14.008163 32.146939 0.000000
14.008163 28.179592 0.000000
14.008163 14.293878 0.000000
14.008163 22.228571 0.000000
14.008163 9.334694 0.000000
14.004099 49.004099 0.000000
1.010098 48.989902 0.000000
13.558143 0.093291 0.000000
0.955988 0.955988 0.000000
8.662374 0.425726 0.000000
12.184441 0.198708 0.000000
13.663594 0.544206 0.000000
13.702388 0.624737 0.000000
13.617517 0.413610 0.000000
13.792566 0.798406 0.000000
11.548133 0.250352 0.000000
14.588204 1.384948 0.000000
14.681162 1.411235 0.000000
13.040022 8.144516 0.000000
13.014441 27.185869 0.000000
13.013181 20.242544 0.000000
13.014441 13.300155 0.000000
2.032435 11.216109 0.000000
2.038869 28.569481 0.000000
9.094026 0.740465 0.000000
12.393614 0.391054 0.000000
5.548361 1.269868 0.000000
13.617800 0.568998 0.000000
13.014768 42.063747 0.000000
7.999729 47.999729 0.000000
2.036314 44.892981 0.000000
13.140146 4.499330 0.000000
14.634824 1.474846 0.000000
13.571037 0.432035 0.000000
11.842029 0.443618 0.000000
1.894544 1.771554 0.000000
14.114823 3.610783 0.000000
13.394522 0.087201 0.000000
13.150234 0.115928 0.000000
0.994902 2.908324 0.000000
12.871309 0.135408 0.000000
0.983321 5.064954 0.000000
13.097446 6.278064 0.000000
0.934281 7.060694 0.000000
4.199943 0.690491 0.000000
2.699404 0.770870 0.000000
14.007220 7.350077 0.000000
1.002133 8.995361 0.000000
2.036784 47.955152 0.000000
6.151143 0.575397 0.000000
1.019139 45.917099 0.000000
2.037362 43.875442 0.000000
2.038869 27.549073 0.000000
1.019435 41.835762 0.000000
1.019435 19.386782 0.000000
1.019435 35.713313 0.000000
1.019435 31.631680 0.000000
1.019435 17.345966 0.000000
1.019435 25.509231 0.000000
1.019435 12.243925 0.000000
1.019435 29.590864 0.000000
1.019435 21.427599 0.000000
1.019435 37.754129 0.000000
1.019435 39.794946 0.000000
1.019435 23.468415 0.000000
1.019435 33.672497 0.000000
1.019435 15.305150 0.000000
11.999464 49.000536 0.000000
10.000001 48.999999 0.000000
7.001010 48.998990 0.000000
14.007547 44.048363 0.000000
[...]
POINT_DATA 1161
SCALARS UX float 1
LOOKUP_TABLE default
-60.160640
52.589429
0.000000
0.000000
12.582982
-52.772980
-47.953412
-47.701535
-47.945940
-51.671039
-47.250903
-50.383949
-49.363499
-46.892861
-43.601177
-41.218081
-49.381050
-49.292867
-50.311090
-51.662707
-45.250613
-43.472619
-45.856444
-34.039464
-33.795065
-23.083889
-23.143441
-50.122413
54.724096
82.560083
55.349986
53.230232
-30.020193
-141.807044
-22.056988
-10.062128
-1.182792
10.580134
30.835049
30.876434
12.006882
30.732815
27.412508
63.971115
38.292960
49.037676
28.842981
37.675209
43.490474
42.181912
37.048099
26.520030
53.624781
77.335661
55.810528
63.254421
73.677261
89.367000
86.357759
-9.935916
-69.297393
27.510142
32.432091
70.297833
93.444034
100.823807
28.614563
116.529494
190.247857
180.768817
165.506199
123.771001
87.339904
40.869078
54.158715
75.090435
74.563808
69.721274
56.752976
63.271895
62.765026
70.428661
64.113112
38.563718
21.133438
10.872407
4.986676
0.000000
-0.000000
0.000000
-0.000000
0.000000
-0.000000
0.000000
-0.000000
-0.000000
0.000000
-0.000000
0.000000
-0.000000
-0.000000
0.000000
-0.000000
-0.000000
0.000000
0.000000
0.000000
-0.000000
0.000000
-0.000000
-0.000000
-0.000000
0.000000
-0.000000
-0.000000
0.000000
-0.000000
-0.000000
0.000000
-0.000000
0.000000
-0.000000
-0.000000
0.000000
-0.000000
0.000000
-0.000000
0.000000
0.000000
-0.000000
0.000000
-0.000000
0.000000
0.000000
0.000000
1.087308
2.222440
3.401748
4.614136
5.867593
7.225622
8.538028
9.697361
10.660194
11.468506
12.007042
12.382545
12.530076
12.584084
10.376955
8.318346
6.346519
4.461403
2.535955
0.409740
-2.082779
-5.120492
-8.673227
-12.229411
-15.226131
-18.362019
-23.988033
-24.754580
-22.173566
-21.118893
-17.895223
-12.387188
-6.062943
-0.397180
6.214379
12.059094
15.729717
16.098857
14.278507
9.969503
4.298600
-2.639225
-10.853320
-18.592621
-22.915006
-22.712375
-19.892597
-16.553950
-13.877251
-12.665080
-11.918356
-11.314002
-12.277040
-17.056152
-30.046662
-49.724708
-66.622599
-66.021163
55.038154
0.167323
11.534651
-33.098447
32.141555
0.018714
0.015506
0.001776
0.110325
0.057003
0.024723
0.051079
-48.158974
-19.409374
-8.597734
-8.274833
12.262936
-16.716114
-17.121953
-4.898854
-24.522759
-33.951338
45.900583
6.936858
-130.513605
42.867235
-67.786854
-53.871463
2.865453
-0.193673
-0.167417
160.156435
9.020162
31.961669
9.811579
3.824574
-43.347546
16.307275
12.950614
0.469766
0.044372
8.362907
111.506283
-37.899896
82.101211
-21.811434
6.023151
-11.983276
0.043309
0.044948
0.005977
0.003580
1.822265
-47.293328
-6.436105
32.458260
89.228249
8.253739
-37.023672
-211.408104
-42.731581
-2.405666
111.900557
-0.016297
39.653396
-0.114946
-18.712628
10.333136
-29.803784
-42.327161
0.666590
6.471029
0.844073
-1.568684
-24.508698
2.820337
-18.630844
12.084683
-14.737761
14.453878
-10.576537
-3.086225
5.895735
8.665503
0.002394
0.003441
0.026901
0.027401
0.005779
0.007488
0.007218
0.045694
0.020974
-0.004801
0.889730
10.382740
21.201472
-34.860051
-46.461790
49.603816
38.996665
53.251507
34.835751
48.237139
-22.988423
63.488538
48.535654
-1.785211
0.033606
0.013974
-0.201634
-5.268488
6.971136
-47.588837
-202.533564
-68.083288
11.417792
0.030107
5.575635
3.118531
-0.280955
25.539448
53.115292
-94.589964
-40.173168
1.489647
40.747565
-11.968303
-2.878191
-201.663329
-95.363738
0.105398
-43.667150
-52.978471
-40.994961
0.061118
-9.026344
8.305200
-48.193206
4.677924
1.232237
5.702622
-4.596428
-23.891764
-25.097796
-12.486953
-21.107800
15.199921
-7.797644
-1.438018
-5.984949
-17.417396
-12.023278
8.287087
-22.427857
-13.222831
2.815206
4.845805
7.869234
-0.000344
0.162208
0.000072
0.121906
0.023987
0.039605
0.062027
0.016031
-0.003419
0.040380
-0.005373
0.020980
-0.006612
0.044078
0.014109
0.032819
-0.289683
9.314924
10.124504
51.840537
1.390333
11.310501
-36.912308
-55.359779
-46.413788
-38.414448
35.216102
104.027295
-39.223134
45.531984
36.023169
31.514686
-50.713134
13.769856
30.743367
30.740604
0.144556
-14.806993
-46.252361
-0.859535
-0.012052
-0.040735
-15.117013
-8.831622
7.868824
-26.993369
32.321869
3.317439
51.946243
-162.951277
6.998384
0.074137
-0.191794
2.959454
32.023366
-19.484028
11.563273
-30.425769
-12.090731
4.817421
-23.244811
-131.368486
-3.926537
4.672570
-0.027421
-0.399553
1.144396
-0.231223
-22.099511
24.616730
25.628217
-36.563746
58.903627
-27.115888
34.996026
33.883646
-196.637533
2.602531
60.858930
-14.431056
0.107970
2.133413
6.553733
-5.723970
-15.962374
-7.674225
-1.021531
-4.142588
-12.246453
-28.362309
14.246381
-85.889711
12.868782
0.906954
0.232489
-9.344820
-1.693003
-0.019857
0.052417
7.914384
-0.064281
0.096263
0.323878
0.167175
-0.008577
0.147643
0.018999
6.340177
-54.659604
8.185525
-51.354725
-16.728669
-86.076718
-34.151142
-56.414729
26.833769
-164.022994
28.824390
52.092276
-4.194674
-1.498822
0.133521
-20.217199
-50.194280
-1.107610
-129.285325
-11.434557
-54.828381
28.761872
4.388507
12.547689
-40.540610
91.354929
135.760127
24.942603
-7.555628
-0.365275
-11.161153
2.296070
-35.769726
-10.386680
-130.146220
59.894914
-101.725080
37.849913
-11.743552
-97.181306
-25.815147
4.898644
6.312677
1.471949
13.466036
1.623696
-25.725833
-10.250577
-14.053615
-21.140645
-21.949400
-13.671271
10.450329
-11.680976
3.185404
-23.091167
-7.846048
-20.474056
45.730206
28.730644
3.754404
1.215417
0.379300
-0.038468
-0.069125
7.515415
6.534437
0.272545
-2.362232
0.060160
-0.241621
-0.030240
0.284840
0.001772
0.313146
5.068415
-0.161460
-0.019465
1.085806
0.085639
0.398747
2.125597
44.687537
-41.293233
1.335992
-7.469306
27.765204
31.145391
81.841046
5.526396
49.924029
-11.743968
-143.617074
-30.596566
-0.684239
6.317686
1.312411
0.070179
-13.384948
-14.743661
-28.143432
-18.989376
1.517935
36.567155
46.730874
-78.086020
-161.977030
-0.179090
3.428792
1.950841
-71.571689
-38.688957
4.914296
-10.757692
29.032830
54.230972
0.756024
-1.919078
-0.442554
1.149697
5.562090
-69.835352
-23.703643
15.296627
-40.027764
96.447050
23.995326
-27.762691
-114.817430
4.663111
-6.421125
-13.432069
-66.337684
5.073671
-4.907684
4.229535
35.216169
3.208062
-4.218541
-7.278907
11.318330
-2.907223
2.541255
-3.689232
-12.135144
1.965888
3.557416
-3.281157
0.602082
-0.140126
0.269283
2.470345
0.306516
3.113156
0.477848
-0.134200
6.184251
-0.012619
-3.066820
107.857531
29.715396
1.660929
-2.419636
0.716448
82.213701
5.985029
34.362311
22.035043
-71.301597
-197.981852
-239.946955
71.337326
-121.783289
-39.790988
20.503380
-0.226802
4.973361
5.480024
0.045545
-33.180763
-22.141180
23.442658
-10.159964
-7.055211
-6.211414
-26.988454
-12.873944
-90.217327
-131.526817
-44.070378
-40.502534
11.579389
-37.729744
0.784177
2.022178
80.426816
-1.853743
-51.408540
-113.053799
34.969279
-91.389868
-50.443346
-41.824020
-7.322677
37.827234
40.344158
9.266811
3.423908
-5.673558
0.969149
-6.037212
21.329874
-9.647443
-1.363618
0.450435
27.466871
-19.005957
0.093270
-7.872086
29.499262
6.196933
36.486799
-18.794855
33.769653
7.898921
-14.768450
-12.006333
51.775175
3.955409
4.602895
0.018285
4.129959
5.293784
0.937420
0.144771
-5.082123
1.395337
-0.822996
1.297760
2.500701
90.125045
-0.191210
0.083811
-0.275282
-14.095704
-3.356842
8.191242
10.300278
-119.674547
93.499375
-62.298635
-122.088641
-63.072361
-62.698144
0.854037
-88.518829
48.024361
1.223465
4.088658
-29.202785
-1.496978
-11.898811
0.993639
-6.437158
-8.480649
27.462095
49.959927
-44.643881
-52.384991
-19.541187
-114.527529
-66.293841
-0.198541
-85.324615
2.941639
-66.568875
3.398939
27.063474
13.055031
-4.682719
25.653604
-8.486422
-16.271140
-0.309534
23.337496
-25.015150
-135.322444
-11.961450
35.231730
-1.467503
70.935110
23.967632
-65.603857
4.765047
-15.012774
-16.838335
-3.891675
-7.977946
0.911590
0.085695
0.671248
-44.216850
-22.630668
-9.070025
-10.319923
27.155353
-1.209190
0.001149
-18.566386
4.488061
2.111464
-14.561615
35.956551
-4.725138
-1.603234
2.065047
0.221026
0.761556
-59.337456
2.027905
-1.056721
-1.017881
-11.728566
4.120328
4.253691
-65.939493
109.205502
-6.430071
-60.211454
45.861706
20.206208
98.235629
0.045345
-7.275810
-56.153431
-7.845810
65.762413
74.587534
-28.115946
120.810385
-63.394975
5.714234
-6.068260
-0.354700
-25.700344
11.903467
-18.011356
-14.204052
0.688750
9.771062
-18.031663
-35.674666
-10.525395
7.553478
1.027866
-12.540641
-1.025996
-8.499561
40.096513
-27.822338
-131.579180
-66.141783
2.889512
-62.013209
-11.420520
-80.211219
-9.491063
-1.664500
26.160090
-30.441584
-3.198337
-15.205579
50.224194
2.195232
33.787520
-14.181053
0.008840
-38.393425
22.487436
14.433839
-12.970276
-43.027112
-46.011074
-3.753588
12.501152
24.942109
19.513651
-47.764198
24.625962
28.345733
-13.594555
-11.441484
-7.996341
1.432062
1.284031
-16.669906
1.577108
2.344187
-1.534748
5.836266
1.719513
-14.956405
-1.778577
155.247490
5.164697
-4.667652
7.614310
0.773336
-13.706335
3.144326
48.457301
-62.435012
-66.600144
-16.608708
104.861748
-46.285689
-62.510115
-63.404991
-100.610287
-16.401719
0.658052
-129.665431
-30.613052
-65.184959
-15.133082
-143.888988
8.635653
-20.761994
-1.273946
-5.252834
18.563692
-18.671236
-4.578790
-4.245157
-13.726744
1.879654
-0.110395
19.697691
-23.394401
-20.059316
-2.525091
26.009122
-73.218000
11.472701
-22.167933
-138.933350
13.999624
-0.664380
-28.722597
6.765738
-2.319093
-30.072460
0.150127
-8.048846
160.570719
-2.395616
-88.082917
-62.409992
2.136690
1.850714
-35.282683
-12.498980
-14.136368
15.720114
-1.984540
12.126325
-20.627237
-19.687796
-16.949057
-12.549058
4.387961
3.730155
28.652722
19.608377
-24.227137
-58.694432
-5.108885
-4.459805
27.441361
-40.454337
-0.288900
10.343631
0.411846
-19.751876
0.330429
-52.690400
1.502278
2.111563
1.905037
11.917730
1.549251
-11.123868
-1.163442
1.820956
-1.239303
94.487053
19.608227
57.158076
-141.752022
11.296771
-62.536184
-49.868128
-48.428375
-8.631187
-2.338612
-11.733403
-1.646313
-14.326310
18.185301
-49.672513
-13.317128
18.432420
-6.487073
-21.506312
-11.482333
140.390403
47.167628
-25.678988
-54.195216
-15.631621
-2.295694
-2.760003
-53.650221
3.112299
-0.011954
4.959916
22.556145
2.868563
12.877873
36.955962
111.265441
-1.376039
-4.067955
-9.855169
8.684564
-20.934136
-33.975116
9.027759
20.889953
1.147470
29.821846
-25.915826
2.463635
-20.747316
-6.147442
26.280020
-1.207903
1.955305
10.345432
-0.431139
-19.028843
7.560971
-7.236937
-5.930999
-16.667749
1.897010
-113.682722
-4.243711
-31.786337
-86.087648
-16.268644
-39.065908
53.714606
-23.373127
-15.911003
-15.328506
-40.574883
-0.635557
-24.632295
-37.332521
26.477465
2.569958
-8.468226
-43.306746
21.045217
1.201155
-27.097077
-11.219624
-3.362423
145.041765
14.133724
-26.679198
-17.558135
55.287070
-24.256890
4.385104
-9.969369
-0.754542
-9.154676
-1.379796
11.567908
-7.924254
-21.047212
-25.995957
-23.785865
25.840998
-5.596568
14.860462
-60.298443
-17.686819
-6.909041
-46.615723
10.815379
-51.723891
53.344989
-30.782147
-32.721358
-19.051964
-31.214015
21.373041
15.573388
-2.513187
3.179259
1.444406
-5.011207
-2.372224
-24.681746
-11.022461
2.958950
39.830050
-2.168167
-5.600880
1.008795
13.389785
13.058097
-68.721948
-7.858154
1.256328
-0.190048
-40.296296
-0.582082
-42.026591
-1.328912
94.347741
-21.112272
46.838899
-49.571582
0.807399
25.712822
-15.456432
100.510255
-10.782218
13.985204
0.158515
16.179166
-5.468679
8.894033
19.659246
-20.365592
18.436721
-17.157583
-2.621141
-17.895867
-21.824785
-7.311552
5.731662
-11.306566
-1.424917
1.514851
-13.843209
7.050738
-34.398880
-0.289901
22.072280
8.253198
-10.092041
-1.371995
-2.502377
23.898748
14.985385
-24.241730
-17.885748
2.628094
-34.573749
9.548978
61.929258
-6.215269
-71.713637
10.536993
95.844892
5.753484
-52.861475
3.598986
-24.245847
2.497540
-3.412699
-10.508300
-19.919656
-5.091709
-2.012846
-21.156047
-15.902510
-20.528289
107.394565
-29.622193
12.854958
1.276903
103.150373
4.324836
-53.580805
-22.946145
3.543453
SCALARS UY float 1
LOOKUP_TABLE default
0.000000
0.000000
-18.811135
-14.448331
8.799890
0.000000
-0.000000
-0.000000
0.000000
-0.000000
0.000000
-0.000000
0.000000
0.000000
0.000000
0.000000
-0.000000
0.000000
-0.000000
0.000000
-0.000000
0.000000
-0.000000
-0.000000
-0.000000
0.000000
-0.000000
0.000000
-0.000000
0.000000
0.000000
-0.000000
0.000000
-0.000000
-0.000000
0.000000
-0.000000
0.000000
-0.000000
-11.665906
-25.961394
-28.024953
-30.927873
-40.845864
-29.539844
-26.673765
-36.074789
-21.658589
-17.782330
-12.447207
-18.624964
-32.764343
-31.989958
-26.272534
17.924534
57.315706
93.632968
75.645615
54.845335
164.149013
120.924586
131.664506
140.782336
94.131780
66.778397
233.340110
76.484717
155.933607
176.011247
189.077805
178.811343
125.795401
71.818885
13.540810
40.079749
43.695398
13.026368
-35.736808
-66.242577
-62.782423
-53.131424
-27.606427
-8.137583
-6.321851
-5.762206
-9.108493
-13.887818
-32.904890
-23.565616
-28.606868
-14.910696
-10.338656
4.268930
-10.254605
-14.094111
-1.394693
-7.119216
-3.179699
-4.947285
-2.078383
-1.518740
-16.848016
-25.012170
-17.634620
-15.193523
-21.748605
-23.032455
-13.995288
-9.102884
-6.870773
-5.922197
-9.041424
-17.943477
-21.590977
-15.634033
-17.658607
-19.350333
-12.879222
-13.504738
-15.598943
-21.276788
-23.328649
-20.145973
-19.656956
-17.241939
-16.390369
-12.205495
-12.833984
-16.196924
-15.214148
-15.239677
-15.406110
-15.231182
-15.079100
-14.815036
-14.300715
-14.016941
-13.654982
-13.010009
-12.255476
-10.983438
-9.436321
-7.582952
-5.330529
-3.052746
-0.562596
1.908794
4.321310
6.629998
8.789989
8.864427
9.058803
9.465970
10.137348
11.088997
12.276466
13.574685
14.756157
15.640843
16.468106
17.620920
18.078598
16.474751
15.122254
13.746013
11.020415
8.780750
6.927411
4.671543
3.191472
2.432365
2.093074
1.645577
1.326243
0.592523
-0.228477
-1.400151
-3.781161
-7.464637
-10.986674
-12.827402
-12.854098
-11.753367
-9.937498
-8.080969
-5.472804
-1.175640
5.318773
14.504130
26.290217
40.305291
54.072823
68.950284
90.617737
58.778321
95.792868
44.572791
148.485657
-17.644335
-15.602195
-16.387847
-16.710551
-21.690112
-6.872316
-9.387833
-3.465822
8.902798
12.410039
11.559013
-1.615939
-10.551568
-11.103639
-3.512572
16.633328
36.727734
-19.354565
-9.912785
40.073196
-11.599250
37.779218
-41.204997
7.758394
-14.993096
-27.391898
141.141176
97.050862
-14.522012
-0.755781
-13.481927
-24.874450
1.944274
-17.536178
-15.191200
-6.890334
6.639317
131.758377
-2.134768
47.634306
17.870362
8.777380
-9.325966
-4.862815
-9.042250
-23.321869
-12.834581
-14.524062
2.730520
38.736574
-24.113507
96.299009
42.365597
-9.807310
-14.868253
37.317837
-43.905999
11.682919
-15.279495
-0.788463
-10.345402
9.755114
4.292956
0.244180
42.685968
-15.029041
6.857883
8.497989
9.417240
-12.808763
-5.636111
15.261218
6.525074
13.180996
3.470384
-8.361916
-0.081454
-11.595063
-5.713684
-16.193058
-19.654571
-17.780741
-17.708358
-22.814652
-12.895997
-21.434591
-2.127462
-14.119690
-14.002549
-14.721691
6.609717
-2.599049
16.379047
14.627771
46.048819
-7.968698
-32.306094
-23.957640
53.725544
10.480345
-65.436406
-58.207328
-4.141981
-16.168114
-19.898289
-3.224334
-7.269810
16.172532
29.579486
-74.459443
53.847652
4.966903
-12.935352
-10.387679
4.975634
-18.094662
-79.823339
-15.922261
-2.536414
-4.548530
-33.670897
-16.405199
10.783330
79.864031
-18.090466
57.868528
-0.318575
22.802627
-43.748211
-29.637463
3.598589
4.387506
4.202048
15.089692
7.220781
5.552101
11.358481
10.505261
-12.537539
17.177685
14.295163
-12.125198
1.053491
-6.283890
10.746254
-7.862551
15.035855
12.232608
-3.788806
16.146198
-9.893616
-14.140458
-12.696082
-7.956702
-15.335288
-15.174157
-12.329958
-1.819611
-13.585234
-3.179333
-15.327147
-15.826796
-20.192481
-24.728012
-17.249595
-1.637779
-19.242371
-6.075946
-9.188574
-21.133214
-19.870069
-3.304790
1.795375
84.282393
-14.855227
-57.186552
51.716461
-112.720561
2.727970
3.939909
-10.987895
-31.863775
-13.676584
-17.602328
-7.667497
-21.177427
2.990664
-42.546085
-1.172285
-2.595544
-15.975657
11.495984
-29.061482
-17.379604
-19.562180
-17.062057
23.411331
-10.650172
-9.306226
-16.712290
-23.846621
1.862635
32.251932
-87.928408
-6.040943
-12.735072
-15.218244
-13.906178
-0.929991
-31.257045
-4.132746
-5.695414
-27.958132
4.575143
22.073467
-8.538443
7.370910
-12.070103
-15.419318
-3.470681
-5.359606
-18.116746
-8.483719
-22.247765
-0.251651
17.482697
-11.491035
35.998917
-17.941588
-4.133413
25.233281
-20.574445
-40.873415
-12.173827
-20.222579
-14.569418
4.299497
-7.617958
-13.756859
-15.725459
6.353153
19.989507
9.335183
24.098328
-0.192508
-56.259722
5.319602
-15.147551
-19.894031
-8.863448
3.768952
-16.247102
-14.095459
-0.967421
-15.426483
-7.624000
-17.954755
-9.227039
-22.560946
-4.058893
-13.222765
-8.296651
25.573384
1.617240
17.656554
-33.974671
-189.686231
7.953908
-53.141546
-11.332155
-127.186189
5.051343
-5.523162
-11.612445
-4.137086
-14.479200
-17.087559
9.779456
-9.784015
-27.505914
-14.950593
18.739205
68.699145
-10.843339
14.981003
-19.899760
-3.933520
52.381737
-13.507000
-9.890913
2.926468
-10.355436
-8.248222
-51.943441
-45.867745
-94.153523
10.860458
-57.712422
-5.290420
-24.822326
15.309448
-16.404408
1.639093
-1.146129
-14.929964
-36.630830
2.258383
14.352649
-9.441854
9.748417
-17.069683
-15.792961
22.410612
-5.150739
-12.410261
-12.954525
25.493986
8.362294
21.569511
-39.513096
-31.174993
-13.146583
-14.433579
-15.245264
-17.418271
-17.888667
-3.519864
1.582346
-15.828540
-9.667970
-10.734930
-19.189879
-19.562103
-15.057367
-15.484622
-7.879313
-8.661524
-14.751897
-20.655922
-8.339306
-17.979360
-13.587248
-31.910964
27.965959
64.294395
-42.359707
-72.398484
-9.193210
-1.181968
-29.250350
106.069045
18.139482
-39.654812
65.446594
59.067899
-15.159614
-22.862435
-9.448853
-22.227667
5.495213
-14.602563
-1.173632
-1.180249
-26.163458
-53.746049
-45.614147
-13.444132
-7.759361
-15.642813
-11.384528
-1.038292
-53.608144
-6.229072
-1.237110
-39.327619
-40.067178
80.421114
-19.780239
-5.549753
-16.986988
-13.223470
-6.370873
-110.760939
109.900594
-11.678236
17.823465
44.034243
31.024071
-25.405958
-74.531668
-22.366992
-1.370881
-12.420405
8.827969
-4.326997
-11.041043
11.871527
-44.672999
-54.206571
-9.604031
5.227627
-13.813298
4.020017
-13.563185
-17.773713
-0.304322
-14.098557
-12.727661
-20.296983
-19.556027
-18.490448
-15.956616
-11.355499
-14.181040
-6.446974
-0.679901
-13.414951
-10.751041
-18.924815
3.426304
32.733635
-8.283710
-16.547490
-19.567154
-15.207947
12.187124
-3.820521
175.781456
18.121819
35.168435
5.009367
6.342759
-6.993264
-102.950993
-22.381239
3.285174
-20.753607
-19.383609
-16.756407
-15.479259
28.618537
-13.722508
51.043865
-6.599697
-0.654543
2.284794
-6.816858
5.559797
-17.908160
-75.936076
27.935763
-29.670371
-6.376859
17.274463
-21.267731
-22.369788
0.151984
39.891223
12.992902
-123.379923
1.015861
-9.990305
14.124615
-38.434255
-29.111424
6.058677
22.595669
-24.694444
-1.266474
-5.984383
-14.128495
-11.113548
-28.069099
3.699017
0.258005
-0.629792
-38.825981
-4.213499
-21.105688
-30.454025
-57.396879
-5.899328
-49.943473
-11.162904
-41.150503
-7.648023
3.350656
-47.070193
-46.928542
-8.901602
-4.070342
-15.647076
-25.423744
-13.123885
-17.679832
-22.734718
0.144651
-11.684505
-9.054383
-14.082670
-13.730753
90.882576
-18.221513
-20.143405
-17.724313
6.921573
-3.650001
-25.776236
6.135847
-96.728537
52.277816
15.754574
-29.822484
13.224478
20.308469
-40.181601
-62.154140
20.875190
-23.427708
-8.899356
22.204303
-13.617802
0.644213
-4.861043
0.520668
-12.039554
-33.381911
-47.586360
23.583104
9.037424
34.725115
-40.799122
-9.465314
-14.572366
-81.962637
-11.924687
0.313257
-4.316219
-34.407218
-17.617637
-5.668382
110.323187
9.808124
-0.343471
-11.569363
-60.783761
-17.318056
-135.131857
-86.333186
-10.948861
31.612361
-8.169196
32.193704
-40.670637
-31.884382
-8.786147
35.714031
-5.442836
9.453539
-4.696620
-13.736087
-14.134386
13.596798
1.380436
-5.979974
-9.065439
-29.567472
-4.858126
-9.726242
6.509030
-9.466558
1.910453
4.353173
-40.320169
-14.877597
8.640725
-20.066996
-19.869960
-16.946424
-69.366467
-22.945331
-11.772495
-13.576764
-10.512146
-25.319097
-6.700302
30.758008
200.978544
26.063658
-0.558526
37.925081