# vtk DataFile Version 2.0
Test
ASCII
DATASET POLYDATA
POINTS 1437 float
0.000000 0.000000 0.000000
30.000000 0.000000 0.000000
30.000000 100.000000 0.000000
0.000000 100.000000 0.000000
16.400000 50.000000 0.000000
2.142857 0.000000 0.000000
4.285714 0.000000 0.000000
6.428571 0.000000 0.000000
8.571429 0.000000 0.000000
10.714286 0.000000 0.000000
12.857143 0.000000 0.000000
15.000000 0.000000 0.000000
17.142857 0.000000 0.000000
19.285714 0.000000 0.000000
21.428571 0.000000 0.000000
23.571429 0.000000 0.000000
25.714286 0.000000 0.000000
27.857143 0.000000 0.000000
30.000000 2.040816 0.000000
30.000000 4.081633 0.000000
30.000000 6.122449 0.000000
30.000000 8.163265 0.000000
30.000000 10.204082 0.000000
30.000000 12.244898 0.000000
30.000000 14.285714 0.000000
30.000000 16.326531 0.000000
30.000000 18.367347 0.000000
30.000000 20.408163 0.000000
30.000000 22.448980 0.000000
30.000000 24.489796 0.000000
30.000000 26.530612 0.000000
30.000000 28.571429 0.000000
30.000000 30.612245 0.000000
30.000000 32.653061 0.000000
30.000000 34.693878 0.000000
30.000000 36.734694 0.000000
30.000000 38.775510 0.000000
30.000000 40.816327 0.000000
30.000000 42.857143 0.000000
30.000000 44.897959 0.000000
30.000000 46.938776 0.000000
30.000000 48.979592 0.000000
30.000000 51.020408 0.000000
30.000000 53.061224 0.000000
30.000000 55.102041 0.000000
30.000000 57.142857 0.000000
30.000000 59.183673 0.000000
30.000000 61.224490 0.000000
30.000000 63.265306 0.000000
30.000000 65.306122 0.000000
30.000000 67.346939 0.000000
30.000000 69.387755 0.000000
30.000000 71.428571 0.000000
30.000000 73.469388 0.000000
30.000000 75.510204 0.000000
30.000000 77.551020 0.000000
30.000000 79.591837 0.000000
30.000000 81.632653 0.000000
30.000000 83.673469 0.000000
30.000000 85.714286 0.000000
30.000000 87.755102 0.000000
30.000000 89.795918 0.000000
30.000000 91.836735 0.000000
30.000000 93.877551 0.000000
30.000000 95.918367 0.000000
30.000000 97.959184 0.000000
27.857143 100.000000 0.000000
25.714286 100.000000 0.000000
23.571429 100.000000 0.000000
21.428571 100.000000 0.000000
19.285714 100.000000 0.000000
17.142857 100.000000 0.000000
15.000000 100.000000 0.000000
12.857143 100.000000 0.000000
10.714286 100.000000 0.000000
8.571429 100.000000 0.000000
6.428571 100.000000 0.000000
4.285714 100.000000 0.000000
2.142857 100.000000 0.000000
0.000000 97.959184 0.000000
0.000000 95.918367 0.000000
0.000000 93.877551 0.000000
0.000000 91.836735 0.000000
0.000000 89.795918 0.000000
0.000000 87.755102 0.000000
0.000000 85.714286 0.000000
0.000000 83.673469 0.000000
0.000000 81.632653 0.000000
0.000000 79.591837 0.000000
0.000000 77.551020 0.000000
0.000000 75.510204 0.000000
0.000000 73.469388 0.000000
0.000000 71.428571 0.000000
0.000000 69.387755 0.000000
0.000000 67.346939 0.000000
0.000000 65.306122 0.000000
0.000000 63.265306 0.000000
0.000000 61.224490 0.000000
0.000000 59.183673 0.000000
0.000000 57.142857 0.000000
0.000000 55.102041 0.000000
0.000000 53.061224 0.000000
0.000000 51.020408 0.000000
0.000000 48.979592 0.000000
0.000000 46.938776 0.000000
0.000000 44.897959 0.000000
0.000000 42.857143 0.000000
0.000000 40.816327 0.000000
0.000000 38.775510 0.000000
0.000000 36.734694 0.000000
0.000000 34.693878 0.000000
0.000000 32.653061 0.000000
0.000000 30.612245 0.000000
0.000000 28.571429 0.000000
0.000000 26.530612 0.000000
0.000000 24.489796 0.000000
0.000000 22.448980 0.000000
0.000000 20.408163 0.000000
0.000000 18.367347 0.000000
0.000000 16.326531 0.000000
0.000000 14.285714 0.000000
0.000000 12.244898 0.000000
0.000000 10.204082 0.000000
0.000000 8.163265 0.000000
0.000000 6.122449 0.000000
0.000000 4.081633 0.000000
0.000000 2.040816 0.000000
16.388506 50.179028 0.000000
16.354213 50.355116 0.000000
16.297683 50.525374 0.000000
16.219846 50.687005 0.000000
16.121979 50.837355 0.000000
16.005689 50.973956 0.000000
15.872886 51.094564 0.000000
15.725750 51.197200 0.000000
15.566697 51.280178 0.000000
15.398339 51.342135 0.000000
15.223440 51.382054 0.000000
15.044872 51.399281 0.000000
14.865568 51.393531 0.000000
14.688471 51.364899 0.000000
14.516489 51.313856 0.000000
14.352446 51.241239 0.000000
14.199037 51.148241 0.000000
14.058779 51.036389 0.000000
13.933976 50.907520 0.000000
13.826677 50.763749 0.000000
13.738644 50.607437 0.000000
13.671322 50.441152 0.000000
13.625817 50.267622 0.000000
13.602876 50.089698 0.000000
13.602876 49.910302 0.000000
13.625817 49.732378 0.000000
13.671322 49.558848 0.000000
13.738644 49.392563 0.000000
13.826677 49.236251 0.000000
13.933976 49.092480 0.000000
14.058779 48.963611 0.000000
14.199037 48.851759 0.000000
14.352446 48.758761 0.000000
14.516489 48.686144 0.000000
14.688471 48.635101 0.000000
14.865568 48.606469 0.000000
15.044872 48.600719 0.000000
15.223440 48.617946 0.000000
15.398339 48.657865 0.000000
15.566697 48.719822 0.000000
15.725750 48.802800 0.000000
15.872886 48.905436 0.000000
16.005689 49.026044 0.000000
16.121979 49.162645 0.000000
16.219846 49.312995 0.000000
16.297683 49.474626 0.000000
16.354213 49.644884 0.000000
16.388506 49.820972 0.000000
16.142290 51.090246 0.000000
16.381031 49.246029 0.000000
16.476220 50.570036 0.000000
16.567534 49.809478 0.000000
13.432060 49.919357 0.000000
27.959184 67.346939 0.000000
15.062546 51.587060 0.000000
27.959184 79.591837 0.000000
2.040816 20.408163 0.000000
2.040816 30.612245 0.000000
2.040816 81.632653 0.000000
2.040816 69.387755 0.000000
27.959184 16.326531 0.000000
27.959184 24.489796 0.000000
27.959184 32.653061 0.000000
2.000226 63.022103 0.000000
2.040816 38.775510 0.000000
27.959184 38.775510 0.000000
2.063520 56.953992 0.000000
27.959184 59.183673 0.000000
15.000000 97.857143 0.000000
15.000000 2.142857 0.000000
27.959184 44.897959 0.000000
27.959184 51.020408 0.000000
2.058026 48.891267 0.000000
2.040816 12.244898 0.000000
27.959184 8.163265 0.000000
2.119286 91.907213 0.000000
27.959184 87.755102 0.000000
8.571429 2.142857 0.000000
21.428571 97.857143 0.000000
2.040816 6.122449 0.000000
27.959184 93.877551 0.000000
23.571429 2.142857 0.000000
6.428571 97.857143 0.000000
2.040816 44.897959 0.000000
15.808727 51.356253 0.000000
2.040816 77.551020 0.000000
27.959184 71.428571 0.000000
2.040816 26.530612 0.000000
4.285714 2.142857 0.000000
25.714286 97.857143 0.000000
2.021897 52.958989 0.000000
27.959184 53.061224 0.000000
27.914278 55.273576 0.000000
27.959184 61.224490 0.000000
27.879705 47.169173 0.000000
2.040816 36.734694 0.000000
1.985319 42.671502 0.000000
2.040816 4.081633 0.000000
27.959184 95.918367 0.000000
27.842785 41.012410 0.000000
27.904213 63.341606 0.000000
1.981595 60.897410 0.000000
2.040816 34.693878 0.000000
2.142857 97.857143 0.000000
27.857143 2.142857 0.000000
21.428571 2.142857 0.000000
8.571429 97.857143 0.000000
19.285714 2.142857 0.000000
10.714286 97.857143 0.000000
12.857143 2.142857 0.000000
17.142857 97.857143 0.000000
2.040816 73.469388 0.000000
2.040816 85.714286 0.000000
27.959184 28.571429 0.000000
27.957036 12.244796 0.000000
27.959184 20.408163 0.000000
27.959184 75.510204 0.000000
27.959184 81.632653 0.000000
2.040816 24.489796 0.000000
2.040816 18.367347 0.000000
2.101567 67.270721 0.000000
27.990742 34.718564 0.000000
2.040816 16.326531 0.000000
2.040816 10.204082 0.000000
2.040816 89.795918 0.000000
27.959184 83.673469 0.000000
27.959184 89.795918 0.000000
2.098379 2.081372 0.000000
27.901617 97.918624 0.000000
28.130079 4.091715 0.000000
1.869924 95.908287 0.000000
16.576970 50.167357 0.000000
25.954712 32.689406 0.000000
4.048051 69.354174 0.000000
4.081633 24.489796 0.000000
25.916213 79.588913 0.000000
4.086221 18.371935 0.000000
3.897904 34.877606 0.000000
3.923124 61.572806 0.000000
26.128612 39.133691 0.000000
26.214823 61.491956 0.000000
3.871989 43.375621 0.000000
26.265426 45.355943 0.000000
26.372982 51.593494 0.000000
15.011971 95.726257 0.000000
14.987483 4.273197 0.000000
4.095212 12.258477 0.000000
25.904714 87.741449 0.000000
8.590547 95.733404 0.000000
4.124327 91.817489 0.000000
23.644909 4.177846 0.000000
1.898679 46.664421 0.000000
1.887660 50.867252 0.000000
28.104743 49.216969 0.000000
28.091622 57.507646 0.000000
1.793213 54.763850 0.000000
1.898425 40.673936 0.000000
28.092220 43.114891 0.000000
1.898792 59.041649 0.000000
26.349643 53.492500 0.000000
3.788008 38.504633 0.000000
26.348185 4.174096 0.000000
28.073402 36.848913 0.000000
3.770644 95.809804 0.000000
1.947709 64.759841 0.000000
27.961478 65.481833 0.000000
2.032166 32.492602 0.000000
21.409200 4.266343 0.000000
6.436167 2.135262 0.000000
23.563887 97.864684 0.000000
17.151762 2.133952 0.000000
12.848401 97.865884 0.000000
10.720797 2.136346 0.000000
19.279431 97.863426 0.000000
25.741048 2.116095 0.000000
4.208553 97.884202 0.000000
2.040816 71.428571 0.000000
27.959184 73.469388 0.000000
2.040044 28.570656 0.000000
2.040816 79.591837 0.000000
2.040816 75.510204 0.000000
27.959184 30.612245 0.000000
27.959184 69.387755 0.000000
27.959184 77.551020 0.000000
2.040816 22.448980 0.000000
27.959184 22.448980 0.000000
27.959252 26.530681 0.000000
27.959184 18.367347 0.000000
2.040816 83.673469 0.000000
27.959184 14.285714 0.000000
25.913747 81.628033 0.000000
2.043283 87.757569 0.000000
2.046930 14.291828 0.000000
27.956122 10.201020 0.000000
27.953028 85.708130 0.000000
2.051111 8.173560 0.000000
27.948877 91.826428 0.000000
27.877535 6.025956 0.000000
2.132881 93.976795 0.000000
4.000357 6.267740 0.000000
4.120886 4.222927 0.000000
25.999609 93.732219 0.000000
25.879089 95.777048 0.000000
15.649674 48.560769 0.000000
26.010158 67.277614 0.000000
25.918367 24.489796 0.000000
4.081633 79.591837 0.000000
25.916050 16.328010 0.000000
23.873553 79.584761 0.000000
3.481175 55.433151 0.000000
24.733850 51.947925 0.000000
3.652422 50.744354 0.000000
25.910700 12.249504 0.000000
23.509255 6.363423 0.000000
26.366938 49.758281 0.000000
26.399277 43.548901 0.000000
3.661711 59.758281 0.000000
25.957156 34.691433 0.000000
10.699495 4.264413 0.000000
19.300303 95.735157 0.000000
17.109994 4.256463 0.000000
[...]
POINT_DATA 1437
SCALARS UX float 1
LOOKUP_TABLE default
-21897329064491705940754971372834733976687966219450797653176086396141568.000000
31243307287534730657626201496526743819423552444740532655539532882509824.000000
24860097256197394712813423613897892263402583180507935191022345620815872.000000
13862439188553528451042521213629458360030400099560469313899935739936768.000000
-2011189702461754730931939231897286863382034131358484875831600681517517956539792490496.000000
27603205620357426637184632425181262486360912274011692109386323622625280.000000
-43718517974750615959386566880949440434602071016594518777539231901286400.000000
-1088293836833393143133194748648701034009102572239644388934352556261376.000000
21216843739681332044509553366085895196752130456377145252615479741120512.000000
-1064535348572310012166740507311545482583268461671881777858919371112448.000000
30017821156954206124153570194730366982590918690045400804214153246932992.000000
-30764037454887193397938500246183066621016779117833119780981104481140736.000000
43166455689533745592632656282052422834059077051416476465604491254693888.000000
-146434458205987549350896508729392195699283043295268987219839319776690176.000000
525128246843810558067263524997861737616882303053978134302651641350848512.000000
-533083021909121998958351533837664084809726754372546128165506507721408512.000000
155348507837338904777356307688006418209230609754012344005701831214759936.000000
-63544508157552153967092707050510078218116184434019591224111695633842176.000000
-69783742602051617691551316979321275102745768298769270860094105925028767750508511232.000000
10940583577166849469035335007353856914201633055668772061513316741421398387385696256.000000
92476284643722370152678081379606044216051856325190889214098358739192691167875563520.000000
-65688508929626832459809346815361006028094599570133385227756991795924692306694766592.000000
-137091177624006822243112524842981359696265147127277753829456715240884160335355838464.000000
-185600351598694628798598334109524211646780432026194225801757458315853268970033381376.000000
-200445003320806264179791970211734894351873426836017452713653317126009463797691973632.000000
-208542102475029380325276815785190638615083655233995066396800924344093716079160852480.000000
-476810105736991171650942699860702362441859793963166833174985810994924917158087491584.000000
-608124822519230426652335043420757294746454600159264792592192216396313411520204636160.000000
-663185727588498241906453607774528587400580920966691310530332264722256365394082136064.000000
-951619415762393703172143993011393777283047065164644403243073130124844973869856980992.000000
-812572138967579824115169797336534307888833780000676072849482240837155613247004475392.000000
-1013918527807838429415753760103447350655697982533704803735677179991962747021700366336.000000
-1195427725452163346711677780867527332458698004544314240249637399719029948083752402944.000000
-2204162050758814111394178672943936289708541625893349184699170876015694667018378674176.000000
-1582749686167678552314528355821043092701175109282293122948446067801497464526363164672.000000
-1373504905555708558963097442410274522414744755248268098684307338433983810059947212800.000000
-1696174998672538767350258810176316312125500404578967861052506041790343996618871668736.000000
-1033701717485348430400113260936007138639313488363924642560628500447113302959347204096.000000
-838861254992982914593749705646356805850540041060488169794341414035587540594622201856.000000
-1730159211423707457550340979189234761252821202675231453947988005988162610793864495104.000000
-1560908210143931071391870812075985322604960166362588789898042827879397153206028992512.000000
-2237270408330724372288848994428435031476591016682972273204022077542182317464806752256.000000
-3047910812201693595781828700381546740134043934547629394536891621404346505184736706560.000000
-3979573549738730815977224933176770859811041555759123102322462766276137326492025618432.000000
-6540286784099640456972517075791594617437374219898702673974150165771004360186822393856.000000
1680048337900126808391169152934270461847429631627916974265014586373441601850295975936.000000
66249843108976051666882313984215605444003932080976924190319563928115236144943202304.000000
-1005337649515995059978380842570377917955242730413343201625537114896640286086387466240.000000
1382360327248702515027945233524994745899378687498539824659319048979546820445460234240.000000
-1397158010017447777785985929238710181151987235385581527562781050593344161495574904832.000000
-2298932687146641258129498695328328470812326149765542057907512671672356488151891443712.000000
-3246217507798721799920013219529377577308768518222773363210328429055125275235101704192.000000
-84109556755903980139139597440358696776610600070856592700787754089833988558094860288.000000
731611260973897709396492031147528034887083078807347186456295317236404053870490157056.000000
1105195907464441332759504640736493352402474997413529809023073597407145652815155691520.000000
1979918634166670080837934298307289207339784666968305369444502978718020670301868654592.000000
498489221180578126886723054817423302619974456924449593832615053030651392758642638848.000000
-170322449421754384235902933026160164300908641685532102189588975236199001246113202176.000000
-1141868562365180573890567717026388132445563736448432066856223086558791936464903995392.000000
-1793905050238434901897792043285927394801317324106615475364316873752709874706141937664.000000
-2375706720642237799051399832302958465972570080082806171837390231145638259317664645120.000000
-1254403065391292879885519689011676788858630111051209938154006642724246561447238172672.000000
-495642698555404856462676482587273751200772505966639762392781154416031862438831849472.000000
660914036397482506398326784736559556583549079333187034773598564554751773002992451584.000000
-1597475573007885670611842755128469398824178245104578372410326424473236740484611702784.000000
-810630449586898936050948360332541923422660769692964980874221456222181369421896876032.000000
4390997702858642120272283952225881169774351434825420040928024946802688.000000
39272772458593916130930084359750572347452743368276711920964624478896128.000000
-3674631915173608083238996452169699678343430625902974585052676417912832.000000
-5837758164958949384650254974899312681016779636027171363779129009766400.000000
-32332697751791248069609140832887878696055611569452366924941467821539328.000000
-409695359439075419255941577309681495676139267985771909710328809652224.000000
36654095651360684084954778470683620242264312540438062842908919218569216.000000
-79327350220194569070703022680361730122986069922024959238691966456692736.000000
42959195719555874851758940534219895884671260039061241293572578742370304.000000
1927342936735246641524720983612943736223865047630409008544156624093184.000000
6750918028440002717009151698773133240458442842322761240107014720323584.000000
-6672491514322922944260870416096021419258406521518796531801939861569536.000000
-10513867243633923095324522342332272086217947875431598631786826277322752.000000
127181243231809963848599873133018806018093610203682930299814192510421973493769830400.000000
564028035993805808260505811311239664514130783430655307443685351440942222976302972928.000000
1098212130478518886160871725610653049522582483388953681107304548141392591320485199872.000000
1134320500207111494701827861890272482908447362053487091170098311975326182629508644864.000000
894850798524248112781574980167602375288971212341456572802719545191483679538052857856.000000
828620530865793190391014081290956375733379129155268739149709336088600458802992513024.000000
762559087481157922533201581736013633965745791489976950739968001353629265538312044544.000000
808591956726064901142211562740094166495320168848330656358914958597994058387870973952.000000
556797010558609212763899149994139057573027677102175988046205113014549557716958838784.000000
117965221060890733794931298319589496714088171212151648753782034736135787035922268160.000000
-129579524245019480483992436578124789266824426738702378584861765467879355749421285376.000000
-731782014521405717372741460008911113042740467364212496075825714528334083928149196800.000000
-989019259842072840810960895156138119513267265415198630321499636093797682431148425216.000000
-934940831617514512627535465915468193850721705352069459276927589680224655734594338816.000000
-323289993089687653234664187253871087361283537902826740191621505200440409568988626944.000000
306909661723812340557927418453300707093335605612204278341784701299400338099086032896.000000
-2612576196431226140051423225195748742712760994182694921000321511017138902297684738048.000000
-1353808649743225024572414998512944877019588486755812377492332412955728605954453798912.000000
-1685573830396973460683861854430784521316304328474088532336134139260812676438859710464.000000
-2709469067884702018721020685500224505009754106897977169683433111402748213045957230592.000000
-1561323733129466281025198956538134605443560182154507116104360053412470006499753590784.000000
-214999612419668523546119286110984771562548238638808814786472023699695799847241121792.000000
-1583627988240679977800649234917571862061362789150708091837336494836358067691890671616.000000
-1433485624792382091078625647948766574481899012624940400452193694538508327988251066368.000000
-1342665342546059115547679397894734868947390925233725983381399433703972267452698460160.000000
-1501288438580264896079750429403067666178353827142863940129680626799325688884495384576.000000
-1514877894132312203461970696820969488922658842997906034127020250447261379731577110528.000000
-1604639030135043859534563872282371721546930184216590464174351517826072191072481574912.000000
-1221648689069648546032520843309660221299132282005941105663048450197484517930299293696.000000
-1516758905708033804272979818624227634373976528058318074748217008257116550775812653056.000000
-1027258410724855236152064494390823037185865347227709627574232710906588862570502815744.000000
-740807019539564122654200859208008463077338042308260846046806025211808616001967226880.000000
-578913332712927102907963889952263927878419971971603836819117487955858281217233256448.000000
-613821549692218195992847195020633416404694848811144095298918778687414311684054974464.000000
-499899964967241217734682428169374721929779254054253676047493810406048192013340246016.000000
-549939035746512322044747555080809605036864518568363500036247845071556551907173466112.000000
-523104823427972305447673374870150644781307503542002643520747609566514157091326787584.000000
-495569117860644437428850420124915989272934768481377866260213673760748420727538974720.000000
-489516162995923135977562350086996919610471573094908633336414547931459537107161186304.000000
-222530891082700136923856988252670648520014375302968939954938216429713462011772272640.000000
425363505423513931589394017824037029479617823730978530591398089873843577444506796032.000000
-254883748676596759197176062108074903581018062700990949562639374203251116161825243136.000000
-319419893350153302825445419744414677499173611328262561662154172112858126426212139008.000000
-253229476018980730603746853761077657740459133935335058851761019347837602294128443392.000000
176338453212513026846691584282027752918006634384429260400697055150635342246711394304.000000
-184837332271348753402415298606345965294125208404307374755751574364431522793651175424.000000
-21265641984358912059562132516015391625225319713415063794632596451240650509509459968.000000
233742725411715968332675637213676005515993956436691147374812258249963282555694219264.000000
-1945661246527754530372315811748652825828468414268719584988647246595076105397740765184.000000
-2005294704442901006047170091090660549372573544349434245222820293605700365857809498112.000000
-1942813949290341423261117007038447107743637210504438592562403657277672573125739413504.000000
-1912928125144346667657731271373054707239913199233980241342829807267912742127670394880.000000
-1942072773093920607008565224309708918545263813111153863249410999524802484283954429952.000000
-1843609196310048933657886719279152294827261381315148795695116067755778963222667722752.000000
-1642027534729133336702473146239355413124138446296194503582321260286358717381495226368.000000
-1607967133250786021976605120646888187585940052098060425167635855097029509299054837760.000000
-1428373602957103216954548799900374494642126353280196685269419691779177274080126566400.000000
-1262462075155463594511421024357468423729728102277291908434431672017525901690606190592.000000
-1262964061448504903063877513393869407597316132959515997834067117314727426171577827328.000000
-1421966734193112253174858107389158891403887447641609506439841773810401967857064738816.000000
-1461025422956155693627916808780253026099584395014043652455932130716541381956065034240.000000
-1445657291662045006927557707457954312793283538345900166355962286117296196112653221888.000000
-1511625665383731176654675598565659148338351742961793238872561190862613072503380115456.000000
-1497080531419553379781700185462289987386681583462552759524988507632088361577090121728.000000
-1429084504473432718105226548694589134663752802220483193314540402831032244207651651584.000000
-1388671991037182437431894207281365969885376463834459345082276947806073025672373075968.000000
-929618881416799683763620925676105571117114301999606056308345165466351938354953584640.000000
-1362537418426589053216643932818657233080046692245143881566013176106365161887359827968.000000
-1315815858976503864271490590903915091725203174152719897534127134988231170964196425728.000000
-1731408882887709357016216287292823768831587284280332132778106175974854181408848478208.000000
-1574456299593376299335495584494900927426706740181626785706227127034788541403399979008.000000
-1602755380500347675565958063650253048199590827102424676001132215599274920446189895680.000000
-1497380975960561559657947997093990592573536581787308385608362986775137673518312849408.000000
-1483172255118105763171952294882506091451550480829941781543224310838817890391337992192.000000
-1462241242715402943742688194721995538914623397000933297266444115423708561717950676992.000000
-1531665942508723618751292336871204095223210785392076488465085148625354305483455856640.000000
-1548698826128113938035474299179211792999555206295754058185927873214911227518869569536.000000
-1605258378753423521855166467219964995722908061734959062114593267557197079328260620288.000000
-1560825041307289185644143919468559591978020998732972865849741280989485261194050666496.000000
-1585214365601251940153429807384387259034247101794248918309837427769312009543833616384.000000
-1639043685904825084515848250177682696470882720633601599117894151926209162975350095872.000000
-1573105338602966823031811789435804773189201181528393835556420511849428223691495309312.000000
-1579742241049628422394022902774015868787786936692109845666157826038830263213016219648.000000
-1709228025170841502677208398506297935011044358592686733230892910775244572652994560000.000000
-1603886804563683016175843494136665844147465861966126941783004884803576163179064983552.000000
-1396801796437502556578138639926930568666712516588065852044448256684818361992704163840.000000
-1465003337796284570333320678942800096817552013015336607924499181578834221967792406528.000000
-1562821169143852116781441914920596973770059225810583254605291358118240457814506995712.000000
-1595327815612725850326522767124074957002731583716968711198843822865736481863045742592.000000
-1555660803907450842129493089796936151266948418279097903981136197478744782946521055232.000000
-1575478336910916018633897831731420721431592419616135446760403668033225533198667087872.000000
-1631240528876511858252456394041783990670983051882275343726915329183009538255198617600.000000
-1749531489505653342859554174863630813640742399063088779008026998711006542016263749632.000000
-1953321455714803734522277567540276988234940759625441455405748800793279910747796668416.000000
-2008910227591613409661341536580152322026913193407029423729122108396300704120884428800.000000
-2088712801823055683053685147449466549109047477339448891271699008564089392731921580032.000000
-1770325182866462520450136939256507039809851929313051903631332248292642083742351884288.000000
-1737316736838057523793290933550042200678943160947370741014902665371197439697708122112.000000
-1908266346529608796136440301025410455884563275155476214885961184519530521364290076672.000000
-2091922079977149618642601973058606918238091129238563808135042365660083194423937073152.000000
-1506300957731151100433555608016240176265153042978601078195076245620807755798698524672.000000
-1299229277897884540443834442894216447771318936674953995916909572542338515452207038464.000000
-1568103034229157966655494070959786483359839733119616822370918726148204110786202697728.000000
367392076952543128225542946973590299431367337843041093557087216965032683723716296704.000000
-499849352508672419148603477977414332389911078034909866644144511037529682170712424448.000000
-615130767863988566704147898208114899690924946792980834918548954429620147165853646848.000000
574593778546563217716731030724375436277854256237233965163546007800536890039487954944.000000
-318298752514086829730421906740144785366695931784238326446059855475426416808922447872.000000
-239815355790593304123223571387456430377022594871823202017926661860813252184516853760.000000
-656970930136122019753569093823392081538019010393505340967400305217667149802661478400.000000
-1071979457138074031312115624719393632890595731687863922338625985126634735818403479552.000000
-1168670441266125406861282581511104490148343802495456287465686680170692876317210181632.000000
-1810867802452613194837133119624510754980284436959047956285967964817157601342575869952.000000
-1769102280520433748020036684182188217919988996546680730592020182951126054461125951488.000000
-2063064413426506316471119151485258608548894850135554849689898983479828958798155874304.000000
672914604424833413518188667517715930740671118157408666251039120518997077437062316032.000000
-3180962649130531221693838355617597061255329635020719760616865294488058482525208576.000000
-382342967509782455054335956055226756637466402829410715883455294325995455138821570560.000000
-1917978997929548946595730320088306222924156886566823448167370901709168898613234892800.000000
-3046673139175449422997521082321314980664128918132631767531372541496989269529452347392.000000
-1354228158365362195568328518984883667944643130842884186823846015437830480136899657728.000000
-302535811785201912551865324984640093892984650797411315326899692262814508448512737280.000000
5935811494921169651549005038606060866438422775002826188549672854701403326887493632.000000
1134696011067717682849080011158504903831909291097560959011587762865490911647475171328.000000
-2364891161020813912159166412046149374995197501912249518120351306556898515096908595200.000000
-19454621064995003022038914653262528439500674740216396052453188532973334356144685056.000000
834222835254108640626664427043579795806575270627577660730118891970910443719121436672.000000
8014664513639134269703295487099114221107679932015846446934415384146270462503026688.000000
-61466341532322548944331584708611225743586736605708834809168271475943664832867205120.000000
63409417746139200212559365487959046033141434085473395824131727894865222000730701824.000000
333851245042114069207203496928500965730751453079910643207576742292179216328902574080.000000
-1459164238149153531787743077358424825733392479597585484078770111626261081291747229696.000000
-1792886264332115280169430085348595846992732733917266615350229836710074772051103580160.000000
-37658173196175815517117896232488535680553948145199086686068370321768724531200917504.000000
421160611501456447446590103698739766621871819964984202363912808655839063569804034048.000000
-492788732310150754700536400954760664897870132015459888571488198258047542499416735744.000000
417098009852753346718426886843382752277845321854772039471054198169046794621119627264.000000
-658184697278900759756670671119340940301423335724459860436208194684387272867920740352.000000
-1115360211982310645497306215815826525594752745182852579984597592368522362519340187648.000000