# vtk DataFile Version 2.0
Test
ASCII
DATASET POLYDATA
POINTS 5444 float
0.000000 0.000000 0.000000
13.300000 0.000000 0.000000
15.000000 1.700000 0.000000
15.000000 50.000000 0.000000
0.000000 50.000000 0.000000
15.000000 20.000000 0.000000
0.000000 20.000000 0.000000
0.198507 0.000000 0.000000
0.397015 0.000000 0.000000
0.595522 0.000000 0.000000
0.794030 0.000000 0.000000
0.992537 0.000000 0.000000
1.191045 0.000000 0.000000
1.389552 0.000000 0.000000
1.588060 0.000000 0.000000
1.786567 0.000000 0.000000
1.985075 0.000000 0.000000
2.183582 0.000000 0.000000
2.382090 0.000000 0.000000
2.580597 0.000000 0.000000
2.779104 0.000000 0.000000
2.977612 0.000000 0.000000
3.176119 0.000000 0.000000
3.374627 0.000000 0.000000
3.573134 0.000000 0.000000
3.771642 0.000000 0.000000
3.970149 0.000000 0.000000
4.168657 0.000000 0.000000
4.367164 0.000000 0.000000
4.565672 0.000000 0.000000
4.764179 0.000000 0.000000
4.962687 0.000000 0.000000
5.161194 0.000000 0.000000
5.359701 0.000000 0.000000
5.558209 0.000000 0.000000
5.756716 0.000000 0.000000
5.955224 0.000000 0.000000
6.153731 0.000000 0.000000
6.352239 0.000000 0.000000
6.550746 0.000000 0.000000
6.749254 0.000000 0.000000
6.947761 0.000000 0.000000
7.146269 0.000000 0.000000
7.344776 0.000000 0.000000
7.543284 0.000000 0.000000
7.741791 0.000000 0.000000
7.940299 0.000000 0.000000
8.138806 0.000000 0.000000
8.337313 0.000000 0.000000
8.535821 0.000000 0.000000
8.734328 0.000000 0.000000
8.932836 0.000000 0.000000
9.131343 0.000000 0.000000
9.329851 0.000000 0.000000
9.528358 0.000000 0.000000
9.726866 0.000000 0.000000
9.925373 0.000000 0.000000
10.123881 0.000000 0.000000
10.322388 0.000000 0.000000
10.520896 0.000000 0.000000
10.719403 0.000000 0.000000
10.917910 0.000000 0.000000
11.116418 0.000000 0.000000
11.314925 0.000000 0.000000
11.513433 0.000000 0.000000
11.711940 0.000000 0.000000
11.910448 0.000000 0.000000
12.108955 0.000000 0.000000
12.307463 0.000000 0.000000
12.505970 0.000000 0.000000
12.704478 0.000000 0.000000
12.902985 0.000000 0.000000
13.101493 0.000000 0.000000
13.310689 0.190340 0.000000
13.342623 0.378286 0.000000
13.395398 0.561474 0.000000
13.468353 0.737602 0.000000
13.560569 0.904455 0.000000
13.670886 1.059933 0.000000
13.797918 1.202082 0.000000
13.940067 1.329114 0.000000
14.095545 1.439431 0.000000
14.262398 1.531647 0.000000
14.438526 1.604602 0.000000
14.621714 1.657377 0.000000
14.809660 1.689311 0.000000
15.000000 1.903396 0.000000
15.000000 2.115836 0.000000
15.000000 2.337719 0.000000
15.000000 2.569468 0.000000
15.000000 2.811519 0.000000
15.000000 3.064332 0.000000
15.000000 3.328384 0.000000
15.000000 3.604176 0.000000
15.000000 3.892228 0.000000
15.000000 4.193087 0.000000
15.000000 4.507322 0.000000
15.000000 4.835527 0.000000
15.000000 5.178324 0.000000
15.000000 5.536360 0.000000
15.000000 5.910315 0.000000
15.000000 6.300894 0.000000
15.000000 6.708838 0.000000
15.000000 7.134919 0.000000
15.000000 7.579942 0.000000
15.000000 8.044751 0.000000
15.000000 8.530224 0.000000
15.000000 9.037280 0.000000
15.000000 9.566879 0.000000
15.000000 10.120023 0.000000
15.000000 10.697759 0.000000
15.000000 11.301180 0.000000
15.000000 11.931428 0.000000
15.000000 12.589696 0.000000
15.000000 13.277229 0.000000
15.000000 13.995328 0.000000
15.000000 14.745353 0.000000
15.000000 15.528723 0.000000
15.000000 16.346921 0.000000
15.000000 17.201493 0.000000
15.000000 18.094059 0.000000
15.000000 19.026306 0.000000
15.000000 21.000000 0.000000
15.000000 22.000000 0.000000
15.000000 23.000000 0.000000
15.000000 24.000000 0.000000
15.000000 25.000000 0.000000
15.000000 26.000000 0.000000
15.000000 27.000000 0.000000
15.000000 28.000000 0.000000
15.000000 29.000000 0.000000
15.000000 30.000000 0.000000
15.000000 31.000000 0.000000
15.000000 32.000000 0.000000
15.000000 33.000000 0.000000
15.000000 34.000000 0.000000
15.000000 35.000000 0.000000
15.000000 36.000000 0.000000
15.000000 37.000000 0.000000
15.000000 38.000000 0.000000
15.000000 39.000000 0.000000
15.000000 40.000000 0.000000
15.000000 41.000000 0.000000
15.000000 42.000000 0.000000
15.000000 43.000000 0.000000
15.000000 44.000000 0.000000
15.000000 45.000000 0.000000
15.000000 46.000000 0.000000
15.000000 47.000000 0.000000
15.000000 48.000000 0.000000
15.000000 49.000000 0.000000
14.000000 50.000000 0.000000
13.000000 50.000000 0.000000
12.000000 50.000000 0.000000
11.000000 50.000000 0.000000
10.000000 50.000000 0.000000
9.000000 50.000000 0.000000
8.000000 50.000000 0.000000
7.000000 50.000000 0.000000
6.000000 50.000000 0.000000
5.000000 50.000000 0.000000
4.000000 50.000000 0.000000
3.000000 50.000000 0.000000
2.000000 50.000000 0.000000
1.000000 50.000000 0.000000
0.000000 49.023530 0.000000
0.000000 48.072486 0.000000
0.000000 47.146207 0.000000
0.000000 46.244047 0.000000
0.000000 45.365379 0.000000
0.000000 44.509591 0.000000
0.000000 43.676087 0.000000
0.000000 42.864286 0.000000
0.000000 42.073624 0.000000
0.000000 41.303550 0.000000
0.000000 40.553529 0.000000
0.000000 39.823037 0.000000
0.000000 39.111567 0.000000
0.000000 38.418623 0.000000
0.000000 37.743723 0.000000
0.000000 37.086396 0.000000
0.000000 36.446186 0.000000
0.000000 35.822646 0.000000
0.000000 35.215343 0.000000
0.000000 34.623854 0.000000
0.000000 34.047766 0.000000
0.000000 33.486679 0.000000
0.000000 32.940203 0.000000
0.000000 32.407956 0.000000
0.000000 31.889569 0.000000
0.000000 31.384680 0.000000
0.000000 30.892938 0.000000
0.000000 30.414000 0.000000
0.000000 29.947534 0.000000
0.000000 29.493214 0.000000
0.000000 29.050724 0.000000
0.000000 28.619757 0.000000
0.000000 28.200011 0.000000
0.000000 27.791195 0.000000
0.000000 27.393025 0.000000
0.000000 27.005222 0.000000
0.000000 26.627518 0.000000
0.000000 26.259648 0.000000
0.000000 25.901358 0.000000
0.000000 25.552397 0.000000
0.000000 25.212523 0.000000
0.000000 24.881499 0.000000
0.000000 24.559095 0.000000
0.000000 24.245086 0.000000
0.000000 23.939253 0.000000
0.000000 23.641384 0.000000
0.000000 23.351271 0.000000
0.000000 23.068713 0.000000
0.000000 22.793512 0.000000
0.000000 22.525477 0.000000
0.000000 22.264421 0.000000
0.000000 22.010164 0.000000
0.000000 21.762526 0.000000
0.000000 21.521338 0.000000
0.000000 21.286429 0.000000
0.000000 21.057638 0.000000
0.000000 20.834803 0.000000
0.000000 20.617772 0.000000
0.000000 20.406391 0.000000
0.000000 20.200515 0.000000
0.000000 19.800000 0.000000
0.000000 19.600000 0.000000
0.000000 19.400000 0.000000
0.000000 19.200000 0.000000
0.000000 19.000000 0.000000
0.000000 18.800000 0.000000
0.000000 18.600000 0.000000
0.000000 18.400000 0.000000
0.000000 18.200000 0.000000
0.000000 18.000000 0.000000
0.000000 17.800000 0.000000
0.000000 17.600000 0.000000
0.000000 17.400000 0.000000
0.000000 17.200000 0.000000
0.000000 17.000000 0.000000
0.000000 16.800000 0.000000
0.000000 16.600000 0.000000
0.000000 16.400000 0.000000
0.000000 16.200000 0.000000
0.000000 16.000000 0.000000
0.000000 15.800000 0.000000
0.000000 15.600000 0.000000
0.000000 15.400000 0.000000
0.000000 15.200000 0.000000
0.000000 15.000000 0.000000
0.000000 14.800000 0.000000
0.000000 14.600000 0.000000
0.000000 14.400000 0.000000
0.000000 14.200000 0.000000
0.000000 14.000000 0.000000
0.000000 13.800000 0.000000
0.000000 13.600000 0.000000
0.000000 13.400000 0.000000
0.000000 13.200000 0.000000
0.000000 13.000000 0.000000
0.000000 12.800000 0.000000
0.000000 12.600000 0.000000
0.000000 12.400000 0.000000
0.000000 12.200000 0.000000
0.000000 12.000000 0.000000
0.000000 11.800000 0.000000
0.000000 11.600000 0.000000
0.000000 11.400000 0.000000
0.000000 11.200000 0.000000
0.000000 11.000000 0.000000
0.000000 10.800000 0.000000
0.000000 10.600000 0.000000
0.000000 10.400000 0.000000
0.000000 10.200000 0.000000
0.000000 10.000000 0.000000
0.000000 9.800000 0.000000
0.000000 9.600000 0.000000
0.000000 9.400000 0.000000
0.000000 9.200000 0.000000
0.000000 9.000000 0.000000
0.000000 8.800000 0.000000
0.000000 8.600000 0.000000
0.000000 8.400000 0.000000
0.000000 8.200000 0.000000
0.000000 8.000000 0.000000
0.000000 7.800000 0.000000
0.000000 7.600000 0.000000
0.000000 7.400000 0.000000
0.000000 7.200000 0.000000
0.000000 7.000000 0.000000
0.000000 6.800000 0.000000
0.000000 6.600000 0.000000
0.000000 6.400000 0.000000
0.000000 6.200000 0.000000
0.000000 6.000000 0.000000
0.000000 5.800000 0.000000
0.000000 5.600000 0.000000
0.000000 5.400000 0.000000
0.000000 5.200000 0.000000
0.000000 5.000000 0.000000
0.000000 4.800000 0.000000
0.000000 4.600000 0.000000
0.000000 4.400000 0.000000
0.000000 4.200000 0.000000
0.000000 4.000000 0.000000
0.000000 3.800000 0.000000
0.000000 3.600000 0.000000
0.000000 3.400000 0.000000
0.000000 3.200000 0.000000
0.000000 3.000000 0.000000
0.000000 2.800000 0.000000
0.000000 2.600000 0.000000
0.000000 2.400000 0.000000
0.000000 2.200000 0.000000
0.000000 2.000000 0.000000
0.000000 1.800000 0.000000
0.000000 1.600000 0.000000
0.000000 1.400000 0.000000
0.000000 1.200000 0.000000
0.000000 1.000000 0.000000
0.000000 0.800000 0.000000
0.000000 0.600000 0.000000
0.000000 0.400000 0.000000
0.000000 0.200000 0.000000
6.700761 25.028064 0.000000
6.229170 24.805529 0.000000
6.607110 24.547341 0.000000
9.547749 25.307672 0.000000
9.742595 24.798801 0.000000
10.272176 25.176513 0.000000
6.100012 25.251027 0.000000
1.224575 2.282818 0.000000
1.219488 2.463682 0.000000
1.077587 2.325613 0.000000
13.348300 21.924783 0.000000
12.788640 21.837730 0.000000
13.245270 21.165342 0.000000
13.546660 23.230269 0.000000
13.645078 22.402802 0.000000
14.267919 22.640920 0.000000
12.860216 18.385325 0.000000
13.333203 18.955898 0.000000
12.520632 19.042651 0.000000
12.360329 0.210531 0.000000
12.476850 0.126393 0.000000
1.373725 2.328208 0.000000
0.156653 3.852616 0.000000
0.110702 3.707592 0.000000
0.269922 3.700791 0.000000
11.205310 26.162877 0.000000
11.609077 25.440075 0.000000
11.949248 26.267501 0.000000
12.224028 0.345349 0.000000
12.081323 0.244928 0.000000
12.183796 0.153367 0.000000
10.135658 9.476949 0.000000
[...]
POINT_DATA 5444
SCALARS UX float 1
LOOKUP_TABLE default
0.013764
0.004485
0.000000
0.000000
0.012966
0.000000
0.012950
0.013597
0.013429
0.013262
0.013094
0.012927
0.012759
0.012591
0.012423
0.012255
0.012087
0.011920
0.011752
0.011585
0.011417
0.011250
0.011083
0.010917
0.010750
0.010584
0.010418
0.010253
0.010088
0.009923
0.009759
0.009596
0.009432
0.009270
0.009108
0.008946
0.008786
0.008626
0.008466
0.008308
0.008150
0.007994
0.007838
0.007683
0.007530
0.007377
0.007226
0.007077
0.006929
0.006783
0.006638
0.006496
0.006355
0.006217
0.006082
0.005950
0.005820
0.005695
0.005573
0.005455
0.005342
0.005234
0.005131
0.005035
0.004947
0.004869
0.004797
0.004733
0.004683
0.004641
0.004609
0.004582
0.004549
0.004438
0.004382
0.004236
0.004043
0.003793
0.003497
0.003165
0.002789
0.002380
0.001938
0.001472
0.000998
0.000493
0.000000
0.000000
0.000000
0.000000
0.000000
0.000000
0.000000
0.000000
0.000000
0.000000
0.000000
0.000000
0.000000
0.000000
0.000000
0.000000
0.000000
0.000000
0.000000
0.000000
0.000000
0.000000
0.000000
0.000000
0.000000
0.000000
0.000000
0.000000
0.000000
0.000000
0.000000
0.000000
0.000000
0.000000
0.000000
0.000000
0.000000
0.000000
0.000000
0.000000
0.000000
0.000000
0.000000
0.000000
0.000000
0.000000
0.000000
0.000000
0.000000
0.000000
0.000000
0.000000
0.000000
0.000000
0.000000
0.000000
0.000000
0.000000
0.000000
0.000000
0.000000
0.000000
0.000000
0.000000
0.000000
0.000864
0.001729
0.002593
0.003457
0.004321
0.005186
0.006050
0.006915
0.007779
0.008644
0.009508
0.010373
0.011237
0.012102
0.012966
0.012966
0.012965
0.012965
0.012964
0.012964
0.012963
0.012963
0.012962
0.012962
0.012961
0.012960
0.012960
0.012959
0.012958
0.012957
0.012956
0.012955
0.012954
0.012954
0.012953
0.012952
0.012951
0.012950
0.012949
0.012948
0.012947
0.012946
0.012945
0.012944
0.012944
0.012943
0.012942
0.012942
0.012941
0.012940
0.012940
0.012940
0.012939
0.012939
0.012939
0.012939
0.012939
0.012939
0.012939
0.012939
0.012939
0.012940
0.012940
0.012940
0.012941
0.012942
0.012942
0.012943
0.012944
0.012945
0.012946
0.012947
0.012948
0.012949
0.012951
0.012953
0.012954
0.012956
0.012958
0.012959
0.012961
0.012963
0.012965
0.012968
0.012970
0.012973
0.012975
0.012978
0.012981
0.012984
0.012987
0.012991
0.012994
0.012998
0.013002
0.013006
0.013010
0.013015
0.013020
0.013025
0.013030
0.013035
0.013041
0.013047
0.013053
0.013059
0.013065
0.013072
0.013079
0.013087
0.013094
0.013102
0.013110
0.013118
0.013127
0.013136
0.013145
0.013155
0.013164
0.013174
0.013185
0.013195
0.013206
0.013217
0.013229
0.013240
0.013252
0.013264
0.013277
0.013289
0.013302
0.013316
0.013329
0.013342
0.013356
0.013370
0.013384
0.013398
0.013412
0.013427
0.013441
0.013456
0.013470
0.013485
0.013499
0.013513
0.013528
0.013542
0.013556
0.013570
0.013583
0.013597
0.013610
0.013623
0.013635
0.013647
0.013659
0.013670
0.013680
0.013690
0.013700
0.013709
0.013717
0.013725
0.013732
0.013739
0.013745
0.013750
0.013754
0.013757
0.013760
0.013762
0.013763
0.007138
0.007544
0.007218
0.004685
0.004516
0.004061
0.007657
0.012676
0.012672
0.012799
0.001416
0.001897
0.001505
0.001247
0.001162
0.000628
0.001835
0.001429
0.002127
0.004646
0.004636
0.012548
0.013498
0.013546
0.013411
0.003260
0.002912
0.002621
0.004646
0.004713
0.004701
0.004286
0.004374
0.004652
0.003499
0.006236
0.006136
0.006299
0.011177
0.011396
0.011277
0.011291
0.012705
0.012841
0.012792
0.009982
0.009860
0.009899
0.009746
0.012714
0.012750
0.012854
0.012868
0.013309
0.013196
0.013323
0.013159
0.013216
0.013399
0.013338
0.013205
0.012105
0.011952
0.012003
0.012108
0.003939
0.003637
0.010894
0.011024
0.010855
0.011128
0.012888
0.012828
0.008276
0.008376
0.008251
0.003349
0.004075
0.012881
0.012755
0.012733
0.002524
0.002994
0.002981
0.002240
0.008435
0.004437
0.004835
0.004209
0.013275
0.003403
0.003961
0.003603
0.003975
0.001099
0.000500
0.000687
0.013012
0.012864
0.012814
0.013030
0.009827
0.009670
0.009939
0.013092
0.001093
0.000773
0.000845
0.002594
0.002473
0.002723
0.002580
0.009645
0.011538
0.011368
0.012015
0.011878
0.010508
0.010279
0.010248
0.010046
0.008163
0.008059
0.008642
0.004391
0.004505
0.004423
0.004530
0.003703
0.004049
0.004417
0.004859
0.001025
0.012669
0.012806
0.012821
0.012341
0.011837
0.012414
0.011909
0.005185
0.004711
0.012335
0.012225
0.012200
0.011117
0.010589
0.010739
0.010156
0.003753
0.003015
0.002872
0.002898
0.011638
0.011489
0.011641
0.001124
0.001089
0.001567
0.000720
0.010841
0.011268
0.007824
0.007430
0.007947
0.007367
0.002477
0.002786
0.008393
0.008103
0.007626
0.007378
0.010304
0.010637
0.010558
0.010952
0.010926
0.002243
0.009388
0.009039
0.008777
0.009864
0.005535
0.005419
0.005392
0.008223
0.007830
0.008396
0.005476
0.007417
0.007026
0.007242
0.007121
0.005370
0.005045
0.004922
0.011351
0.004722
0.011383
0.011913
0.011475
0.011458
0.011817
0.011860
0.011993
0.009295
0.009091
0.009410
0.012085
0.010805
0.010766
0.010913
0.010379
0.010461
0.010215
0.001396
0.001245
0.001556
0.001539
0.001611
0.001293
0.001430
0.004416
0.004600
0.004566
0.004729
0.006451
0.006087
0.005899
0.005363
0.004156
0.004072
0.004297
0.003897
0.010653
0.010330
0.005339
0.005272
0.005884
0.005502
0.012195
0.011993
0.012143
0.012002
0.010453
0.010533
0.010379
0.013199
0.013011
0.013129
0.009049
0.008962
0.009134
0.009079
0.013401
0.013373
0.013237
0.012939
0.010071
0.009749
0.009520
0.010204
0.009120
0.009384
0.009357
0.009568
0.012783
0.012893
0.012682
0.012818
0.012774
0.010332
0.009991
0.010254
0.000915
0.001146
0.001004
0.001135
0.001088
0.000865
0.000866
0.010385
0.010179
0.010097
0.009875
0.008603
0.008542
0.008470
0.008682
0.009145
0.008982
0.013367
0.013219
0.005944
0.005881
0.005757
0.012271
0.011687
0.011618
0.012024
0.009584
0.009805
0.009588
0.009735
0.010161
0.010540
0.010903
0.010461
0.010981
0.013192
0.013333
0.007374
0.007563
0.007171
0.007761
0.010307
0.011666
0.011936
0.011181
0.010397
0.010807
0.010523
0.009862
0.010038
0.012578
0.012516
0.012681
0.012568
0.009501
0.009768
0.009779
0.010017
0.000523
0.001068
0.008588
0.008580
0.009072
0.008060
0.008843
0.009289
0.008875
0.009258
0.005554
0.005480
0.005268
0.005985
0.011826
0.011861
0.011714
0.011740
0.001533
0.013088
0.010815
0.010659
0.006318
0.006983
0.006913
0.010703
0.010867
0.010981
0.011065
0.010754
0.011153
0.011363
0.006208
0.006057
0.006031
0.006157
0.009038
0.008921
0.009038
0.001371
0.001190
0.001284
0.001278
0.001005
0.001089
0.001659
0.001753
0.001956
0.001440
0.012696
0.012712
0.008919
0.010541
0.010443
0.006098
0.009339
0.009856
0.009363
0.009660
0.008153
0.008016
0.008055
0.008445
0.008804
0.008540
0.007133
0.007146
0.006990
0.007889
0.009578
0.009813
0.009746
0.012651
0.012805
0.012768
0.012606
0.012558
0.012229
0.006147
0.005996
0.002215
0.002138
0.001927
0.012101
0.012152
0.011741
0.002172
0.002231
0.001652
0.002596
0.005036
0.005425
0.009285
0.009222
0.009399
0.004006
0.004291
0.004382
0.012637
0.012476
0.012538
0.005670
0.005616
0.006367
0.001717
0.001788
0.002009
0.010610
0.010538
0.010429
0.010403
0.001008
0.001428
0.000743
0.011383
0.011232
0.011365
0.011163
0.011503
0.011470
0.011586
0.003418
0.003298
0.003619
0.003129
0.003814
0.004113
0.008770
0.009064
0.008689
0.009087
0.004207
0.004039
0.003954
0.004303
0.010117
0.009997
0.010142
0.010490
0.010328
0.010704
0.010540
0.010642
0.012580
0.012517
0.012707
0.012397
0.009713
0.009675
0.009342
0.009745
0.011191
0.011480
0.011234
0.011517
0.011778
0.011595
0.011699
0.001786
0.001541
0.011714
0.004297
0.004623
0.004060
0.009638
0.009605
0.009137
0.010604
0.007762
0.008474
0.008067
0.008886
0.003038
0.003260
0.003032
0.007340
0.007506
0.007594
0.007723
0.005537
0.005104
0.004923
0.005707
0.001691
0.004173
0.003343
0.000340
0.000275
0.000608
0.012094
0.012152
0.012223
0.000629
0.000820
0.000769
0.004154
0.003898
0.012310
0.004753
0.004525
0.004340
0.012891
0.012677
0.004801
0.012579
0.012652
0.008784
0.008487
0.008642
0.008223
0.011714
0.011885
0.012084
0.011391
0.007960
0.008525
0.011363
0.011401
0.011534
0.009180
0.008645
0.009316
0.008078
0.005340
0.005317
0.005030
0.005624
0.009751
0.009697
0.009475
0.009981
0.007026
0.007303
0.007197
0.010482
0.010305
0.003812
0.004257
0.003746
0.006911
0.006615
0.006723
0.012437
0.012524
0.012131
0.009652
0.010127
0.009899
0.005678
0.005804
0.005772
0.009504
0.004144
0.005885
0.009846
0.009968
0.010085
0.010372
0.003037
0.003008
0.002777
0.009555
0.009577
0.009889
0.009241
0.003362
0.003043
0.003463
0.000469
0.000460
0.000937
0.000928
0.007834
0.007988
0.007997
0.006427
0.006473
0.006322
0.006563
0.011651
0.011585
0.011807
0.002724
0.003053
0.011424
0.011050
0.011168
0.011012
0.011999
0.012006
0.003078
0.001165
0.001515
0.000739
0.006445
0.012575
0.012593
0.012739
0.011346
0.011199
0.011306
0.012458
0.012604
0.012563
0.003225
0.003435
0.003101
0.003382
0.013223
0.013374
0.003273
0.003166
0.012420
0.012180
0.008166
0.008106
0.008372
0.008139
0.008006
0.008283
0.008346
0.004606
0.008626
0.013349
0.013198
0.013248
0.013319
0.013467
0.013279
0.013452
0.007729
0.007676
0.007466
0.003442
0.003414
0.004018
0.012682
0.012702
0.002850
0.006501
0.006952
0.006464
0.011926
0.012140
0.011882
0.012275
0.002521
0.002055
0.001865
0.007436
0.007571
0.007892
0.007993
0.013611
0.011189
0.010875
0.011091
0.012418
0.012504
0.012197
0.012465
0.012603
0.012444
0.007839
0.001342
0.000714
0.010801
0.010566
0.010687
0.010666
0.010534
0.010528
0.006272
0.006786
0.007221
0.006831
0.010716
0.007682
0.011051
0.010895
0.011101
0.009345
0.010008
0.010003
0.010968
0.006968
0.007267
0.006724
0.001249
0.001950
0.001607
0.007136
0.011024
0.011138
0.010379
0.000204
0.000439
0.000429
0.010346
0.010469
0.010125
0.000213
0.010367
0.012644
0.012541
0.012366
0.008097
0.007787
0.005056
0.005447
0.005034
0.004544
0.004581
0.011572
0.011175
0.010860
0.010484
0.010712
0.006247
0.005499
0.005524
0.009127
0.008946
0.008968
0.006031
0.004440
0.004117
0.004067
0.011565
0.011207
0.010986
0.011047
0.006291
0.006759
0.006894
0.011214
0.011446
0.011365
0.003184
0.002965
0.003112
0.003447
0.003838
0.003299
0.003634
0.002758
0.003019
0.009023
0.001395
0.002190
0.009127
0.008952
0.008952
0.006573
0.006421
0.006149
0.004194
0.004848
0.004292
0.013054
0.006136
0.013118
0.013266
0.008614
0.008296
0.008508
0.011008
0.010830
0.011101
0.000453
0.013082
0.013212
0.011318
0.009100
0.009034
0.008647
0.009457
0.012273
0.002489
0.002488
0.004274
0.004947
0.004228
0.002812
0.011776
0.011189
0.011591
0.010955
0.002486
0.002267
0.012323
0.012230
0.012210
0.003704
0.003594
0.003995
0.003264
0.008849
0.010239
0.009641
0.013143
0.012854
0.012686
0.012736
0.013641
0.012971
0.012857
0.006114
0.005616
0.005575
0.006121
0.013413
0.007431
0.007323
0.007357
0.007240
0.010273
0.010269
0.010373
0.010146
0.006019
0.008750
0.007967
0.008093
0.008170
0.013468
0.013318
0.013365
0.011067
0.011242
0.011197
0.011355
0.002457
0.002605
0.006543
0.006742
0.006617
0.004285
0.004281
0.004394
0.006001
0.000311
0.012354
0.012336
0.012487
0.006799
0.010318
0.010365
0.010230
0.010486
0.004845
0.011432
0.011613
0.011435
0.009036
0.008832
0.009068
0.004307
0.003000
0.002687
0.011622
0.012891
0.011965
0.012035
0.011881
0.013052
0.013172
0.011992
0.008951
0.008689
0.008648
0.000642
0.000700
0.008371
0.003952
0.004358
0.004296
0.004458
0.004519
0.004633
0.011883
0.011991
0.011962
0.009386
0.009555
0.003786
0.003345
0.003511
0.002960
0.012609
0.012728
0.012758
0.012589
0.011581
0.012203
0.008965
0.009333
0.009634
0.001617
0.001585
0.001303
0.001201
0.011599
0.011799
0.011611
0.011775
0.000259
0.000523
0.000233
0.009148
0.009396
0.009303
0.000272
0.009565
0.012087
0.012087
0.011785
0.013604
0.003185
0.002743
0.001926
0.001824
0.008941
0.008916
0.008689
0.009293
0.010730
0.010466
0.013318
0.013485
0.013232
0.003145
0.002397
0.003591
0.012614
0.012402
0.004441
0.003642
0.003584
0.004181
0.004852
0.003699
0.009779
0.011643
0.011430
0.004143
0.000720
0.010951
0.010712
0.011081
0.011849
0.011731
0.011643
0.011473
0.013291
0.011308
0.011456
0.011454
0.011317
0.012283
0.012160
0.012292
0.004762
0.004643
0.012777
0.012144
0.012939
0.012943
0.013088
0.011248
0.012743
0.012577
0.012698
0.012541
0.011587
0.011620
0.011682
0.004294
0.011550
0.011666
0.004351
0.004838
0.004229
0.004044
0.011519
0.004476
0.013432
0.013560
0.000939
0.000577
0.000630
0.004987
0.005381
0.004811
0.005271
0.007269
0.006972
0.001685
0.001072
0.001188
0.011317
0.007907
0.008206
0.007679
0.013245
0.013149
0.003208
0.003777
0.006470
0.005853
0.010534
0.004053
0.004593
0.000659
0.012207
0.012242
0.012775
0.013328
0.012817
0.012982
0.012638
0.002365
0.001678
0.001796
0.009009
0.004313
0.001217
0.001695
0.009876
0.000810
0.008464
0.008506
0.008147
0.008794
0.009295
0.004514
0.004126
0.004257
0.013361
0.001038
0.001280
0.012448
0.012586
0.012403
0.012084
0.011943
0.012068
0.004697
0.004762
0.012476
0.008689
0.008563
0.008664
0.013177
0.013029
0.005926
0.005517
0.005867
0.001410
0.001214
0.001604
0.008336
0.005841
0.005474
0.003949
0.001337
0.012851
0.012699
0.012756
0.007757
0.008159
0.007909
0.003515
0.003448
0.002946
0.001902
0.001653
0.003952
0.005847
0.012636
0.009549
0.009252
0.009752
0.009564
0.012706
0.012862
0.012465
0.005459
0.005183
0.004815
0.004762
0.004857
0.004568
0.004345
0.003920
0.004220
0.004351
0.004081
0.004250
0.003717
0.010883
0.010970
0.010775
0.011667
0.012005
0.011610
0.012151
0.000332
0.007030
0.007334
0.006736
0.006738
0.007385
0.013118
0.007123
0.013166
0.003525
0.003537
0.003786
0.002521
0.002311
0.002820
0.003895
0.003583
0.004292
0.001923
0.007622
0.008012
0.007797
0.004504
0.004478
0.004366
0.012479
0.008704
0.008351
0.008562
0.007445
0.007035
0.007467
0.009083
0.008138
0.004286
0.004615
0.005008
0.007494
0.008166
0.008379
0.008531
0.007249
0.004413
0.005050
0.004838
0.004309
0.004294
0.004786
0.011500
0.011206
0.010953
0.011180
0.011580
0.012618
0.012407
0.002954
0.002344
0.002558
0.002827
0.003106
0.010929
0.011177
0.012393
0.012237
0.009507
0.009292
0.009505
0.009394
0.009299
0.009020
0.007665
0.007933
0.007642
0.007282
0.000264
0.006140
0.005588
0.005472
0.012236
0.012399
0.006658
0.006501
0.006421
0.008462
0.008506
0.008124
0.008825
0.012324
0.001711
0.001989
0.003667
0.003667
0.003479
0.007221
0.007431
0.007436
0.007227
0.007557
0.007774
0.004912
0.004876
0.005015
0.005001
0.009017
0.004048
0.003877
0.004375
0.008722
0.004963
0.005141
0.004702
0.005890
0.005563
0.005109
0.008328
0.008383
0.008489
0.008194
0.009928
0.009677
0.009619
0.009432
0.005567
0.005850
0.002634
0.009171
0.009214
0.008815
0.004682
0.004996
0.004117
0.004254
0.004580
0.003880
0.004566
0.003011
0.003485
0.002791
0.011997
0.012122
0.011997
0.012128
0.001089
0.000913
0.001567
0.004980
0.009955
0.009747
0.009963
0.009723
0.004811
0.004919
0.009521
0.010130
0.010218
0.012631
0.012678
0.012519
0.012799
0.012789
0.013235
0.013079
0.013198
0.004411
0.005693
0.005891
0.005570
0.002784
0.002543
0.000683
0.011575
0.011945
0.011555
0.012491
0.012308
0.012480
0.011144
0.011446
0.011534
0.008878
0.009044
0.006758
0.006638
0.009180
0.002892
0.002666
0.001431
0.001664
0.001822
0.002088
0.005815
0.005486
0.005454
0.008698
0.003873
0.003892
0.004300
0.012580
0.010861
0.007505
0.007624
0.007837
0.012255
0.012382
0.012412
0.012542
0.001337
0.001461
0.001093
0.004146
0.006857
0.006678
0.006453
0.010614
0.011374
0.010716
0.011292
0.010446
0.010251
0.010131
0.013194
0.013174
0.011873
0.011870
0.007852
0.007987
0.001706
0.001144
0.004291
0.009729
0.009770
0.010052
0.009411
0.012332
0.002402
0.002728
0.002677
0.012741
0.012556
0.012685
0.007297
0.005019
0.011800
0.001003
0.001089
0.004655
0.004233
0.004670
0.004328
0.004055
0.004543
0.004976
0.005387
0.004837
0.008468
0.008320
0.008593
0.008478
0.009664
0.009671
0.009902
0.009665
0.010168
0.009975
0.010571
0.005006
0.011754
0.011912
0.011794
0.011649
0.011701
0.012279
0.011625
0.011780
0.011631
0.011853
0.011801
0.012380
0.012162
0.005664
0.004930
0.005524
0.006227
0.001059
0.001618
0.001369
0.004401
0.011353
0.011413
0.002400
0.002260
0.002623
0.002575
0.010197
0.010244
0.010527
0.007358
0.006597
0.001564
0.001914
0.002238
0.005309
0.005268
0.012657
0.012432
0.013152
0.013339
0.013261
0.002039
0.013084
0.012940
0.012966
0.002107
0.002978
0.001212
0.013211
0.013048
0.003830
0.003975
0.000580
0.000687
0.008618
0.008851
0.008998
0.008552
0.001386
0.012734
0.012566
0.000666
0.001357
0.000551
0.009846
0.009937
0.010060
0.012603
0.012443
0.012546
0.012346
0.012474
0.008706
0.008378
0.008065
0.011638
0.011751
0.000188
0.000210
0.000405
0.002778
0.002996
0.012686
0.008231
0.008263
0.008577
0.007805
0.009006
0.008835
0.009243
0.011586
0.011101
0.011657
0.011211
0.011999
0.011481
0.012092
0.004096
0.004596
0.001354
0.007923
0.007247
0.013174
0.013344
0.010506
0.010338
0.011893
0.012045
0.007915
0.008231
0.004010
0.003855
0.004216
0.003663
0.004131
0.003720
0.012590
0.004763
0.003485
0.000540
0.008992
0.008670
0.009278
0.010504
0.009728
0.010068
0.010608
0.011194
0.011466
0.009172
0.009117
0.009380
0.006664
0.006719
0.006251
0.006244
0.005792
0.004698
0.001982
0.002182
0.002615
0.000712
0.001476
0.001421
0.002075
0.011311
0.011423
0.008916
0.010097
0.012344
0.012211
0.002027
0.001382
0.009260
0.009562
0.008887
0.008933
0.008679
0.003189
0.007121
0.007135
0.007561
0.006693
0.004743
0.004267
0.004447
0.001796
0.011764
0.008895
0.008131
0.009164
0.009230
0.009492
0.001291
0.008520
0.011525
0.010167
0.009930
0.010123
0.010240
0.006988
0.006497
0.007203
0.005074
0.005217
0.005349
0.008220
0.002076
0.001816
0.002137
0.001890
0.002351
0.002026
0.002329
0.000669
0.002049
0.008791
0.008020
0.009094
0.009104
0.009407
0.002676
0.004951
0.005383
0.001763
0.002430
0.003041
0.006219
0.006716
0.006371
0.006397
0.006026
0.006922
0.007056
0.007291
0.002454
0.002274
0.001910
0.001962
0.001409
0.006160
0.005669
0.005507
0.006268
0.004578
0.005524
0.004831
0.006647
0.005383
0.001409
0.009966
0.009817
0.012532
0.012353
0.012406
0.010541
0.010780
0.010752
0.010989
0.005518
0.005804
0.005904
0.006235
0.012988
0.012883
0.006263
0.001356
0.002000
0.006543
0.010218
0.010291
0.010399
0.003401
0.003139
0.011448
0.010104
0.006582
0.003912
0.003925
0.003625
0.003803
0.003532
0.003078
0.003634
0.003666
0.013480
0.011526
0.011647
0.012793
0.013512
0.003564
0.003900
0.002540
0.002671
0.003113
0.004661
0.004568
0.004548
0.008498
0.008759
0.008067
0.009066
0.009097
0.009394
0.012395
0.012329
0.011317
0.012902
0.013131
0.013323
0.012771
0.012828
0.011212
0.011270
0.007131
0.007004
0.007703
0.007217
0.006678
0.007386
0.006139
0.007051
0.006639
0.007356
0.003146
0.002735
0.003048
0.009467
0.009617
0.009868
0.002732
0.005539
0.005601
0.000490
0.000236
0.000420
0.011790
0.011928
0.008684
0.008919
0.008650
0.009039
0.008712
0.008479
0.004167
0.003376
0.004514
0.004640
0.005465
0.005017
0.006436
0.006682
0.006648
0.006476
0.013507
0.013564
0.013418
0.006567
0.006164
0.006237
0.005010
0.004932
0.007045
0.012129
0.012092
0.011972
0.006534
0.006230
0.005906
0.011660
0.004950
0.004834
0.004848
0.004705
0.005908
0.006588
0.011947
0.012130
0.012069
0.012207
0.000543
0.000985
0.003195
0.003394
0.003478
0.003766
0.008894
0.001841
0.002220
0.000485
0.000358
0.000228
0.000716
0.010016
0.010834
0.010584
0.010826
0.004685
0.003498
0.009671
0.009502
0.009978
0.007240
0.007519
0.011413
0.004714
0.005181
0.004957
0.011409
0.011526
0.006806
0.006467
0.006575
0.006946
0.007119
0.008405
0.008020
0.008684
0.008765
0.012236
0.012169
0.012709
0.010654
0.006837
0.002428
0.012940
0.012816
0.005052
0.005197
0.005143
0.004957
0.004811
0.012019
0.012302
0.011165
0.011266
0.004959
0.005306
0.005321
0.006784
0.006680
0.004944
0.008118
0.008309
0.011060
0.011110
0.008798
0.008858
0.008968
0.008436
0.000659
0.000782
0.011183
0.011290
0.011177
0.002623
0.002422
0.005890
0.006105
0.011670
0.011824
0.004577
0.004750
0.005409
0.008660
0.003271
0.003613
0.004440
0.009744
0.009865
0.001957
0.001136
0.001438
0.005208
0.005228
0.005346
0.005108
0.006351
0.003536
0.002968
0.002136
0.009408
0.009713
0.009711
0.010096
0.011239
0.011108
0.004560
0.005023
0.008643
0.008459
0.008315
0.008203
0.009187
0.009856
0.010257
0.010459
0.010689
0.010714
0.006728
0.003403
0.011150
0.008983
0.009085
0.009279
0.008690