# vtk DataFile Version 2.0
Test
ASCII
DATASET POLYDATA
POINTS 1437 float
0.000000 0.000000 0.000000
30.000000 0.000000 0.000000
30.000000 100.000000 0.000000
0.000000 100.000000 0.000000
16.400000 50.000000 0.000000
2.142857 0.000000 0.000000
4.285714 0.000000 0.000000
6.428571 0.000000 0.000000
8.571429 0.000000 0.000000
10.714286 0.000000 0.000000
12.857143 0.000000 0.000000
15.000000 0.000000 0.000000
17.142857 0.000000 0.000000
19.285714 0.000000 0.000000
21.428571 0.000000 0.000000
23.571429 0.000000 0.000000
25.714286 0.000000 0.000000
27.857143 0.000000 0.000000
30.000000 2.040816 0.000000
30.000000 4.081633 0.000000
30.000000 6.122449 0.000000
30.000000 8.163265 0.000000
30.000000 10.204082 0.000000
30.000000 12.244898 0.000000
30.000000 14.285714 0.000000
30.000000 16.326531 0.000000
30.000000 18.367347 0.000000
30.000000 20.408163 0.000000
30.000000 22.448980 0.000000
30.000000 24.489796 0.000000
30.000000 26.530612 0.000000
30.000000 28.571429 0.000000
30.000000 30.612245 0.000000
30.000000 32.653061 0.000000
30.000000 34.693878 0.000000
30.000000 36.734694 0.000000
30.000000 38.775510 0.000000
30.000000 40.816327 0.000000
30.000000 42.857143 0.000000
30.000000 44.897959 0.000000
30.000000 46.938776 0.000000
30.000000 48.979592 0.000000
30.000000 51.020408 0.000000
30.000000 53.061224 0.000000
30.000000 55.102041 0.000000
30.000000 57.142857 0.000000
30.000000 59.183673 0.000000
30.000000 61.224490 0.000000
30.000000 63.265306 0.000000
30.000000 65.306122 0.000000
30.000000 67.346939 0.000000
30.000000 69.387755 0.000000
30.000000 71.428571 0.000000
30.000000 73.469388 0.000000
30.000000 75.510204 0.000000
30.000000 77.551020 0.000000
30.000000 79.591837 0.000000
30.000000 81.632653 0.000000
30.000000 83.673469 0.000000
30.000000 85.714286 0.000000
30.000000 87.755102 0.000000
30.000000 89.795918 0.000000
30.000000 91.836735 0.000000
30.000000 93.877551 0.000000
30.000000 95.918367 0.000000
30.000000 97.959184 0.000000
27.857143 100.000000 0.000000
25.714286 100.000000 0.000000
23.571429 100.000000 0.000000
21.428571 100.000000 0.000000
19.285714 100.000000 0.000000
17.142857 100.000000 0.000000
15.000000 100.000000 0.000000
12.857143 100.000000 0.000000
10.714286 100.000000 0.000000
8.571429 100.000000 0.000000
6.428571 100.000000 0.000000
4.285714 100.000000 0.000000
2.142857 100.000000 0.000000
0.000000 97.959184 0.000000
0.000000 95.918367 0.000000
0.000000 93.877551 0.000000
0.000000 91.836735 0.000000
0.000000 89.795918 0.000000
0.000000 87.755102 0.000000
0.000000 85.714286 0.000000
0.000000 83.673469 0.000000
0.000000 81.632653 0.000000
0.000000 79.591837 0.000000
0.000000 77.551020 0.000000
0.000000 75.510204 0.000000
0.000000 73.469388 0.000000
0.000000 71.428571 0.000000
0.000000 69.387755 0.000000
0.000000 67.346939 0.000000
0.000000 65.306122 0.000000
0.000000 63.265306 0.000000
0.000000 61.224490 0.000000
0.000000 59.183673 0.000000
0.000000 57.142857 0.000000
0.000000 55.102041 0.000000
0.000000 53.061224 0.000000
0.000000 51.020408 0.000000
0.000000 48.979592 0.000000
0.000000 46.938776 0.000000
0.000000 44.897959 0.000000
0.000000 42.857143 0.000000
0.000000 40.816327 0.000000
0.000000 38.775510 0.000000
0.000000 36.734694 0.000000
0.000000 34.693878 0.000000
0.000000 32.653061 0.000000
0.000000 30.612245 0.000000
0.000000 28.571429 0.000000
0.000000 26.530612 0.000000
0.000000 24.489796 0.000000
0.000000 22.448980 0.000000
0.000000 20.408163 0.000000
0.000000 18.367347 0.000000
0.000000 16.326531 0.000000
0.000000 14.285714 0.000000
0.000000 12.244898 0.000000
0.000000 10.204082 0.000000
0.000000 8.163265 0.000000
0.000000 6.122449 0.000000
0.000000 4.081633 0.000000
0.000000 2.040816 0.000000
16.388506 50.179028 0.000000
16.354213 50.355116 0.000000
16.297683 50.525374 0.000000
16.219846 50.687005 0.000000
16.121979 50.837355 0.000000
16.005689 50.973956 0.000000
15.872886 51.094564 0.000000
15.725750 51.197200 0.000000
15.566697 51.280178 0.000000
15.398339 51.342135 0.000000
15.223440 51.382054 0.000000
15.044872 51.399281 0.000000
14.865568 51.393531 0.000000
14.688471 51.364899 0.000000
14.516489 51.313856 0.000000
14.352446 51.241239 0.000000
14.199037 51.148241 0.000000
14.058779 51.036389 0.000000
13.933976 50.907520 0.000000
13.826677 50.763749 0.000000
13.738644 50.607437 0.000000
13.671322 50.441152 0.000000
13.625817 50.267622 0.000000
13.602876 50.089698 0.000000
13.602876 49.910302 0.000000
13.625817 49.732378 0.000000
13.671322 49.558848 0.000000
13.738644 49.392563 0.000000
13.826677 49.236251 0.000000
13.933976 49.092480 0.000000
14.058779 48.963611 0.000000
14.199037 48.851759 0.000000
14.352446 48.758761 0.000000
14.516489 48.686144 0.000000
14.688471 48.635101 0.000000
14.865568 48.606469 0.000000
15.044872 48.600719 0.000000
15.223440 48.617946 0.000000
15.398339 48.657865 0.000000
15.566697 48.719822 0.000000
15.725750 48.802800 0.000000
15.872886 48.905436 0.000000
16.005689 49.026044 0.000000
16.121979 49.162645 0.000000
16.219846 49.312995 0.000000
16.297683 49.474626 0.000000
16.354213 49.644884 0.000000
16.388506 49.820972 0.000000
16.142290 51.090246 0.000000
16.381031 49.246029 0.000000
16.476220 50.570036 0.000000
16.567534 49.809478 0.000000
13.432060 49.919357 0.000000
27.959184 67.346939 0.000000
15.062546 51.587060 0.000000
27.959184 79.591837 0.000000
2.040816 20.408163 0.000000
2.040816 30.612245 0.000000
2.040816 81.632653 0.000000
2.040816 69.387755 0.000000
27.959184 16.326531 0.000000
27.959184 24.489796 0.000000
27.959184 32.653061 0.000000
2.000226 63.022103 0.000000
2.040816 38.775510 0.000000
27.959184 38.775510 0.000000
2.063520 56.953992 0.000000
27.959184 59.183673 0.000000
15.000000 97.857143 0.000000
15.000000 2.142857 0.000000
27.959184 44.897959 0.000000
27.959184 51.020408 0.000000
2.058026 48.891267 0.000000
2.040816 12.244898 0.000000
27.959184 8.163265 0.000000
2.119286 91.907213 0.000000
27.959184 87.755102 0.000000
8.571429 2.142857 0.000000
21.428571 97.857143 0.000000
2.040816 6.122449 0.000000
27.959184 93.877551 0.000000
23.571429 2.142857 0.000000
6.428571 97.857143 0.000000
2.040816 44.897959 0.000000
15.808727 51.356253 0.000000
2.040816 77.551020 0.000000
27.959184 71.428571 0.000000
2.040816 26.530612 0.000000
4.285714 2.142857 0.000000
25.714286 97.857143 0.000000
2.021897 52.958989 0.000000
27.959184 53.061224 0.000000
27.914278 55.273576 0.000000
27.959184 61.224490 0.000000
27.879705 47.169173 0.000000
2.040816 36.734694 0.000000
1.985319 42.671502 0.000000
2.040816 4.081633 0.000000
27.959184 95.918367 0.000000
27.842785 41.012410 0.000000
27.904213 63.341606 0.000000
1.981595 60.897410 0.000000
2.040816 34.693878 0.000000
2.142857 97.857143 0.000000
27.857143 2.142857 0.000000
21.428571 2.142857 0.000000
8.571429 97.857143 0.000000
19.285714 2.142857 0.000000
10.714286 97.857143 0.000000
12.857143 2.142857 0.000000
17.142857 97.857143 0.000000
2.040816 73.469388 0.000000
2.040816 85.714286 0.000000
27.959184 28.571429 0.000000
27.957036 12.244796 0.000000
27.959184 20.408163 0.000000
27.959184 75.510204 0.000000
27.959184 81.632653 0.000000
2.040816 24.489796 0.000000
2.040816 18.367347 0.000000
2.101567 67.270721 0.000000
27.990742 34.718564 0.000000
2.040816 16.326531 0.000000
2.040816 10.204082 0.000000
2.040816 89.795918 0.000000
27.959184 83.673469 0.000000
27.959184 89.795918 0.000000
2.098379 2.081372 0.000000
27.901617 97.918624 0.000000
28.130079 4.091715 0.000000
1.869924 95.908287 0.000000
16.576970 50.167357 0.000000
25.954712 32.689406 0.000000
4.048051 69.354174 0.000000
4.081633 24.489796 0.000000
25.916213 79.588913 0.000000
4.086221 18.371935 0.000000
3.897904 34.877606 0.000000
3.923124 61.572806 0.000000
26.128612 39.133691 0.000000
26.214823 61.491956 0.000000
3.871989 43.375621 0.000000
26.265426 45.355943 0.000000
26.372982 51.593494 0.000000
15.011971 95.726257 0.000000
14.987483 4.273197 0.000000
4.095212 12.258477 0.000000
25.904714 87.741449 0.000000
8.590547 95.733404 0.000000
4.124327 91.817489 0.000000
23.644909 4.177846 0.000000
1.898679 46.664421 0.000000
1.887660 50.867252 0.000000
28.104743 49.216969 0.000000
28.091622 57.507646 0.000000
1.793213 54.763850 0.000000
1.898425 40.673936 0.000000
28.092220 43.114891 0.000000
1.898792 59.041649 0.000000
26.349643 53.492500 0.000000
3.788008 38.504633 0.000000
26.348185 4.174096 0.000000
28.073402 36.848913 0.000000
3.770644 95.809804 0.000000
1.947709 64.759841 0.000000
27.961478 65.481833 0.000000
2.032166 32.492602 0.000000
21.409200 4.266343 0.000000
6.436167 2.135262 0.000000
23.563887 97.864684 0.000000
17.151762 2.133952 0.000000
12.848401 97.865884 0.000000
10.720797 2.136346 0.000000
19.279431 97.863426 0.000000
25.741048 2.116095 0.000000
4.208553 97.884202 0.000000
2.040816 71.428571 0.000000
27.959184 73.469388 0.000000
2.040044 28.570656 0.000000
2.040816 79.591837 0.000000
2.040816 75.510204 0.000000
27.959184 30.612245 0.000000
27.959184 69.387755 0.000000
27.959184 77.551020 0.000000
2.040816 22.448980 0.000000
27.959184 22.448980 0.000000
27.959252 26.530681 0.000000
27.959184 18.367347 0.000000
2.040816 83.673469 0.000000
27.959184 14.285714 0.000000
25.913747 81.628033 0.000000
2.043283 87.757569 0.000000
2.046930 14.291828 0.000000
27.956122 10.201020 0.000000
27.953028 85.708130 0.000000
2.051111 8.173560 0.000000
27.948877 91.826428 0.000000
27.877535 6.025956 0.000000
2.132881 93.976795 0.000000
4.000357 6.267740 0.000000
4.120886 4.222927 0.000000
25.999609 93.732219 0.000000
25.879089 95.777048 0.000000
15.649674 48.560769 0.000000
26.010158 67.277614 0.000000
25.918367 24.489796 0.000000
4.081633 79.591837 0.000000
25.916050 16.328010 0.000000
23.873553 79.584761 0.000000
3.481175 55.433151 0.000000
24.733850 51.947925 0.000000
3.652422 50.744354 0.000000
25.910700 12.249504 0.000000
23.509255 6.363423 0.000000
26.366938 49.758281 0.000000
26.399277 43.548901 0.000000
3.661711 59.758281 0.000000
25.957156 34.691433 0.000000
10.699495 4.264413 0.000000
19.300303 95.735157 0.000000
17.109994 4.256463 0.000000
[...]
POINT_DATA 1437
SCALARS UX float 1
LOOKUP_TABLE default
-247120734659767681524814586317307576903893310096329027216832444909669230243885158166215786496.000000
118091706286657564320607627733963215361383984004780287729642825707651203829676704095080022016.000000
-107586813527201161645682145115313323233315176328754624208409741706642527663696928785586927125397504.000000
-55410788953800090148297962050306154089127898880630089568127096111597636653627768130494267392.000000
-4335837364533355057372823543162947604228466818986414340799631360782289898177435357218229885594844650274816.000000
-184336418863056560152491949366881172388285534268910518053422217624615519715812580211304693760.000000
498844885644274549670299823825315193269040198965579749075736177889654232288761787941386190848.000000
547076887727273235032530742723135595673951539282832532549371679086566757634684102951353450496.000000
-1860928454173038926898853756639145835640867558421489908953269796240570560344194737927914258432.000000
1448193705259482384896538801139868083084772075876914023399251916293271973097197546163765510144.000000
3793458016059376492652813749818937105102342943773734359137031714886273953134229192702724931584.000000
-5411676593660918447810402404449914955404229457707366589341499721388224609606253662531160637440.000000
1777773628195108662473688528262845575504596400595379797819552483723801275603319426303509135360.000000
-524319849019694336926556941240983515417034172784643120781723362070994607803812363927013031936.000000
119220312689250080556078267131450575704846032875812885200081771166743999657637080067536322560.000000
142913315349083220327342750150653179121161308147180318418902795436949639208078744478422138880.000000
-313790739388485123327788981130761669763897526633508759717455795113991430886339523209179693056.000000
86662935343148116860328549166221574820352865286296646249142994242916652259731962254128578560.000000
2875343813223944453362242493500139646253783617611441344900824571653004261768782297645736535419858882396160.000000
6614818611489224896117872704779540855707783394189674382146189353160418305628349389403832642620383838601216.000000
11820412714281598887098700138035381702688754441196322369287571603842205848635187338641176399562326667165696.000000
28980020528188044669770381098892414678560944185587209964054861279251628432984308532998171356524881316413440.000000
30552382141912049453314637047734516106550546762283729810529571093545574524159991367487582732185001986621440.000000
27258390632707954219809457706827405455689295090258654769159511769925238972172554251144734770894071752818688.000000
25841970391589111703765285217482829929055359356581627091944151447693724351706966027827170225280168958623744.000000
25646497953579968468842926528056404901148159610559394225304746976997297901464110202303828984611809571897344.000000
-15283250227977922720101227927133383480013273304536385681022057175028781953300701147159694620378868289110016.000000
2171075570721472177922499630703362855836263531068269622545608051611422310831527155826031320179068452732928.000000
11516461677796483665199497731182890440679398140050732025718298022299650959635718037573790341437841647599616.000000
10913422918835240431075961443932427212741704961165166185980333436164231890552769247270648001529447503101952.000000
10836676459316285124091371929741131218273779734794574555850065154532928108668971442724304311876802500886528.000000
5934235259217985899768081573964420507553752081113057090344124225294453312956903155632205760591186572083200.000000
1775782803300189825765863121171189767430948417333832489715123352214359453512785208558997012465788758523904.000000
-1562263394657770374001392616054657740185892911874279663391299509680856727732581006328559421341303723524096.000000
-9086066108220592181452623414632528824484083942951188356823294529087278950382309104366819353010054730088448.000000
-4478858670494436664026843806560522500364173668932230246211120001846499570734472650371088851166855350452224.000000
-6860381170268342479246902705284449683682918972646254249882910982467140232882903110241424384802518900670464.000000
-7544243388685976753993409250228783797283998786011378992780373824613131535632764988574404314774858606051328.000000
-9619494474597871822665358800474600620605159029087551259684093918206524511775081008690723648737956698521600.000000
-9006348237900222171294468787828511883152950714943969671756783602740009072376064886037556335678855818772480.000000
-11881814649066794306799879608026723898093112632696310530246027603967869813252303893873614455329953425653760.000000
307107713894294637128716624500091683880887414345507633508310564628702893853101601910297808645746667290624.000000
12699824312904440714778096090938282471370427219692151616758752064360320659654447588873657241023767105241088.000000
27905894668568722019488654176901586262866463698204995749457231964783450854335039867660009056817228166463488.000000
-4934364931920983202771942380714484129105880162207079595299191826583666486741353682927807511081558009184256.000000
-5628758585356142553740048252724195611636032268382354480859735678337747911272543000129035572088960234553344.000000
-16631479286229832863699013359520298848061124611360700200962664833401976675747000905676183170008268419366912.000000
13299247210986179699698287590482519648817888127954426436471757183717368574928845028749810345144983331274752.000000
7772508336108877259720731396232845876387300006332564164403618222870646411985387920656809983509225361375232.000000
6640691090278635575238031865923188612522317160425588029682198044050239946749749515050212920836680325267456.000000
3628042641344588938256850954797560648565913141218264460931859603107265410086699936742376555662077916610560.000000
73770742278472412789377167465648898483980294686291929434640792185557668141987112923957305917976711528448.000000
-2358424976197194233111190385951525355574713516999612393208287351117304152738386255348914477850313441148928.000000
-3755408732001473026090660877034908298942308427440554384601724396738227107607515634832610948467336375435264.000000
-6512012774935734673937961114915271791550028826289719622238469016263013587868803253124939648001362632900608.000000
-4661830758639019759855918129281166229894659795497241480403341150683810924844360885597036328631542048882688.000000
-3074228997363534694320162797391584294246913310485562296945174189026231361896783188168564825355152036724736.000000
-2473042005544028122925201129694174215592836759220850102995755063690276207664000524958933677245794684502016.000000
-3292645003562191222717209568766400808262846092617916419286853141335929637478331050988005798280452720558080.000000
-5891610230079784434092977253123568304670065205705024434903467171357193661927826925098144297851582077206528.000000
-4233682554178565692931395804001973504326222376374053687179985060746189741529055691721848260359190254452736.000000
-3682312505891809861925164423675918864324081891779952729499691637771738725900476813747858581482349430571008.000000
-3768298259821554456402376300097403212189229288436715189665042592344479851728252977350753608305763481026560.000000
-1815107610357199476883548701523791787358957214761295795703043554397665783050874753984820649002883004497920.000000
-1485029279288426850400404471367775909847696977947990481147329782725089020567512150158469683438865050763264.000000
-662803571089919812190789023303890682265038407320879021533847444832338570590707943474779102256948572061696.000000
68207150595599415953887450129914568930806940858228388511394510408978038712068926082010298831601664.000000
-18275986811293573582647782298757845041381448627459302894812067923908983665408333060964300762382336.000000
4896828775944620606663784871743458196589683134702469457477479169777438197649170571079713925627904.000000
-1311232401072881323248585558093884980547505630723065731533049888130816046690427328899090009292800.000000
350880494636228395281558230896553988445539578066738452740719427108099369413021250478126124761088.000000
-93999044256724439473205551710723322745637076635583072819212135521843832066922702203471597142016.000000
25163094910197353938472915045937364941825683233483265216968174651981008445692942387691248418816.000000
-6704462261488600551439419618338309559596901928730497361140338521973098482260576223632178544640.000000
1776462271036602606733045658801810555970530892786293477446660036633239923727114434808006049792.000000
-736989734736010751771306834304018599631854655478495835742735952420959771900372772560884989952.000000
171236620905743382805725277833938944920056847276161697953613949467315835868316982148778164224.000000
-37588474779716199689271276463981945185295735301814506387402381255346867168309144862148526080.000000
106525409028626598250798435979506342153246435204004866182117626654639788281086494439135772672.000000
-587721607066036284307803727343317061366030145929269107710236103418085216677116661595695556924608438337536.000000
-2057481780138973793513192036784215412668920948756398835076877666329503307909039322617813758496656496525312.000000
281921540424721542050716959046771289791549494720186722784338643731243854078264238737158486417700716281856.000000
-248414096579361501784938312527547696419200571731432919627569945378905152720627159596052342687814769442816.000000
-2438867940698356973441754304610625319665901248109116775919772445987326722090096659569768559784747465703424.000000
-5152039361609950744633893001764784954435763972691378177991448995017812864617458716231227746329788686532608.000000
-5030052485239128526488328517267237447169931650803184221988449963742475599054616500759655638148317301440512.000000
-7877990174208220771797960951025201542587566746707046406696478266591854449969018125973334612176352932003840.000000
-7768036418047052663506870913594161569032266336542052328916530318081509849673595656889590791174525804347392.000000
-9337813426460370926160097896181272555766964387467199064222883700770708690555634034591695257394593658830848.000000
-8596668629250951424064312350498370676177322232557887082495519505436354379724621711261746255339148548243456.000000
-6427032330720524755284831943444118989527368434304463549851260217970503563799524442899236275057154349596672.000000
-6253000621619339178423964835676050834970709642788128383909292674821421797132852130687656457046675960102912.000000
2619477932027529519523418324742135153837453166633231551615414598450705407868239482474052463791214822424576.000000
-3115336867123391384201150416537580916514802303560810911202850626422062206587817994606225106518060535119872.000000
-4538990212892403565060275453593836999823742624603081260709193036558717892239945211643289752082617892601856.000000
4122157588700681161261729482690574922291504739397393834518769170868013610890100996291791822780640920600576.000000
-942522509882397099953675103365257963544145142010405944580366472029237773901339521083746121584107061248000.000000
-1112012186107970409121061601794999446948052593109709225577654499732194923276024340159920999097004330057728.000000
316354114913554330709636167843134349945095023877750472326995535207719352495897062190817883756333279215616.000000
116217147002587232144355817010398880342637099681834090267081507998194883396966211935195901672992700104704.000000
-762058584689266030163763119199357812568853171570342725194610253280541786207316273310741572711263382798336.000000
12020296884478989735714111903331110301469312075163048543073426347629275173455308608271545345938942819565568.000000
25500869063173690084320830898434666470144077829254736471582391749760083017393349861731507907138306432827392.000000
-13164990526343939297772796912993610635846346257952936636929987978418112093813654282950587040951154849611776.000000
-7277021965692402504166251828332949011245592024196696907948701949866719689725703397404535856670486753705984.000000
-5479253779830211617002523565447944219786343070806873121959089891398281460268145253537765703534585090932736.000000
-5980976764787173267574772746140831229468280618635569949584672360803261448202592352569540558975780310220800.000000
-16239806856381539332070639276490838390519967965683727197764427194636052947932845401645453638045759709380608.000000
-8575307351625326673315591189784253286891177588602806802345547705963588703269765866080592505600527178924032.000000
-8272889142033150560843728385862527585059795025698418614464326570085984757325341642985894533914341626871808.000000
-3123351649825770383695756511631084124651777987702728038349310177769260650291792979209146691058900402176000.000000
5450446024884801718106317597077841770355905573889732021265244986223068517846193837535706768972165802885120.000000
-2304617447122354125165120281258053129512197145368300824980704987165631977643248563236389694508198321455104.000000
-9240717603740665996813908699222117986821817642580226049494878377139291438208665749808094828490718154063872.000000
-16846902025610062392562928654545872161602944350321196579933455928254023259799528418396608339888674873278464.000000
8063909607310219543383586473587432664568070077843026156954442881330060180973005840905696864153513783984128.000000
-210769072793675985848834720115123061507428971334844375536907197532384666594773816976404725692195015753728.000000
16311449328977200155077364327864152901241277547833428431795301972212428564844802763576001395316171992989696.000000
9694934696181477268006606116070548600196780152036293335952174665836156552277457290720076434822172868870144.000000
-3398834367290143712772691434077563688741269162584109980293731627734299381996423199540830495306723302047744.000000
9933193186553052240844461590215804499246737371635208325948359335310283929030113166121293558361093910298624.000000
-14262076183105691025586256353350961696559944291876607486123759589335011830199989298558456638592046149402624.000000
-18358622551936046829376424620261153249179461622971028108962510027396445037914915147835635294508843031068672.000000
-9335621471954369807083750153180014432561319051240681545146522285188198592840249817621622207729373684957184.000000
-2440931777407350156363456720775934641672277430181665737673267304519914575569037315043657381976670816174080.000000
887450345870670078488773437756092401062187319953028920002575823106916401092476539151957573131459343941632.000000
59974673999247972056519254906628604612092804718722988536522130167665623763443289040191774613433707659264.000000
-3588972586127605957646400064848242394367305603706340601834640548870975351192301582405165590693917900144640.000000
-5927936606354674664402580230544804362583275232830072356607363023104171790641074185556130042288981676130304.000000
-10170157803175306619023711664098650575405748491973622896556155652605916059970883925280830734427331607134208.000000
-2939309354646314939811192760741964264920299476576961064017403381347647824903289744907100982607159035428864.000000
-4043777596295677787582922257027618190284686856342436517728602727752665640138380116943113331061749496938496.000000
-13332039185009605012217734495938933630162713982795039697754451648605359913552260064117242886709695519653888.000000
-8491728201060633510034842498162411539646339660465746409551412253062781932466801562769152593021686702407680.000000
-6226183156055390962087676128372967937029503427768457043258149069498651456924652919207643763669755486011392.000000
-12267943135422582054407003951561933329679618360022135495100032591011889546669669598739931982842066590760960.000000
-12788220418931444650024110341668053146084777714874505339905245732782051882828221558051513818172707051667456.000000
-6774407720556334720364379322348040681836465841502927877534731840437427435748166702492144896591169356562432.000000
-7747929921555141042894727827755084390196463141933610751802596062512662684902254487082312598140620722143232.000000
2760408520110028213971159418247073623378014912906929342333753026909349862227297673141872760311199890931712.000000
2424568267816126545652908680715966768581488728924961107547882618946936614721585420991013986706833539072000.000000
20712241368247788244248458306381274210190768157545798835373445403041477957345955203725582253716893331357696.000000
23819137459534837010168497705097009157172349600009008179612061411914938007807868885184824967564937790488576.000000
21345640804406394804643146698243536027040908036690870902797994185464815163360605434310781772363812143366144.000000
10162753812804718790855764855878059864793654423052331690930131924298416445699232849193146822780054845521920.000000
-3398940495590194504897310304788154741373873712710348949540313783080320478832835480760397994510216817803264.000000
1050513750825493380983532607379055951195126232421375385108367881947451763130159935454612287825126226919424.000000
1446942928508944251557192554959399966046964362571516464434408242159940768149882336554702358950780801646592.000000
372219068000980553725828748565811695633415696083992678612619531134710241214145658525985799242787531522048.000000
774596291719258189154412079306980983508107091317307841608219608692306791213721006757146717874881816428544.000000
364763770959091135837262807678362004956217188035108254946023151524932937320989583733770112641616830267392.000000
2300941137979538596157710140102793844837238972334116465509954799026537486734189491448806793384701919756288.000000
-687608794633407683285055766051507975681088422645767134296260949569115339799443563288919243620360522825728.000000
-1398055281792392614369303477456814538703810275648830337300570318138029617874112444562050592648953656770560.000000
-1925266624211558885889568142837755128500821627043019901250819343561927048801469836934189467130376103133184.000000
-1807385601488310798489544892725819992715765600646965963324034527014119982774565857321335452934839864393728.000000
-1269327509288725672268255794300816657575611995112851332559944168403764347142979638923502365975108739137536.000000
-2933361641759532143968984273712611630305841067473994130470468188269581488954014167484697373053957909250048.000000
-3402461618485532202081966474870429002471975253510643293069480167935451395242737318374131226765381372739584.000000
1109838957439683489039065969937375627089709101984750923000887686827715524298849117089998041956163499589632.000000
-47100674461632577318234473323105362440416482658607797706697209378330982367447304142676347247882824948121600.000000
-30684156848029226053243667870452470951922300394922497445460542328291707681451935498313118420100940432408576.000000
-43809660513280339587725714025946963690622976335716748558071902399704213163303562506739387230726893009371136.000000
-26756283331951412334726091771249792360305018979608400543060974205183572378650484784025324938911046189449216.000000
-19043959151253183093469724143601957326063495406767719527734179743666976389237366408340699329533318879248384.000000
1496039293525923554165349947395955151884149983188083880037909796680682120251737522186958979946407895498752.000000
3551281769022099199294262169205550758862451205089406718970439019793383999151381154619585327742199676272640.000000
5261802820699734137802458394269935522911421595505967641544594604871003308383067095023145132705736185348096.000000
1150612678207953676304439909282972090709094709521895298177631177950913019645990958613931446187372954255360.000000
-1361111944038008519058432404647730175305294456733726887575874652100077075526963865021694970396689129537536.000000
-2397323574083476044722829529081279778513220568062291464658485786388983135470255949658101731276595063160832.000000
-1958679985975669126755521872626064903791610220949959310925651542715233892985932710548017528349971458293760.000000
-1047365635904500229227391956984954447009807252044671274513379965830601618421679323290408099371912284602368.000000
-2083712153744448989182547163618441537384548338932082138504543864082515944170225824216996005338198879240192.000000
-3209326151449376282585986128840762153130446144909359978970917506050410662924262533847927220393500775284736.000000
-9548115200756549982027569263741465416004758253289116751398053392381476494408007645320225813963512859328512.000000