# vtk DataFile Version 2.0
Test
ASCII
DATASET POLYDATA
POINTS 1437 float
0.000000 0.000000 0.000000
30.000000 0.000000 0.000000
30.000000 100.000000 0.000000
0.000000 100.000000 0.000000
16.400000 50.000000 0.000000
2.142857 0.000000 0.000000
4.285714 0.000000 0.000000
6.428571 0.000000 0.000000
8.571429 0.000000 0.000000
10.714286 0.000000 0.000000
12.857143 0.000000 0.000000
15.000000 0.000000 0.000000
17.142857 0.000000 0.000000
19.285714 0.000000 0.000000
21.428571 0.000000 0.000000
23.571429 0.000000 0.000000
25.714286 0.000000 0.000000
27.857143 0.000000 0.000000
30.000000 2.040816 0.000000
30.000000 4.081633 0.000000
30.000000 6.122449 0.000000
30.000000 8.163265 0.000000
30.000000 10.204082 0.000000
30.000000 12.244898 0.000000
30.000000 14.285714 0.000000
30.000000 16.326531 0.000000
30.000000 18.367347 0.000000
30.000000 20.408163 0.000000
30.000000 22.448980 0.000000
30.000000 24.489796 0.000000
30.000000 26.530612 0.000000
30.000000 28.571429 0.000000
30.000000 30.612245 0.000000
30.000000 32.653061 0.000000
30.000000 34.693878 0.000000
30.000000 36.734694 0.000000
30.000000 38.775510 0.000000
30.000000 40.816327 0.000000
30.000000 42.857143 0.000000
30.000000 44.897959 0.000000
30.000000 46.938776 0.000000
30.000000 48.979592 0.000000
30.000000 51.020408 0.000000
30.000000 53.061224 0.000000
30.000000 55.102041 0.000000
30.000000 57.142857 0.000000
30.000000 59.183673 0.000000
30.000000 61.224490 0.000000
30.000000 63.265306 0.000000
30.000000 65.306122 0.000000
30.000000 67.346939 0.000000
30.000000 69.387755 0.000000
30.000000 71.428571 0.000000
30.000000 73.469388 0.000000
30.000000 75.510204 0.000000
30.000000 77.551020 0.000000
30.000000 79.591837 0.000000
30.000000 81.632653 0.000000
30.000000 83.673469 0.000000
30.000000 85.714286 0.000000
30.000000 87.755102 0.000000
30.000000 89.795918 0.000000
30.000000 91.836735 0.000000
30.000000 93.877551 0.000000
30.000000 95.918367 0.000000
30.000000 97.959184 0.000000
27.857143 100.000000 0.000000
25.714286 100.000000 0.000000
23.571429 100.000000 0.000000
21.428571 100.000000 0.000000
19.285714 100.000000 0.000000
17.142857 100.000000 0.000000
15.000000 100.000000 0.000000
12.857143 100.000000 0.000000
10.714286 100.000000 0.000000
8.571429 100.000000 0.000000
6.428571 100.000000 0.000000
4.285714 100.000000 0.000000
2.142857 100.000000 0.000000
0.000000 97.959184 0.000000
0.000000 95.918367 0.000000
0.000000 93.877551 0.000000
0.000000 91.836735 0.000000
0.000000 89.795918 0.000000
0.000000 87.755102 0.000000
0.000000 85.714286 0.000000
0.000000 83.673469 0.000000
0.000000 81.632653 0.000000
0.000000 79.591837 0.000000
0.000000 77.551020 0.000000
0.000000 75.510204 0.000000
0.000000 73.469388 0.000000
0.000000 71.428571 0.000000
0.000000 69.387755 0.000000
0.000000 67.346939 0.000000
0.000000 65.306122 0.000000
0.000000 63.265306 0.000000
0.000000 61.224490 0.000000
0.000000 59.183673 0.000000
0.000000 57.142857 0.000000
0.000000 55.102041 0.000000
0.000000 53.061224 0.000000
0.000000 51.020408 0.000000
0.000000 48.979592 0.000000
0.000000 46.938776 0.000000
0.000000 44.897959 0.000000
0.000000 42.857143 0.000000
0.000000 40.816327 0.000000
0.000000 38.775510 0.000000
0.000000 36.734694 0.000000
0.000000 34.693878 0.000000
0.000000 32.653061 0.000000
0.000000 30.612245 0.000000
0.000000 28.571429 0.000000
0.000000 26.530612 0.000000
0.000000 24.489796 0.000000
0.000000 22.448980 0.000000
0.000000 20.408163 0.000000
0.000000 18.367347 0.000000
0.000000 16.326531 0.000000
0.000000 14.285714 0.000000
0.000000 12.244898 0.000000
0.000000 10.204082 0.000000
0.000000 8.163265 0.000000
0.000000 6.122449 0.000000
0.000000 4.081633 0.000000
0.000000 2.040816 0.000000
16.388506 50.179028 0.000000
16.354213 50.355116 0.000000
16.297683 50.525374 0.000000
16.219846 50.687005 0.000000
16.121979 50.837355 0.000000
16.005689 50.973956 0.000000
15.872886 51.094564 0.000000
15.725750 51.197200 0.000000
15.566697 51.280178 0.000000
15.398339 51.342135 0.000000
15.223440 51.382054 0.000000
15.044872 51.399281 0.000000
14.865568 51.393531 0.000000
14.688471 51.364899 0.000000
14.516489 51.313856 0.000000
14.352446 51.241239 0.000000
14.199037 51.148241 0.000000
14.058779 51.036389 0.000000
13.933976 50.907520 0.000000
13.826677 50.763749 0.000000
13.738644 50.607437 0.000000
13.671322 50.441152 0.000000
13.625817 50.267622 0.000000
13.602876 50.089698 0.000000
13.602876 49.910302 0.000000
13.625817 49.732378 0.000000
13.671322 49.558848 0.000000
13.738644 49.392563 0.000000
13.826677 49.236251 0.000000
13.933976 49.092480 0.000000
14.058779 48.963611 0.000000
14.199037 48.851759 0.000000
14.352446 48.758761 0.000000
14.516489 48.686144 0.000000
14.688471 48.635101 0.000000
14.865568 48.606469 0.000000
15.044872 48.600719 0.000000
15.223440 48.617946 0.000000
15.398339 48.657865 0.000000
15.566697 48.719822 0.000000
15.725750 48.802800 0.000000
15.872886 48.905436 0.000000
16.005689 49.026044 0.000000
16.121979 49.162645 0.000000
16.219846 49.312995 0.000000
16.297683 49.474626 0.000000
16.354213 49.644884 0.000000
16.388506 49.820972 0.000000
16.142290 51.090246 0.000000
16.381031 49.246029 0.000000
16.476220 50.570036 0.000000
16.567534 49.809478 0.000000
13.432060 49.919357 0.000000
27.959184 67.346939 0.000000
15.062546 51.587060 0.000000
27.959184 79.591837 0.000000
2.040816 20.408163 0.000000
2.040816 30.612245 0.000000
2.040816 81.632653 0.000000
2.040816 69.387755 0.000000
27.959184 16.326531 0.000000
27.959184 24.489796 0.000000
27.959184 32.653061 0.000000
2.000226 63.022103 0.000000
2.040816 38.775510 0.000000
27.959184 38.775510 0.000000
2.063520 56.953992 0.000000
27.959184 59.183673 0.000000
15.000000 97.857143 0.000000
15.000000 2.142857 0.000000
27.959184 44.897959 0.000000
27.959184 51.020408 0.000000
2.058026 48.891267 0.000000
2.040816 12.244898 0.000000
27.959184 8.163265 0.000000
2.119286 91.907213 0.000000
27.959184 87.755102 0.000000
8.571429 2.142857 0.000000
21.428571 97.857143 0.000000
2.040816 6.122449 0.000000
27.959184 93.877551 0.000000
23.571429 2.142857 0.000000
6.428571 97.857143 0.000000
2.040816 44.897959 0.000000
15.808727 51.356253 0.000000
2.040816 77.551020 0.000000
27.959184 71.428571 0.000000
2.040816 26.530612 0.000000
4.285714 2.142857 0.000000
25.714286 97.857143 0.000000
2.021897 52.958989 0.000000
27.959184 53.061224 0.000000
27.914278 55.273576 0.000000
27.959184 61.224490 0.000000
27.879705 47.169173 0.000000
2.040816 36.734694 0.000000
1.985319 42.671502 0.000000
2.040816 4.081633 0.000000
27.959184 95.918367 0.000000
27.842785 41.012410 0.000000
27.904213 63.341606 0.000000
1.981595 60.897410 0.000000
2.040816 34.693878 0.000000
2.142857 97.857143 0.000000
27.857143 2.142857 0.000000
21.428571 2.142857 0.000000
8.571429 97.857143 0.000000
19.285714 2.142857 0.000000
10.714286 97.857143 0.000000
12.857143 2.142857 0.000000
17.142857 97.857143 0.000000
2.040816 73.469388 0.000000
2.040816 85.714286 0.000000
27.959184 28.571429 0.000000
27.957036 12.244796 0.000000
27.959184 20.408163 0.000000
27.959184 75.510204 0.000000
27.959184 81.632653 0.000000
2.040816 24.489796 0.000000
2.040816 18.367347 0.000000
2.101567 67.270721 0.000000
27.990742 34.718564 0.000000
2.040816 16.326531 0.000000
2.040816 10.204082 0.000000
2.040816 89.795918 0.000000
27.959184 83.673469 0.000000
27.959184 89.795918 0.000000
2.098379 2.081372 0.000000
27.901617 97.918624 0.000000
28.130079 4.091715 0.000000
1.869924 95.908287 0.000000
16.576970 50.167357 0.000000
25.954712 32.689406 0.000000
4.048051 69.354174 0.000000
4.081633 24.489796 0.000000
25.916213 79.588913 0.000000
4.086221 18.371935 0.000000
3.897904 34.877606 0.000000
3.923124 61.572806 0.000000
26.128612 39.133691 0.000000
26.214823 61.491956 0.000000
3.871989 43.375621 0.000000
26.265426 45.355943 0.000000
26.372982 51.593494 0.000000
15.011971 95.726257 0.000000
14.987483 4.273197 0.000000
4.095212 12.258477 0.000000
25.904714 87.741449 0.000000
8.590547 95.733404 0.000000
4.124327 91.817489 0.000000
23.644909 4.177846 0.000000
1.898679 46.664421 0.000000
1.887660 50.867252 0.000000
28.104743 49.216969 0.000000
28.091622 57.507646 0.000000
1.793213 54.763850 0.000000
1.898425 40.673936 0.000000
28.092220 43.114891 0.000000
1.898792 59.041649 0.000000
26.349643 53.492500 0.000000
3.788008 38.504633 0.000000
26.348185 4.174096 0.000000
28.073402 36.848913 0.000000
3.770644 95.809804 0.000000
1.947709 64.759841 0.000000
27.961478 65.481833 0.000000
2.032166 32.492602 0.000000
21.409200 4.266343 0.000000
6.436167 2.135262 0.000000
23.563887 97.864684 0.000000
17.151762 2.133952 0.000000
12.848401 97.865884 0.000000
10.720797 2.136346 0.000000
19.279431 97.863426 0.000000
25.741048 2.116095 0.000000
4.208553 97.884202 0.000000
2.040816 71.428571 0.000000
27.959184 73.469388 0.000000
2.040044 28.570656 0.000000
2.040816 79.591837 0.000000
2.040816 75.510204 0.000000
27.959184 30.612245 0.000000
27.959184 69.387755 0.000000
27.959184 77.551020 0.000000
2.040816 22.448980 0.000000
27.959184 22.448980 0.000000
27.959252 26.530681 0.000000
27.959184 18.367347 0.000000
2.040816 83.673469 0.000000
27.959184 14.285714 0.000000
25.913747 81.628033 0.000000
2.043283 87.757569 0.000000
2.046930 14.291828 0.000000
27.956122 10.201020 0.000000
27.953028 85.708130 0.000000
2.051111 8.173560 0.000000
27.948877 91.826428 0.000000
27.877535 6.025956 0.000000
2.132881 93.976795 0.000000
4.000357 6.267740 0.000000
4.120886 4.222927 0.000000
25.999609 93.732219 0.000000
25.879089 95.777048 0.000000
15.649674 48.560769 0.000000
26.010158 67.277614 0.000000
25.918367 24.489796 0.000000
4.081633 79.591837 0.000000
25.916050 16.328010 0.000000
23.873553 79.584761 0.000000
3.481175 55.433151 0.000000
24.733850 51.947925 0.000000
3.652422 50.744354 0.000000
25.910700 12.249504 0.000000
23.509255 6.363423 0.000000
26.366938 49.758281 0.000000
26.399277 43.548901 0.000000
3.661711 59.758281 0.000000
25.957156 34.691433 0.000000
10.699495 4.264413 0.000000
19.300303 95.735157 0.000000
17.109994 4.256463 0.000000
[...]
POINT_DATA 1437
SCALARS UX float 1
LOOKUP_TABLE default
0.000000
0.000000
0.000000
0.000000
18.113691
-0.000000
0.000000
0.000000
0.000000
0.000000
0.000000
0.000000
0.000000
0.000000
0.000000
0.000000
0.000000
-0.000000
0.631472
1.249395
1.768579
2.382402
3.000153
3.685582
4.399586
5.130845
5.890798
6.690246
7.492143
8.303567
9.116980
9.930871
10.735084
11.522501
12.286748
13.024977
13.714022
14.351665
14.903695
15.354195
15.690652
15.857972
15.850980
15.684336
15.366538
14.910027
14.350241
13.720065
13.032341
12.299420
11.531033
10.743451
9.935958
9.125176
8.307032
7.494024
6.686903
5.899258
5.134500
4.380544
3.693935
3.019241
2.376452
1.812913
1.255877
0.700063
-0.000000
0.000000
0.000000
0.000000
0.000000
0.000000
0.000000
0.000000
0.000000
0.000000
0.000000
0.000000
-0.000000
0.630615
1.252193
1.772785
2.375032
3.021449
3.675637
4.397712
5.130106
5.897356
6.686280
7.490297
8.299756
9.117347
9.931500
10.736880
11.530039
12.298080
13.024697
13.717060
14.341678
14.904638
15.361642
15.678549
15.855040
15.857969
15.687888
15.360636
14.909374
14.351868
13.716376
13.032704
12.295693
11.530075
10.741791
9.937589
9.122046
8.307011
7.494865
6.690701
5.901912
5.135510
4.378662
3.692591
3.018161
2.375606
1.812326
1.255572
0.699902
18.113031
18.109469
18.105823
18.101728
18.092579
18.083322
18.076398
18.066270
18.066246
18.058521
18.060603
18.056711
18.054087
18.059196
18.063849
18.068710
18.074944
18.081707
18.088868
18.095977
18.100070
18.104319
18.107569
18.108784
18.107828
18.107218
18.104259
18.100375
18.094926
18.085586
18.079103
18.071742
18.065928
18.058604
18.056152
18.056060
18.055747
18.056726
18.059360
18.063164
18.070118
18.077460
18.084459
18.092047
18.098243
18.104664
18.109515
18.114720
17.962781
18.010141
18.025894
18.047045
18.049232
11.596256
17.867823
6.639580
6.642930
10.787541
5.833592
10.786205
5.048313
8.294219
11.592720
13.225605
13.850369
13.852743
15.143980
14.509282
0.329146
0.335897
15.570550
16.095655
16.099679
3.559948
2.207764
2.186123
3.561391
0.344007
0.344651
1.613306
1.613909
0.379191
0.370859
15.572123
17.919366
7.460732
9.967775
9.132956
0.391333
0.391468
15.927299
15.913300
15.544631
13.852713
15.957699
13.144332
15.036904
1.050035
1.050296
14.578109
13.118628
13.958801
12.381014
0.518749
0.520279
0.349640
0.358871
0.339107
0.343706
0.337420
0.341326
9.128251
4.287359
9.961797
3.564505
6.643442
8.296992
5.832633
8.295956
5.835745
11.630532
12.384920
5.052941
2.878180
2.869342
5.051517
2.879276
0.475928
0.476068
1.041415
1.044018
18.046954
11.664272
10.840525
8.288510
6.604962
5.780970
12.517557
13.833329
14.074918
13.851095
15.365770
15.814411
16.227249
0.778344
0.781996
3.467585
3.468915
0.804377
2.105381
0.821329
15.863594
16.085632
16.094312
14.982435
15.615413
14.454106
15.148112
14.538495
16.006234
13.850588
0.939679
13.172849
0.940075
12.588041
12.319699
11.535692
0.801332
0.369402
0.369607
0.333913
0.333494
0.338763
0.340333
0.409984
0.408946
9.961818
9.134389
9.967009
6.642651
8.293143
10.785515
10.788576
7.464500
7.464826
7.463635
9.128191
5.831200
5.046926
4.287523
5.777258
3.563959
4.288390
2.873014
4.290518
2.234648
2.235558
1.566163
1.570475
1.528958
0.918534
1.529672
0.918722
17.900459
11.681449
8.285687
6.596444
4.970058
6.569111
15.620323
16.361461
16.275687
3.461233
1.429469
16.287907
15.390865
14.430558
12.446544
0.799770
0.796397
0.781331
0.781519
9.990592
8.285573
10.001899
7.441181
4.214695
4.218001
2.759612
2.760613
14.361168
16.093390
14.635774
13.330590
14.467231
16.115922
15.708209
15.331760
11.835113
10.830587
9.141683
2.116343
0.862611
12.596164
12.489600
13.187304
13.240990
0.788254
0.795616
15.699892
0.785411
0.776211
9.987722
10.843740
0.820051
0.819930
11.648514
9.141672
7.437845
6.599876
5.776816
4.200468
6.606479
2.748422
4.975723
4.972783
13.225533
17.877278
2.112794
2.113832
1.499646
1.520652
14.849889
13.199101
13.308259
12.585636
8.287349
10.870758
4.917323
12.490362
15.437405
10.005246
6.565211
15.938403
15.447905
1.343159
1.321671
3.402421
2.665545
1.346124
3.402170
10.855402
7.421438
17.941436
14.513284
1.427102
16.194978
2.036825
1.331815
1.383016
15.225314
13.523236
12.447823
11.637092
14.485289
16.111131
14.411925
16.261275
12.469054
14.658757
1.307794
9.984787
9.152613
0.821345
0.820231
13.924180
1.328093
1.321866
10.828421
7.423842
8.288523
9.138106
7.437925
7.439301
5.779713
6.568926
5.736416
3.457200
2.752971
4.972078
4.196246
4.929783
2.697626
2.698775
1.436954
1.437916
16.001356
14.983911
16.216607
14.989751
16.433824
17.997609
14.536122
13.194974
8.277251
4.924485
13.178179
12.381726
16.302808
16.409607
8.278772
7.406924
15.849635
17.948448
1.999917
1.962430
4.918782
1.921016
1.937583
15.570356
10.853821
10.009638
9.145474
5.717954
15.771117
17.927805
3.359638
3.404356
1.360349
1.361957
15.828299
13.825440
1.361247
16.570405
16.161058
16.408486
16.279768
15.107944
1.322337
11.698770
11.675754
9.990922
10.842073
13.308795
1.343054
14.108372
11.688725
1.323659
9.145598
10.020659
9.142568
7.418563
6.562237
5.731334
7.407338
8.283656
7.419453
4.156046
4.131148
5.732811
14.986289
4.154401
3.380448
13.932797
17.927876
15.011056
2.062846
2.064251
3.395579
2.699060
1.979227
14.932123
18.012605
15.808842
16.406779
16.338232
14.839112
12.947821
18.011265
14.825405
15.029521
16.302979
15.835649
10.890574
16.515174
12.487915
10.860403
8.272347
7.401147
4.876048
8.273000
1.940249
13.142706
13.815839
14.513406
15.002843
1.952877
16.565195
10.834003
10.031710
9.145906
5.701378
4.903458
13.972175
13.840150
15.448812
1.968294
2.668550
2.631820
2.634694
15.262481
16.499951
15.752071
15.761556
16.401086
13.676975
11.689621
16.152522
12.475701
9.159972
9.162091
1.949577
12.462452
1.949806
10.011344
8.275844
5.730915
7.399762
6.511948
11.641079
5.700798
8.278036
4.087759
6.561084
4.136511
16.053855
4.114718
4.899732
4.128847
3.372841
2.692768
1.994824
1.968218
1.969897
16.043285
17.926169
16.276735
17.960038
13.116532
15.033116
14.416770
16.216745
16.697098
16.559114
13.844900
12.447855
10.865723
8.268005
6.529423
6.563038
4.872782
12.465479
8.267108
4.896664
16.120042
13.205888
9.146983
6.539853
4.923148
17.813948
15.493787
14.420962
13.857074
18.040888
16.578954
15.893992
2.638976
15.353970
2.642028
15.419394
2.667761
2.649387
15.393762
16.059147
14.325406
16.445216
11.678608
1.939690
9.153367
11.703043
13.183828
14.994808
8.273098
9.145692
11.655038
1.955506
10.871887
10.032265
9.998219
4.879448
7.393429
5.703306
6.541922
4.097069
3.337509
16.609249
4.160056
3.317458
4.081113
12.974666
15.197385
15.955298
16.396918
17.809726
15.570674
16.730253
16.112860
16.762287
13.842305
11.718970
10.876527
10.035970
8.268044
6.531580
4.870173
12.437155
13.123010
9.145246
7.357361
4.848598
4.910280
16.499555
15.433201
15.509367
14.397556
11.665683
9.142977
9.137764
10.004461
16.726324
16.618869
14.473386
14.914305
16.267895
15.938996
2.732371
3.361868
12.443135
13.162702
14.198615
14.768108
2.630983
2.626201
12.479009
13.850014
10.005582
16.045715
11.689931
6.531773
10.845506
2.641001
4.107682
5.688063
7.390333
2.679667
7.415373
15.779331
5.734950
5.736407
13.631683
3.327039
3.406730
3.357319
16.450779
16.183353
15.671297
14.970817
18.053912
15.814632
17.989768
14.929618
15.436320
16.084892
14.837042
13.328941
11.655721
10.008396
8.297028
12.462973
6.576538
8.932181
7.393872
3.629565
14.427730
16.156717
16.609197
5.671697
4.172435
3.363640
14.665939
13.719125
3.372760
16.557363
16.429163
3.339764
14.404813
13.164945
16.465636
15.999423
15.304627
16.833111
12.498582
15.956821
10.024036
9.157196
10.903922
13.165906
14.385179
2.629700
10.005944
11.661347
5.711908
8.261529
4.063088
7.395572
15.129954
11.696850
5.687527
5.853990
6.446967
3.337646
4.877292
4.120115
4.056619
15.772625
15.824083
16.369220
16.666773
16.399231
15.372287
16.626799
15.450418
15.676932
16.051814
16.773474
16.699627
14.643721
14.401596
13.152724
17.907587
10.804245
9.003166
13.055492
7.457743
5.842861
15.595884
10.002844
10.010441
4.248489
14.701360
9.146371
12.489034
8.234708
7.386780
6.525769
5.707582
6.537618
5.687314
4.867688
12.355914
4.845938
16.186964
13.844585
12.441523
16.065283
16.881251
16.518047
13.830870
10.883787
11.712233
16.907630
10.848189
13.843211
13.211884
10.844223
8.189983
9.158952
7.451515
6.636394
15.822725
16.321805
15.656570
14.919149
4.205753
16.798688
17.937371
4.306498
16.335598
16.275023
5.730789
15.099617
14.117907
16.647404
3.440254
4.124130
16.562218
15.313216
16.230174
15.710714
15.928061
17.836147
16.248420
16.931477
16.882783
13.818105
14.337099
15.312324
11.685484
13.873334
10.856486
17.969492
10.850544
10.019488
16.251222
9.159178
8.323998
14.084109
7.441223
12.433790
13.170491
16.857356
17.903424
15.155842
16.371863
14.895535
11.639627
13.153216
16.542884
12.484695
9.707016
11.674445
16.176458
6.578583
16.504855
8.261863
10.775115
15.935559
16.967737
9.961380
15.722783
16.879271
5.211496
16.324328
9.092394
8.268311
15.335145
16.791723
7.392990
7.608115
14.894719
6.684560
6.543321
5.020681
13.167631
5.759830
14.375669
4.968467
4.210759
13.745504
16.740687
16.317678
14.340375
15.615711
15.602524
15.908124
16.469489
16.969475
16.476102
14.529855
16.568478
14.304868
14.901782
16.741255
16.904022
13.288398
13.768565
15.232817
16.829048
17.007754
16.792509
15.879286
13.707521
16.449906
16.551564
15.633640
12.342379
16.222045
18.033122
11.648993
17.047313
10.891009
16.053918
15.279619
14.425589
15.198481
10.026884
17.870380
17.782779
15.948459
9.157124
13.720078
8.270533
12.418163
14.828193
17.994884
12.991714
15.499018
16.192987
16.703266
16.919449
17.763768
16.141819
16.697530
15.494211
16.727955
15.262072
17.776899
15.326838
16.658950
17.003511
14.353302
14.475399
15.873629
16.974324
17.965978
17.992633
16.179196
14.879842
15.596170
17.917442
13.929531
16.403339
17.081557
16.749021
17.106795
16.861103
16.697365
16.458818
15.965783
14.821583
16.153250
17.876981
14.731184
14.192339
17.715433
16.568599
15.575225
15.024595
11.553969
17.009055
15.210525
17.014707
14.243508
16.606388
16.252601
16.879876
17.060078
17.642682
16.697408
15.295022
15.195667
16.086828
14.982194
15.723617
14.669713
17.737115
16.967724
18.044575
14.827011
17.059902
17.187018
15.675152
16.435860
16.294037
16.546138
16.334667
17.128563
16.721315
15.095371
16.894705
16.774752
17.797940
16.943133
15.879345
17.652206
17.124652
14.747083
17.830935
18.047137
15.845002
15.947695
16.348352
14.958806
17.664133
16.708953
16.565633
15.791548
16.917025
15.574003
16.511633
15.238980
16.119019
17.000570
17.971772
16.042886
17.120439
16.729187
17.033664
17.230727
15.464790
17.175513
17.241694
15.451908
16.473463
16.225964
15.665823
17.165524
17.645697
16.805369
17.684198
17.805829
15.263768
18.049586
16.388769
16.606830
17.611357
15.137255
16.246347
16.899925
16.443188
16.654075
16.534393
16.883488
15.900991
17.267897
17.564440
17.119464
16.987805
15.743148
16.856647
17.740127
16.990826
15.522573
16.338483
16.290514
16.636397
17.212268
15.875479
17.982186
17.341901
17.044982
17.266980
17.494484
17.192879
17.863583
16.163256
16.837051
17.082926
17.892589
17.525398
16.452102
17.701312
15.511087
17.527443
15.626777
16.385580
16.492931
16.774435
17.093550
16.220692
16.369719
17.090511
16.792374
17.393477
15.934957
17.418160
15.865794
17.482854
17.878060
17.761822
17.618120
17.139918
17.372311
16.722027
17.375260
16.836868
16.176938
17.172549
17.307057
17.195480
17.319660
16.031896
16.083807
17.258684
17.211425
15.826677
17.892147
17.614102
17.681331
17.770093
16.418067
17.091183
15.644426
16.927417
16.709605
17.475513
17.351125
16.468130
17.620805
17.767596
16.110570
17.881709
16.189339
17.408485
17.885280
16.669370
17.474336
17.216603
16.886769
16.677236
16.045883
17.399493
17.029041
17.372027
17.598762
16.439782
16.361758
17.287069
16.015677
17.365401
17.259774
17.498883
17.361300
17.712325
17.228401
17.805306
15.938293
17.583430
16.984672
17.260401
17.579353
17.909806
16.906772
16.919579
16.677998
17.526597
17.289782
17.708201
17.247735
17.308467
16.873165
16.474361
17.276758
17.619311
16.218810
17.523216
17.341186
17.603516
17.509462
17.181339
16.323421
17.408378
17.354454
16.908120
17.520774
17.459025
16.709222
17.411001
16.484858
16.323923
16.606110
17.258305
17.739354
17.811698
17.446640
17.110374
16.193816
17.345283
16.846012
17.684056
16.678092
17.705691
17.212655
17.596749
16.391161
16.621182
16.994350
16.787717
17.448380
17.644912
17.540697
17.381596
16.895798
17.534540
17.092685
17.525910
17.107104
17.219305
17.625870
17.557516
16.564416
17.427655
17.053485
17.438594
16.612070
17.757814
16.469647
17.146377
17.337171
17.356054
16.810021
17.402674
17.019781
17.674364
17.499412
17.465391
16.914490
17.699139
17.242190
17.615132
17.827721
17.685262
16.657293
17.141872
16.896629
17.474757
17.121744
17.089318
17.890019
17.514469
17.660074
17.851745
17.572256
17.264815
17.431033
16.537775
17.640888
17.875663
17.263333
16.677742
17.559770
17.735090
17.389890
17.313262
16.929829
17.454484
17.882797
17.743618
17.103605
17.594039
17.043966
17.689666
17.262823
17.674911
17.554966
17.698227
17.878052
16.909104
17.383600
16.782737
17.086951
17.945247
17.766593
17.131717
17.203013
16.906645
17.540257
17.560420
17.767920
17.748853
17.791983
17.154814
17.484791
17.851460
17.255575
17.804732
17.282060
17.667284
17.801581
17.330457
17.012471
17.575603
17.119845
17.303127
17.564540
17.707935
17.573899
17.699676
17.920882
16.695064
17.122486
17.036612
17.293078
17.697427
17.707437
17.144952
17.800814
17.434808
17.821539
17.447229
17.896763
17.870246
17.915073
17.216083
17.425445
17.931645
17.858685
17.634562
17.004216
17.711765
17.294754
17.793812
17.425956
17.523854
17.513905
17.468214
17.981728
18.031415
17.227513
17.907201
17.614941
18.017787
17.336483
17.917750
17.910465
17.849304
17.963506
17.874479
17.845214
17.979174
17.525699
17.775922
16.938346
18.006366
17.310148
17.686415
17.400904
17.881368
17.644413
17.788901
17.953534
17.869172
17.962372
17.166439
17.965315
18.045101
17.695392
17.333096
17.742143
17.531327
18.063468
17.634152
17.796688
18.004562
17.365819
17.422929
17.707428
17.918993
17.819979
17.560229
SCALARS UY float 1
LOOKUP_TABLE default
0.000000
-0.000000
0.000000
-0.000000
0.005136
0.000000
0.000000
0.000000
0.000000
0.000000
0.000000
0.000000
-0.000000
-0.000000
-0.000000
-0.000000
-0.000000
-0.000000
-0.665194
-1.284275
-1.798228
-2.226366
-2.610588
-2.927606
-3.200892
-3.439064
-3.629287
-3.763865
-3.852083
-3.891962
-3.894383
-3.846331
-3.748125
-3.599834
-3.400566
-3.146169
-2.826762
-2.448269
-2.006978
-1.486355
-0.922455
-0.315295
0.320455
0.926121
1.493233
2.006749
2.458124
2.836518
3.152220
3.409811
3.611447
3.761269
3.853514
3.907557
3.910785
3.865390
3.773012
3.634049
3.450236
3.222501
2.933526
2.611905
2.245675
1.807333
1.321328
0.751985
0.000000
0.000000
0.000000
0.000000
0.000000
0.000000
-0.000000
-0.000000
-0.000000
-0.000000
-0.000000
-0.000000
-0.000000
-0.666955
-1.287402
-1.802411
-2.226398
-2.598151
-2.931050
-3.203518
-3.439150
-3.625025
-3.765280
-3.850957
-3.899618
-3.898602
-3.850153
-3.752981
-3.605680
-3.406319
-3.144578
-2.828150
-2.447928
-2.000972
-1.495195
-0.912527
-0.308846
0.318737
0.924861
1.501494
2.009602
2.455592
2.836347
3.152161
3.409521
3.608775
3.758546
3.857981
3.911843
3.905737
3.862175
3.770612
3.632939
3.450450
3.223112
2.933711
2.611875
2.245529
1.807117
1.321120
0.751872
0.009523
0.012573
0.016176
0.019102
0.019789
0.018792
0.021018
0.017350
0.016688
0.012901
0.011677
0.007806
0.005922
-0.003437
-0.004755
-0.004861
-0.008466
-0.007278
-0.006220
-0.006530
-0.004484
-0.004485
-0.001625
0.003768
0.007783
0.011248
0.014543
0.014727
0.017411
0.018846
0.018188
0.016315
0.016730
0.014910
0.009522
0.007514
0.004582
0.001407
-0.000345
-0.001547
-0.005836
-0.008536
-0.009371
-0.007989
-0.006215
-0.004941
-0.000690
0.004024
0.079407
-0.057083
0.058264
-0.012879
0.012338
2.896019
0.012853
3.034902
3.032663
3.021638
-2.902502
-3.017677
-2.740457
-3.145096
-2.888477
-2.490325
2.253026
-2.246851
-1.534017
1.943960
0.002853
0.000665
-1.168774
0.249093
0.270135
2.310223
-1.687432
-1.653819
2.310003
0.156397
0.155770
1.330372
1.330455
-0.221839
-0.217221
1.181556
0.069504
-3.109000
3.111232
3.150503
0.298397
0.298381
-0.693269
0.731729
1.209258
2.254291
-0.661912
2.516160
1.630516
0.902452
0.902520
-1.880190
2.508991
-2.215469
2.727006
-0.463535
-0.461502
-0.150968
-0.153542
-0.097579
-0.098752
0.047391
0.046983
-3.143843
-2.540747
-3.100373
-2.292804
-3.021454
3.156234
2.912209
3.157695
2.910774
-2.867351
-2.726013
2.746810
2.022099
-2.015843
2.747294
2.021952
0.428021
0.428046
-0.920028
-0.921282
0.022302
-2.290205
-2.391042
2.493383
2.389556
2.288564
2.185309
-1.842108
-1.773023
1.872408
1.214652
-0.893863
0.329084
0.000790
0.001190
1.778186
1.777629
-0.306913
-1.250687
-0.443687
0.807629
-0.203326
-0.186061
1.680232
-1.129863
1.998608
-1.550585
-1.943690
0.697695
1.873370
-0.693924
-2.527646
-0.683520
-2.698451
2.745897
2.912081
-0.308957
0.219499
0.219511
-0.046236
-0.046429
0.097750
0.096892
-0.306119
-0.306603
-3.101386
3.153764
3.108137
-3.021571
-3.144336
-3.015577
3.022734
3.113191
3.114292
-3.106066
-3.143414
-2.902302
-2.742438
-2.539708
2.290351
-2.295474
2.546506
-2.008131
2.546264
1.694237
1.694215
-1.273197
-1.270073
0.997158
0.644402
0.997159
0.644481
-0.046956
2.313105
-2.491194
-2.388605
-2.148906
1.837578
-1.053758
0.344656
-0.142545
-1.766333
-0.674305
-0.044008
-1.212712
-1.681075
-2.155511
0.198961
0.199121
-0.092151
-0.096563
2.462026
-2.492560
-2.452302
2.460513
1.980074
1.978669
1.538364
1.537932
1.747804
-0.576737
-1.548594
-2.012571
1.666277
0.514603
0.976108
1.271953
2.313443
2.394459
2.495687
-1.260549
-0.473173
2.160819
-2.201329
-2.088967
2.038647
-0.197139
-0.197982
0.993975
0.094969
0.096132
-2.455513
-2.384875
0.432420
0.432464
-2.288007
2.496704
2.462103
-2.383941
-2.284295
-1.973865
2.390451
-1.525718
2.152567
2.153368
2.019056
0.016133
1.270064
1.269924
-0.970846
-0.969495
1.503196
1.652913
-1.678397
1.754153
1.923018
-1.843306
1.638981
-1.679498
1.037070
1.897457
-1.830455
-0.757318
1.068940
0.297036
-0.143153
1.336267
-1.133835
0.297995
1.335858
-1.839154
1.894110
-0.067326
1.405344
-0.702866
-0.445005
-0.951092
-0.146516
-0.471106
-1.292667
-1.612093
-1.754003
1.852155
1.386026
0.633546
-1.423222
0.232314
1.723711
-1.321983
-0.297077
2.465424
-2.489309
0.309390
0.309361
1.520440
0.144997
0.146849
2.394582
1.892665
2.494202
-2.490450
-2.454800
-2.452920
-2.280689
1.838506
1.749843
-1.764705
-1.520506
-2.145262
-1.974406
1.639162
1.145494
1.145370
0.722901
0.723048
-0.704456
1.438824
-0.340410
-1.472415
0.071168
0.067026
1.144379
-1.328775
1.417328
-1.630339
1.298198
1.378221
0.506027
-0.010107
-1.915989
1.391109
-0.825565
-0.061521
-0.685601
-0.385450
-1.633337
0.400199
0.402069
-0.987713
1.847367
-1.892331
1.921386
1.283169
0.879237
0.063315
0.963716
0.986798
0.460746
0.461323
0.835290
1.542509
-0.513827
0.111056
-0.568718
-0.179655
0.453503
-1.233593
-0.006005
-1.780950
1.802740
1.909504
1.868151
1.588253
-0.297762
-1.474539
-1.802279
0.002606
1.922843
-1.889294
-1.915127
-1.886021
-1.832066
1.751891
1.391453
1.920942
-1.884301
1.501381
-1.493659
-1.744850
1.241283
1.495846
-1.324799
-1.511114
-0.042417
1.225504
0.939376
0.939458
-1.329086
-1.151186
-0.915148
-1.261259
0.065645
-0.898647
-0.196692
-0.377974
-1.542562
-1.757335
-0.056604
-1.052034
1.047142
-0.493183
0.785225
-1.365809
-0.237443
-1.288903
1.373415
0.961644
-1.385867
-1.191141
-1.406130
-0.196137
1.265505
1.240165
-1.175071
1.060716
0.193213
-0.100335
1.399288
-1.405742
1.422295
-1.276203
1.195262
1.220843
-1.264268
-1.032521
-0.454470
-0.843006
0.813761
0.806687
-0.993389
0.316260
-0.804893
0.820607
0.212266
-1.281208
-1.338021
-0.593587
-1.363043
-1.919493
-1.408413
0.191258
1.334478
-0.189709
1.405845
1.415163
-1.744002
-1.385612
1.327051
1.402151
1.279072
-1.912476
-1.080870
1.347650
-1.492339
0.680212
1.089078
1.194501
1.088633
-0.961884
-0.814619
-0.652635
0.673003
0.672712
0.680658
0.046087
-0.395175
-0.047698
-1.375874
0.890594
-0.949080
0.575538
0.134060
0.197104
0.952604
0.990581
0.948351
0.961255
0.907686
0.912054
-0.800143
-0.923342
-0.951260
0.804199