# vtk DataFile Version 2.0
Test
ASCII
DATASET POLYDATA
POINTS 1437 float
0.000000 0.000000 0.000000
30.000000 0.000000 0.000000
30.000000 100.000000 0.000000
0.000000 100.000000 0.000000
16.400000 50.000000 0.000000
2.142857 0.000000 0.000000
4.285714 0.000000 0.000000
6.428571 0.000000 0.000000
8.571429 0.000000 0.000000
10.714286 0.000000 0.000000
12.857143 0.000000 0.000000
15.000000 0.000000 0.000000
17.142857 0.000000 0.000000
19.285714 0.000000 0.000000
21.428571 0.000000 0.000000
23.571429 0.000000 0.000000
25.714286 0.000000 0.000000
27.857143 0.000000 0.000000
30.000000 2.040816 0.000000
30.000000 4.081633 0.000000
30.000000 6.122449 0.000000
30.000000 8.163265 0.000000
30.000000 10.204082 0.000000
30.000000 12.244898 0.000000
30.000000 14.285714 0.000000
30.000000 16.326531 0.000000
30.000000 18.367347 0.000000
30.000000 20.408163 0.000000
30.000000 22.448980 0.000000
30.000000 24.489796 0.000000
30.000000 26.530612 0.000000
30.000000 28.571429 0.000000
30.000000 30.612245 0.000000
30.000000 32.653061 0.000000
30.000000 34.693878 0.000000
30.000000 36.734694 0.000000
30.000000 38.775510 0.000000
30.000000 40.816327 0.000000
30.000000 42.857143 0.000000
30.000000 44.897959 0.000000
30.000000 46.938776 0.000000
30.000000 48.979592 0.000000
30.000000 51.020408 0.000000
30.000000 53.061224 0.000000
30.000000 55.102041 0.000000
30.000000 57.142857 0.000000
30.000000 59.183673 0.000000
30.000000 61.224490 0.000000
30.000000 63.265306 0.000000
30.000000 65.306122 0.000000
30.000000 67.346939 0.000000
30.000000 69.387755 0.000000
30.000000 71.428571 0.000000
30.000000 73.469388 0.000000
30.000000 75.510204 0.000000
30.000000 77.551020 0.000000
30.000000 79.591837 0.000000
30.000000 81.632653 0.000000
30.000000 83.673469 0.000000
30.000000 85.714286 0.000000
30.000000 87.755102 0.000000
30.000000 89.795918 0.000000
30.000000 91.836735 0.000000
30.000000 93.877551 0.000000
30.000000 95.918367 0.000000
30.000000 97.959184 0.000000
27.857143 100.000000 0.000000
25.714286 100.000000 0.000000
23.571429 100.000000 0.000000
21.428571 100.000000 0.000000
19.285714 100.000000 0.000000
17.142857 100.000000 0.000000
15.000000 100.000000 0.000000
12.857143 100.000000 0.000000
10.714286 100.000000 0.000000
8.571429 100.000000 0.000000
6.428571 100.000000 0.000000
4.285714 100.000000 0.000000
2.142857 100.000000 0.000000
0.000000 97.959184 0.000000
0.000000 95.918367 0.000000
0.000000 93.877551 0.000000
0.000000 91.836735 0.000000
0.000000 89.795918 0.000000
0.000000 87.755102 0.000000
0.000000 85.714286 0.000000
0.000000 83.673469 0.000000
0.000000 81.632653 0.000000
0.000000 79.591837 0.000000
0.000000 77.551020 0.000000
0.000000 75.510204 0.000000
0.000000 73.469388 0.000000
0.000000 71.428571 0.000000
0.000000 69.387755 0.000000
0.000000 67.346939 0.000000
0.000000 65.306122 0.000000
0.000000 63.265306 0.000000
0.000000 61.224490 0.000000
0.000000 59.183673 0.000000
0.000000 57.142857 0.000000
0.000000 55.102041 0.000000
0.000000 53.061224 0.000000
0.000000 51.020408 0.000000
0.000000 48.979592 0.000000
0.000000 46.938776 0.000000
0.000000 44.897959 0.000000
0.000000 42.857143 0.000000
0.000000 40.816327 0.000000
0.000000 38.775510 0.000000
0.000000 36.734694 0.000000
0.000000 34.693878 0.000000
0.000000 32.653061 0.000000
0.000000 30.612245 0.000000
0.000000 28.571429 0.000000
0.000000 26.530612 0.000000
0.000000 24.489796 0.000000
0.000000 22.448980 0.000000
0.000000 20.408163 0.000000
0.000000 18.367347 0.000000
0.000000 16.326531 0.000000
0.000000 14.285714 0.000000
0.000000 12.244898 0.000000
0.000000 10.204082 0.000000
0.000000 8.163265 0.000000
0.000000 6.122449 0.000000
0.000000 4.081633 0.000000
0.000000 2.040816 0.000000
16.388506 50.179028 0.000000
16.354213 50.355116 0.000000
16.297683 50.525374 0.000000
16.219846 50.687005 0.000000
16.121979 50.837355 0.000000
16.005689 50.973956 0.000000
15.872886 51.094564 0.000000
15.725750 51.197200 0.000000
15.566697 51.280178 0.000000
15.398339 51.342135 0.000000
15.223440 51.382054 0.000000
15.044872 51.399281 0.000000
14.865568 51.393531 0.000000
14.688471 51.364899 0.000000
14.516489 51.313856 0.000000
14.352446 51.241239 0.000000
14.199037 51.148241 0.000000
14.058779 51.036389 0.000000
13.933976 50.907520 0.000000
13.826677 50.763749 0.000000
13.738644 50.607437 0.000000
13.671322 50.441152 0.000000
13.625817 50.267622 0.000000
13.602876 50.089698 0.000000
13.602876 49.910302 0.000000
13.625817 49.732378 0.000000
13.671322 49.558848 0.000000
13.738644 49.392563 0.000000
13.826677 49.236251 0.000000
13.933976 49.092480 0.000000
14.058779 48.963611 0.000000
14.199037 48.851759 0.000000
14.352446 48.758761 0.000000
14.516489 48.686144 0.000000
14.688471 48.635101 0.000000
14.865568 48.606469 0.000000
15.044872 48.600719 0.000000
15.223440 48.617946 0.000000
15.398339 48.657865 0.000000
15.566697 48.719822 0.000000
15.725750 48.802800 0.000000
15.872886 48.905436 0.000000
16.005689 49.026044 0.000000
16.121979 49.162645 0.000000
16.219846 49.312995 0.000000
16.297683 49.474626 0.000000
16.354213 49.644884 0.000000
16.388506 49.820972 0.000000
16.142290 51.090246 0.000000
16.381031 49.246029 0.000000
16.476220 50.570036 0.000000
16.567534 49.809478 0.000000
13.432060 49.919357 0.000000
27.959184 67.346939 0.000000
15.062546 51.587060 0.000000
27.959184 79.591837 0.000000
2.040816 20.408163 0.000000
2.040816 30.612245 0.000000
2.040816 81.632653 0.000000
2.040816 69.387755 0.000000
27.959184 16.326531 0.000000
27.959184 24.489796 0.000000
27.959184 32.653061 0.000000
2.000226 63.022103 0.000000
2.040816 38.775510 0.000000
27.959184 38.775510 0.000000
2.063520 56.953992 0.000000
27.959184 59.183673 0.000000
15.000000 97.857143 0.000000
15.000000 2.142857 0.000000
27.959184 44.897959 0.000000
27.959184 51.020408 0.000000
2.058026 48.891267 0.000000
2.040816 12.244898 0.000000
27.959184 8.163265 0.000000
2.119286 91.907213 0.000000
27.959184 87.755102 0.000000
8.571429 2.142857 0.000000
21.428571 97.857143 0.000000
2.040816 6.122449 0.000000
27.959184 93.877551 0.000000
23.571429 2.142857 0.000000
6.428571 97.857143 0.000000
2.040816 44.897959 0.000000
15.808727 51.356253 0.000000
2.040816 77.551020 0.000000
27.959184 71.428571 0.000000
2.040816 26.530612 0.000000
4.285714 2.142857 0.000000
25.714286 97.857143 0.000000
2.021897 52.958989 0.000000
27.959184 53.061224 0.000000
27.914278 55.273576 0.000000
27.959184 61.224490 0.000000
27.879705 47.169173 0.000000
2.040816 36.734694 0.000000
1.985319 42.671502 0.000000
2.040816 4.081633 0.000000
27.959184 95.918367 0.000000
27.842785 41.012410 0.000000
27.904213 63.341606 0.000000
1.981595 60.897410 0.000000
2.040816 34.693878 0.000000
2.142857 97.857143 0.000000
27.857143 2.142857 0.000000
21.428571 2.142857 0.000000
8.571429 97.857143 0.000000
19.285714 2.142857 0.000000
10.714286 97.857143 0.000000
12.857143 2.142857 0.000000
17.142857 97.857143 0.000000
2.040816 73.469388 0.000000
2.040816 85.714286 0.000000
27.959184 28.571429 0.000000
27.957036 12.244796 0.000000
27.959184 20.408163 0.000000
27.959184 75.510204 0.000000
27.959184 81.632653 0.000000
2.040816 24.489796 0.000000
2.040816 18.367347 0.000000
2.101567 67.270721 0.000000
27.990742 34.718564 0.000000
2.040816 16.326531 0.000000
2.040816 10.204082 0.000000
2.040816 89.795918 0.000000
27.959184 83.673469 0.000000
27.959184 89.795918 0.000000
2.098379 2.081372 0.000000
27.901617 97.918624 0.000000
28.130079 4.091715 0.000000
1.869924 95.908287 0.000000
16.576970 50.167357 0.000000
25.954712 32.689406 0.000000
4.048051 69.354174 0.000000
4.081633 24.489796 0.000000
25.916213 79.588913 0.000000
4.086221 18.371935 0.000000
3.897904 34.877606 0.000000
3.923124 61.572806 0.000000
26.128612 39.133691 0.000000
26.214823 61.491956 0.000000
3.871989 43.375621 0.000000
26.265426 45.355943 0.000000
26.372982 51.593494 0.000000
15.011971 95.726257 0.000000
14.987483 4.273197 0.000000
4.095212 12.258477 0.000000
25.904714 87.741449 0.000000
8.590547 95.733404 0.000000
4.124327 91.817489 0.000000
23.644909 4.177846 0.000000
1.898679 46.664421 0.000000
1.887660 50.867252 0.000000
28.104743 49.216969 0.000000
28.091622 57.507646 0.000000
1.793213 54.763850 0.000000
1.898425 40.673936 0.000000
28.092220 43.114891 0.000000
1.898792 59.041649 0.000000
26.349643 53.492500 0.000000
3.788008 38.504633 0.000000
26.348185 4.174096 0.000000
28.073402 36.848913 0.000000
3.770644 95.809804 0.000000
1.947709 64.759841 0.000000
27.961478 65.481833 0.000000
2.032166 32.492602 0.000000
21.409200 4.266343 0.000000
6.436167 2.135262 0.000000
23.563887 97.864684 0.000000
17.151762 2.133952 0.000000
12.848401 97.865884 0.000000
10.720797 2.136346 0.000000
19.279431 97.863426 0.000000
25.741048 2.116095 0.000000
4.208553 97.884202 0.000000
2.040816 71.428571 0.000000
27.959184 73.469388 0.000000
2.040044 28.570656 0.000000
2.040816 79.591837 0.000000
2.040816 75.510204 0.000000
27.959184 30.612245 0.000000
27.959184 69.387755 0.000000
27.959184 77.551020 0.000000
2.040816 22.448980 0.000000
27.959184 22.448980 0.000000
27.959252 26.530681 0.000000
27.959184 18.367347 0.000000
2.040816 83.673469 0.000000
27.959184 14.285714 0.000000
25.913747 81.628033 0.000000
2.043283 87.757569 0.000000
2.046930 14.291828 0.000000
27.956122 10.201020 0.000000
27.953028 85.708130 0.000000
2.051111 8.173560 0.000000
27.948877 91.826428 0.000000
27.877535 6.025956 0.000000
2.132881 93.976795 0.000000
4.000357 6.267740 0.000000
4.120886 4.222927 0.000000
25.999609 93.732219 0.000000
25.879089 95.777048 0.000000
15.649674 48.560769 0.000000
26.010158 67.277614 0.000000
25.918367 24.489796 0.000000
4.081633 79.591837 0.000000
25.916050 16.328010 0.000000
23.873553 79.584761 0.000000
3.481175 55.433151 0.000000
24.733850 51.947925 0.000000
3.652422 50.744354 0.000000
25.910700 12.249504 0.000000
23.509255 6.363423 0.000000
26.366938 49.758281 0.000000
26.399277 43.548901 0.000000
3.661711 59.758281 0.000000
25.957156 34.691433 0.000000
10.699495 4.264413 0.000000
19.300303 95.735157 0.000000
17.109994 4.256463 0.000000
[...]
POINT_DATA 1437
SCALARS UX float 1
LOOKUP_TABLE default
-2403189938201356173191036604048066382835744768.000000
-9858159141611037816706619786794371261006872576.000000
-19193148860943678681486663263518337110913318912.000000
-73264408012182878948483256799689532623485403136.000000
1811631309145115657937210079541006522035526510033867481546752.000000
1090940721517142456869912382191414738847531008.000000
-160036706706491714808266455095570891571986432.000000
-6143627821553945208351575739491491078930956288.000000
-5735469308006249306211950432687789672381808640.000000
14264433186146974628378473809382672168642412544.000000
-17071715183581984463790516337887390741378891776.000000
53793662206778465711862372868112850876568174592.000000
-192572428408308727030855764844986530915692838912.000000
338333695486679719701494035456510567349821112320.000000
-241779347397151559843729381013670952150147006464.000000
59015968297716249860804541054597555612838526976.000000
-23059402192991003768417051073384635666968608768.000000
19215913616807891169246711611846140484219043840.000000
-121658291109814782633004835372336472219938665831955987169280.000000
-168321491490006411768037620467620603511925043887891105710080.000000
-796273264860685114868631677641727540576971714411788211585024.000000
-72975236736724421046115859538298104543859001100620368183296.000000
736865016739231249593803834071036840589602563254254013775872.000000
1078591683166964142730275154523755468170394485336850288345088.000000
737589426623686599502174971667773035933865833434532932485120.000000
1310969113319105944970342220529932464828925844990531928588288.000000
614189485694686931637498661110654238558018414155746842247168.000000
768532752832654173462325747282012181298815468253770332241920.000000
878615402273233683188518685329438084967064152733496104714240.000000
940638561663390425012688466979989569830231602770821240586240.000000
919366397295170623782886565533658525645319067136797465116672.000000
1040083145655181592428510015198668737309123325851452752003072.000000
960631093232621549535873665536103506342875857888355012313088.000000
1417859778952071940343054068411242025307977881564987267219456.000000
1450387365217321699943948511810851102249610406832959133843456.000000
1326786646405894474579056735509915683817290096713987153461248.000000
1218698805234506825053851404689626310035131496334277864325120.000000
-60466634001295479943580390145579938788966190373747698958336.000000
-2625629973080041542680653327056990020940789546266865409458176.000000
1867793791010608494975418334222375063628569652493943547363328.000000
1796537194615863113255607631839871320946030816704804776050688.000000
1297230877096239196469838518750129214355623051836127493226496.000000
1337148256021490700847814625297981232955331709445875739656192.000000
1801824588398212655771624320936054897836172719142368163397632.000000
1536906970780029078422631386369632874259650733418073355714560.000000
946217178278319127376079059719823686743187830063936326074368.000000
1427473832658070251660345429739245939903674629829520682647552.000000
1480464745515037564300049625241082044644156508549862091915264.000000
1013193550918328622753629044781578210260296112850236575055872.000000
1123261078279874662497668294307798525708802606955830934765568.000000
765731612605950466152534911787921093972517838266955382915072.000000
725333706579896907662967339858352925707764763019547554873344.000000
700370999682309323735380860979599674079603540010797402947584.000000
546752988079519721712342908230698067236067188716889106808832.000000
844927308861879753257201053300675388305616818872908020449280.000000
729502217378422800097192460480135031966005769910214635552768.000000
848728107399392947699604844478778136176455663139335604011008.000000
792424316534240259878433535776200144367035294036339348996096.000000
516867199528441669078016396475216399148748915662081335754752.000000
646408045321391205133849533774038389292403131863046440353792.000000
536163289840067048455223854736138855300983913844287165431808.000000
440105547490575644537941099563479314542925614217056084819968.000000
335641537065660650399452441528192438097494585525109727952896.000000
-107479629156635787316022405526487854914040105367724324028416.000000
287368887341900921928786551323852596925782878565992662827008.000000
320200954417703337594651749764556822621379486768874274160640.000000
6133201500232407972454552479350599389890478080.000000
-225996190500511334024480588716892817681127833600.000000
885285092405764414733308470056021711124850278400.000000
-839980223559551845557558806023166255212250791936.000000
178206934742262644661953982311131294845095641088.000000
-46476566290456249920013947165510444439494983680.000000
-12202683157660960476242713939547772872158085120.000000
58747876969557498412032458531566505359583477760.000000
-83504093681896574017816134095426751224405295104.000000
123725705443514950793624419744512322483332841472.000000
-136743705313453396210557911372175500416414384128.000000
68928912797652499381400094832023188307848462336.000000
77026145161435790247414017011320959153572151296.000000
-181389548940477614957963419456679653903803325844147736150016.000000
163856096462067702083911710591194086037599688332867153166336.000000
-223588848463836002713813832324457259340602768141155506847744.000000
397151345799027187575753121587192934017857851983379801571328.000000
1209484937780539731743940428485975400200536133736061135224832.000000
-93084457570696218409872080808530876234746070508276866351104.000000
106560450195576721328054493723950077663966902198698539745280.000000
257710239070274228887001355573087805760072408232581195104256.000000
389197658530984414570507762514256959074572656573939812663296.000000
597996165335749013674805320066489830211167002100873218228224.000000
676327118649992972756033478097473820842406601110805242970112.000000
779063409100386094044956674425393235396179862429099683217408.000000
828122234389617343831435363272941622548523630623143948713984.000000
810315467540529754915432954899723531157026599298830943911936.000000
1432571642099342603236375259954050342069248302895412866449408.000000
-213700668898504194516797893474285591135636395803854801731584.000000
558340330658783929999959775250945755790700979614310962561024.000000
985523876586534616426841858435889218214524256614888943648768.000000
1190697635313504726528877600200742431024649146273680890789888.000000
1161845073416550991370864980811687874780926930686200913068032.000000
1132502015222018585328559176264113094667753381856540337635328.000000
908499292517108739846811208204931035823891937898957543309312.000000
1161199586790567945317352896166182541254509605546793180856320.000000
1446415103359166090391883917875578040395874748050022808420352.000000
1730637999210306159492946194818863527950653562344950791667712.000000
1697086315663941164386586162101358941133023774199168903413760.000000
1820849972274870662681410239950098428260374243423326824300544.000000
1708636530165558068433263267526773487419917967782415502934016.000000
1729506144390259875454029514058964200169132972720103597539328.000000
1638103669484988791230468880218958267712061884536215253811200.000000
1860445682468370979965567603458476123346770497951444787789824.000000
2300095317265073928034058120838868060740986797992295962509312.000000
2508939657790239017369100679459795183630487881492771612131328.000000
2355230509325106863608761519483928132546606087757074633064448.000000
2159975953662268438385823070949541125727952837987517834723328.000000
2282389766066255990329881897192707992105212578736477124427776.000000
2445941821554782880196408864965589126727769330019586231238656.000000
3503164385476126808446510476686011322239696368733474003091456.000000
2755459209841668898317878093998148082894944144161350828949504.000000
6580895773389861298551422072257652115315086486044012974178304.000000
2661891628417585390389040726400120571181142367159367644479488.000000
1331173607836187450364375843880763247401018280560203225104384.000000
287745607996224806708628888253552328921809228893213855580160.000000
11368479891077631337805308158739955664843776436051084574720.000000
83636841275996738208383459432689787720185012483913200697344.000000
101493134353736826318501302389753229784672407688638596382720.000000
483869156248609263413129876530655928077761439384026602274816.000000
-415362088394368230803240256704119728611370025957631446745088.000000
1523571058165070793614067980455808386259055165709450611785728.000000
1479258868250125847049414104890890302578035282800757853650944.000000
1276489306158115315331036494806702801135146390389401787039744.000000
1048029363698606517448775666762220227624073719248499056312320.000000
661918299746469472819986283662544122623260484035143398326272.000000
775311176248993907893393893446614139520255566268243868909568.000000
1014887968734129050383406794634046618916257351743689055010816.000000
1110661157754242565093904635514030888339363049504066578153472.000000
1134819815671521460718142684874889610035722370895176531968000.000000
1114752971376355876055543809788746106985517490273203934724096.000000
1178462911450554568587881047616225986028997780639901527572480.000000
1259541254754045744050135326760232814740109906716833790033920.000000
1232518115038463052231512364855593536235633063245495767400448.000000
1234033889862629562173133411977463573695182368404781477658624.000000
1343870689221252588932331150106224427917926099651148405276672.000000
1571165311328974978193619616474759214747611331348428765528064.000000
1789764887451247011154896551944086866086218012537628433317888.000000
1514095985913390344484268285339117111037210427831055045099520.000000
1290772359879664688503203232786917918494864054049881043501056.000000
1208446937785391952946434194317282905982735743374603709317120.000000
1230171714107259399015837593492412607965170881257674287087616.000000
1180714371276776634163444327077101478963144240620869798330368.000000
1119156201835130043083945565774208321334941110493386823958528.000000
1423720603381443864763898343782888209675492016795201627488256.000000
1362161420960818570566992019017230897925790020256295072825344.000000
1317406831631976848962270965570363979440471869951330477932544.000000
1325196479169244319701050378429795711148728597832678818971648.000000
1352436620225718557847711766112486936882273890152400623239168.000000
1303492032624952471217683699174767339045116505984201117401088.000000
1302196196053744797246705540446622104284607041001589751939072.000000
1129148594580974478874874461635325373101668541669908823408640.000000
1076624591702032261443262084628911204491100309131446810836992.000000
1231800022098988452796891954409986540255143323318555229814784.000000
1322379580491291959351971605679586512068324479104779544428544.000000
1299843596452412946012735263194452365007693398701814539354112.000000
1162830358031668476247585236968073682023649255235469155762176.000000
1021000972953751453305585300451646115350683330487092753989632.000000
828013604530588457343356418635515678987994315958473971466240.000000
825585595508464216135840747632274990587135767731710571053056.000000
1100221552053363456833751872649844739976756094084059066531840.000000
1315383561174756782233931739471158267122859128229346907521024.000000
1478973445545358442242594646946341587186792110801569244512256.000000
971381903931919121276164012276905450759858303942327594385408.000000
809296090295723976787372518010660003393521209333459261063168.000000
335511705667168504442580936937255018442980100248024922456064.000000
-75492383358998507783477309760062946315505936185174379200512.000000
1132202488681644486505246852280864079500767355539200875167744.000000
1525456537336805662637766118283268492237968919104974959411200.000000
1042296750465589229733463710984562243746748196281109343895552.000000
793275483287329558567905211841057060902059696346339259449344.000000
1255753384677874280312044523654946681444361203162994345771008.000000
1547974980175927603868433861209319685647196585642434806939648.000000
1346558247636912876951806782611301260038792622287692756942848.000000
734862516780096256330335243484684386727426301172489574678528.000000
1296648718589850935004405533308785404643100105768723441254400.000000
802843352700035428544784123567843979215555698424516473520128.000000
2226477798715681745687304973097778260429507156438413851230208.000000
2322335842919633125210971616646716195394892468242712350425088.000000
364695771368403917529624064454676798916220122739159794188288.000000
617099840284232847351050932866537536358966077186406835290112.000000
990035096083376353417957154363943807670484242735389627908096.000000
945048320432357529991391900001356316338122805626577929371648.000000
1317135033705169183958271366514077420608859593326703056781312.000000
1026174375576354406871241223272017953691375870587723979948032.000000
1555485130457415085027458533585098672125484120952206694285312.000000
1079098327169689912776529584234289755154038968915738320961536.000000
1107105917125448193452799365861417117664294065264367060910080.000000
1476906315894342631950849794818807586160531557394302722113536.000000
-410234516254035390164069351424137247252497989530307388243968.000000
20603965708377711541858783216184830247337028508155117568000.000000
310146909228535468435608927871726770387769514072300811452416.000000
1165881217676362469651128343048144712879959222023954590859264.000000
1556572850662342063316825344748934387575254949985111861362688.000000
543536919527002389449798302068612706384421542774370964865024.000000
-45933355251306143158715134223389044305969659826682602717184.000000
-74907218258511298863613001030082807661561893503280967843840.000000
694878200938438835056359197031610681368706894067169295859712.000000
1854567159128817201681408033641447048693601643910142099456.000000
-133100825696004026598215190162694786190800009800960394133504.000000
227125590874122913361336581790099830829574481510619848638464.000000
751074207071650405386174583675309548269340626325792188530688.000000
166442662089537809750520243265595630646615677753559126900736.000000
1263327343219313243147639291666170806805549724574527071977472.000000
1790226935092759247222299233430280054486714002368671399280640.000000
1200381178158483446192220907105016036943656399157117604331520.000000
691845317835007778420383712660281927080496114599985806311424.000000
719825378556453751283586553579564561625379481095148027248640.000000
1994544096332623275323179241947006929752074096151657101393920.000000
86926352850947849844265960028103837375428690208164925145088.000000
-596248609244456806314509845260766155199639940338522529988608.000000
1166635563791921314297290377838234172815180362742367139135488.000000
1790275668608741799902869881994671530298677962822194487623680.000000
1591987290132010628873075420857740446752575397584949489958912.000000
1374448787951057313485406956018927137672022980625556358299648.000000
2159059170117182276745518839518955261966930700682020056465408.000000
1713347706743949885912057200863305197899384016090446721712128.000000
1524271573388043278580080612942156498684676050444129274953728.000000
9791232789639103434453667309754455469703851576483435773952.000000
532839581532631193874158804191540942720034940195365376229376.000000
1705733909051908450451620380998337693814882641171545669500928.000000
1089114438569133968709774940102783229381699497412675950870528.000000
1222172862044954857517125149959480458160934592118774369878016.000000
2300397879254678180323286271203340033596470312813548124766208.000000
-184725037828749627485633497432963840844794834758942425350144.000000
238507476204676390186770291810782439929319103357242308558848.000000
135304847505645231693791692458642506093902059462283734548480.000000
1281723940452629857395858798657144791729052307476304239788032.000000
104670884322002576029035449199240694625084003270337761378304.000000
-249734092591933258220207942899826657801807868434777645252608.000000
4866813595192142084784232395162432768619289741049850757120.000000
-483564965755805052550079583208816502634315010196597999927296.000000
897344728661055689009494979162144294323705976272404122435584.000000
221058883073211715229917033025158458065581281663354402766848.000000
643795844220426366361485861603143378322895746844285472866304.000000
724640103457629476229144302825366480483383414385109324791808.000000
915199152021439518346974301075288721155711894070294390767616.000000
650957903843325707362625162645095225807314666509483508760576.000000
1013930294272354694947855561035617830225232459819249121099776.000000
2449891543834758249368051805978408268443319337201908395802624.000000
3600328026569434672587427149569581352927623407890949604376576.000000
63979140525747533021065954688203635950560777927151335768064.000000
1405466068346189686822564257531744845867252587258484042498048.000000
1595377707679121409480581360641376461405213948254229492662272.000000
135997466324045466759018011772086301349169524467401888890880.000000
725010848157025347252293968218479143136278043107987290062848.000000
519804615275528366962918994879152926720380868592837934972928.000000
480125331996161451572620587131027951103634259664774436487168.000000
-51330604482285683432619176492601822443726977917016655003648.000000
328352852618919760824679968394011364359426013911342653636608.000000
-144220259494013442373468805074824808481639469285660877127680.000000
-250033009554673784115562956124890083420816382562428375793664.000000
1445020221053894278993310750940788869165307720783306248159232.000000
1288491988002308662024192998769970224750696593878685071704064.000000
848234164633224998087487549006224877879818023264913050304512.000000
2398227364178386277142483222177710125925943438229599386861568.000000
796681993915281251088819997123362956775797407256318878679040.000000
2798416118129368172406321138032945094153985432601395508281344.000000
2330737333735032357934279165163835193996448436949138102288384.000000
1430003250219448990170523312276972946955065656006510936850432.000000
1212251929128226661039806001192586267448114124845000763113472.000000
1224062879214223723681444679305731190447011251710801261625344.000000
1572221060734592734276764635871988991449158661262321135910912.000000
325317388367520439093198515212916366073275666180838415925248.000000
1704682620588945057407635483787757597811165755198365837033472.000000
83136498661552103073524871117322128475921737477380361945088.000000
-131584078078095017578263640769939079617193863375920734142464.000000
541629361503837192010248107382982850708602367824506780647424.000000
1070796540669743076307540842348238427548259849483915676876800.000000
-744786204869571937581075419216647628070234659669167310897152.000000
164336846612242593122951662589059239252310465140182696853504.000000
157153136706879721662490082115886209012496082767709669949440.000000
1670033886043918467316496542232687940516993164229495796793344.000000
1318201515795938883404030247417236052343901044783193436192768.000000
1284030703007494810236920520508089438617885230192258227109888.000000
1215046410178182735815465927518518316110245859712228294393856.000000
899260766929142228539151064257653840648231958531534430928896.000000
1598628217618399540939744372492555316959892856824874682810368.000000
484148037739691122995423651282687337991594239065167241412608.000000
1191803823651732428421289643824992079018016705725765399871488.000000
1752984374510183756325401853383293714132615778618685727440896.000000
1471567825628978495200572462587696607486702364968325321064448.000000
52557002967961517985662315979376457928569640841281374519296.000000
1317295282382842713823710998629666662134583492423902266654720.000000
-655256804961014646419909058665948299657845775076557294927872.000000
1068627072642453623894415840715142064466461635903763817431040.000000
1049058351705216519077720071268207663763250182198574815641600.000000
2413505357700112528670495432321157355478686015192729420562432.000000
-339017822481440666098266358743740721041864745157917629480960.000000
32829461304461695482584093902005426139638404090000916348928.000000