# vtk DataFile Version 2.0
Test
ASCII
DATASET POLYDATA
POINTS 5444 float
0.000000 0.000000 0.000000
13.300000 0.000000 0.000000
15.000000 1.700000 0.000000
15.000000 50.000000 0.000000
0.000000 50.000000 0.000000
15.000000 20.000000 0.000000
0.000000 20.000000 0.000000
0.198507 0.000000 0.000000
0.397015 0.000000 0.000000
0.595522 0.000000 0.000000
0.794030 0.000000 0.000000
0.992537 0.000000 0.000000
1.191045 0.000000 0.000000
1.389552 0.000000 0.000000
1.588060 0.000000 0.000000
1.786567 0.000000 0.000000
1.985075 0.000000 0.000000
2.183582 0.000000 0.000000
2.382090 0.000000 0.000000
2.580597 0.000000 0.000000
2.779104 0.000000 0.000000
2.977612 0.000000 0.000000
3.176119 0.000000 0.000000
3.374627 0.000000 0.000000
3.573134 0.000000 0.000000
3.771642 0.000000 0.000000
3.970149 0.000000 0.000000
4.168657 0.000000 0.000000
4.367164 0.000000 0.000000
4.565672 0.000000 0.000000
4.764179 0.000000 0.000000
4.962687 0.000000 0.000000
5.161194 0.000000 0.000000
5.359701 0.000000 0.000000
5.558209 0.000000 0.000000
5.756716 0.000000 0.000000
5.955224 0.000000 0.000000
6.153731 0.000000 0.000000
6.352239 0.000000 0.000000
6.550746 0.000000 0.000000
6.749254 0.000000 0.000000
6.947761 0.000000 0.000000
7.146269 0.000000 0.000000
7.344776 0.000000 0.000000
7.543284 0.000000 0.000000
7.741791 0.000000 0.000000
7.940299 0.000000 0.000000
8.138806 0.000000 0.000000
8.337313 0.000000 0.000000
8.535821 0.000000 0.000000
8.734328 0.000000 0.000000
8.932836 0.000000 0.000000
9.131343 0.000000 0.000000
9.329851 0.000000 0.000000
9.528358 0.000000 0.000000
9.726866 0.000000 0.000000
9.925373 0.000000 0.000000
10.123881 0.000000 0.000000
10.322388 0.000000 0.000000
10.520896 0.000000 0.000000
10.719403 0.000000 0.000000
10.917910 0.000000 0.000000
11.116418 0.000000 0.000000
11.314925 0.000000 0.000000
11.513433 0.000000 0.000000
11.711940 0.000000 0.000000
11.910448 0.000000 0.000000
12.108955 0.000000 0.000000
12.307463 0.000000 0.000000
12.505970 0.000000 0.000000
12.704478 0.000000 0.000000
12.902985 0.000000 0.000000
13.101493 0.000000 0.000000
13.310689 0.190340 0.000000
13.342623 0.378286 0.000000
13.395398 0.561474 0.000000
13.468353 0.737602 0.000000
13.560569 0.904455 0.000000
13.670886 1.059933 0.000000
13.797918 1.202082 0.000000
13.940067 1.329114 0.000000
14.095545 1.439431 0.000000
14.262398 1.531647 0.000000
14.438526 1.604602 0.000000
14.621714 1.657377 0.000000
14.809660 1.689311 0.000000
15.000000 1.903396 0.000000
15.000000 2.115836 0.000000
15.000000 2.337719 0.000000
15.000000 2.569468 0.000000
15.000000 2.811519 0.000000
15.000000 3.064332 0.000000
15.000000 3.328384 0.000000
15.000000 3.604176 0.000000
15.000000 3.892228 0.000000
15.000000 4.193087 0.000000
15.000000 4.507322 0.000000
15.000000 4.835527 0.000000
15.000000 5.178324 0.000000
15.000000 5.536360 0.000000
15.000000 5.910315 0.000000
15.000000 6.300894 0.000000
15.000000 6.708838 0.000000
15.000000 7.134919 0.000000
15.000000 7.579942 0.000000
15.000000 8.044751 0.000000
15.000000 8.530224 0.000000
15.000000 9.037280 0.000000
15.000000 9.566879 0.000000
15.000000 10.120023 0.000000
15.000000 10.697759 0.000000
15.000000 11.301180 0.000000
15.000000 11.931428 0.000000
15.000000 12.589696 0.000000
15.000000 13.277229 0.000000
15.000000 13.995328 0.000000
15.000000 14.745353 0.000000
15.000000 15.528723 0.000000
15.000000 16.346921 0.000000
15.000000 17.201493 0.000000
15.000000 18.094059 0.000000
15.000000 19.026306 0.000000
15.000000 21.000000 0.000000
15.000000 22.000000 0.000000
15.000000 23.000000 0.000000
15.000000 24.000000 0.000000
15.000000 25.000000 0.000000
15.000000 26.000000 0.000000
15.000000 27.000000 0.000000
15.000000 28.000000 0.000000
15.000000 29.000000 0.000000
15.000000 30.000000 0.000000
15.000000 31.000000 0.000000
15.000000 32.000000 0.000000
15.000000 33.000000 0.000000
15.000000 34.000000 0.000000
15.000000 35.000000 0.000000
15.000000 36.000000 0.000000
15.000000 37.000000 0.000000
15.000000 38.000000 0.000000
15.000000 39.000000 0.000000
15.000000 40.000000 0.000000
15.000000 41.000000 0.000000
15.000000 42.000000 0.000000
15.000000 43.000000 0.000000
15.000000 44.000000 0.000000
15.000000 45.000000 0.000000
15.000000 46.000000 0.000000
15.000000 47.000000 0.000000
15.000000 48.000000 0.000000
15.000000 49.000000 0.000000
14.000000 50.000000 0.000000
13.000000 50.000000 0.000000
12.000000 50.000000 0.000000
11.000000 50.000000 0.000000
10.000000 50.000000 0.000000
9.000000 50.000000 0.000000
8.000000 50.000000 0.000000
7.000000 50.000000 0.000000
6.000000 50.000000 0.000000
5.000000 50.000000 0.000000
4.000000 50.000000 0.000000
3.000000 50.000000 0.000000
2.000000 50.000000 0.000000
1.000000 50.000000 0.000000
0.000000 49.023530 0.000000
0.000000 48.072486 0.000000
0.000000 47.146207 0.000000
0.000000 46.244047 0.000000
0.000000 45.365379 0.000000
0.000000 44.509591 0.000000
0.000000 43.676087 0.000000
0.000000 42.864286 0.000000
0.000000 42.073624 0.000000
0.000000 41.303550 0.000000
0.000000 40.553529 0.000000
0.000000 39.823037 0.000000
0.000000 39.111567 0.000000
0.000000 38.418623 0.000000
0.000000 37.743723 0.000000
0.000000 37.086396 0.000000
0.000000 36.446186 0.000000
0.000000 35.822646 0.000000
0.000000 35.215343 0.000000
0.000000 34.623854 0.000000
0.000000 34.047766 0.000000
0.000000 33.486679 0.000000
0.000000 32.940203 0.000000
0.000000 32.407956 0.000000
0.000000 31.889569 0.000000
0.000000 31.384680 0.000000
0.000000 30.892938 0.000000
0.000000 30.414000 0.000000
0.000000 29.947534 0.000000
0.000000 29.493214 0.000000
0.000000 29.050724 0.000000
0.000000 28.619757 0.000000
0.000000 28.200011 0.000000
0.000000 27.791195 0.000000
0.000000 27.393025 0.000000
0.000000 27.005222 0.000000
0.000000 26.627518 0.000000
0.000000 26.259648 0.000000
0.000000 25.901358 0.000000
0.000000 25.552397 0.000000
0.000000 25.212523 0.000000
0.000000 24.881499 0.000000
0.000000 24.559095 0.000000
0.000000 24.245086 0.000000
0.000000 23.939253 0.000000
0.000000 23.641384 0.000000
0.000000 23.351271 0.000000
0.000000 23.068713 0.000000
0.000000 22.793512 0.000000
0.000000 22.525477 0.000000
0.000000 22.264421 0.000000
0.000000 22.010164 0.000000
0.000000 21.762526 0.000000
0.000000 21.521338 0.000000
0.000000 21.286429 0.000000
0.000000 21.057638 0.000000
0.000000 20.834803 0.000000
0.000000 20.617772 0.000000
0.000000 20.406391 0.000000
0.000000 20.200515 0.000000
0.000000 19.800000 0.000000
0.000000 19.600000 0.000000
0.000000 19.400000 0.000000
0.000000 19.200000 0.000000
0.000000 19.000000 0.000000
0.000000 18.800000 0.000000
0.000000 18.600000 0.000000
0.000000 18.400000 0.000000
0.000000 18.200000 0.000000
0.000000 18.000000 0.000000
0.000000 17.800000 0.000000
0.000000 17.600000 0.000000
0.000000 17.400000 0.000000
0.000000 17.200000 0.000000
0.000000 17.000000 0.000000
0.000000 16.800000 0.000000
0.000000 16.600000 0.000000
0.000000 16.400000 0.000000
0.000000 16.200000 0.000000
0.000000 16.000000 0.000000
0.000000 15.800000 0.000000
0.000000 15.600000 0.000000
0.000000 15.400000 0.000000
0.000000 15.200000 0.000000
0.000000 15.000000 0.000000
0.000000 14.800000 0.000000
0.000000 14.600000 0.000000
0.000000 14.400000 0.000000
0.000000 14.200000 0.000000
0.000000 14.000000 0.000000
0.000000 13.800000 0.000000
0.000000 13.600000 0.000000
0.000000 13.400000 0.000000
0.000000 13.200000 0.000000
0.000000 13.000000 0.000000
0.000000 12.800000 0.000000
0.000000 12.600000 0.000000
0.000000 12.400000 0.000000
0.000000 12.200000 0.000000
0.000000 12.000000 0.000000
0.000000 11.800000 0.000000
0.000000 11.600000 0.000000
0.000000 11.400000 0.000000
0.000000 11.200000 0.000000
0.000000 11.000000 0.000000
0.000000 10.800000 0.000000
0.000000 10.600000 0.000000
0.000000 10.400000 0.000000
0.000000 10.200000 0.000000
0.000000 10.000000 0.000000
0.000000 9.800000 0.000000
0.000000 9.600000 0.000000
0.000000 9.400000 0.000000
0.000000 9.200000 0.000000
0.000000 9.000000 0.000000
0.000000 8.800000 0.000000
0.000000 8.600000 0.000000
0.000000 8.400000 0.000000
0.000000 8.200000 0.000000
0.000000 8.000000 0.000000
0.000000 7.800000 0.000000
0.000000 7.600000 0.000000
0.000000 7.400000 0.000000
0.000000 7.200000 0.000000
0.000000 7.000000 0.000000
0.000000 6.800000 0.000000
0.000000 6.600000 0.000000
0.000000 6.400000 0.000000
0.000000 6.200000 0.000000
0.000000 6.000000 0.000000
0.000000 5.800000 0.000000
0.000000 5.600000 0.000000
0.000000 5.400000 0.000000
0.000000 5.200000 0.000000
0.000000 5.000000 0.000000
0.000000 4.800000 0.000000
0.000000 4.600000 0.000000
0.000000 4.400000 0.000000
0.000000 4.200000 0.000000
0.000000 4.000000 0.000000
0.000000 3.800000 0.000000
0.000000 3.600000 0.000000
0.000000 3.400000 0.000000
0.000000 3.200000 0.000000
0.000000 3.000000 0.000000
0.000000 2.800000 0.000000
0.000000 2.600000 0.000000
0.000000 2.400000 0.000000
0.000000 2.200000 0.000000
0.000000 2.000000 0.000000
0.000000 1.800000 0.000000
0.000000 1.600000 0.000000
0.000000 1.400000 0.000000
0.000000 1.200000 0.000000
0.000000 1.000000 0.000000
0.000000 0.800000 0.000000
0.000000 0.600000 0.000000
0.000000 0.400000 0.000000
0.000000 0.200000 0.000000
6.700761 25.028064 0.000000
6.229170 24.805529 0.000000
6.607110 24.547341 0.000000
9.547749 25.307672 0.000000
9.742595 24.798801 0.000000
10.272176 25.176513 0.000000
6.100012 25.251027 0.000000
1.224575 2.282818 0.000000
1.219488 2.463682 0.000000
1.077587 2.325613 0.000000
13.348300 21.924783 0.000000
12.788640 21.837730 0.000000
13.245270 21.165342 0.000000
13.546660 23.230269 0.000000
13.645078 22.402802 0.000000
14.267919 22.640920 0.000000
12.860216 18.385325 0.000000
13.333203 18.955898 0.000000
12.520632 19.042651 0.000000
12.360329 0.210531 0.000000
12.476850 0.126393 0.000000
1.373725 2.328208 0.000000
0.156653 3.852616 0.000000
0.110702 3.707592 0.000000
0.269922 3.700791 0.000000
11.205310 26.162877 0.000000
11.609077 25.440075 0.000000
11.949248 26.267501 0.000000
12.224028 0.345349 0.000000
12.081323 0.244928 0.000000
12.183796 0.153367 0.000000
10.135658 9.476949 0.000000
[...]
POINT_DATA 5444
SCALARS UX float 1
LOOKUP_TABLE default
449955.420616
2719865.105231
-0.000527
0.000002
1879816.036196
-0.000161
-1327516.963561
-143083.910586
551065.116400
516850.689531
269488.037443
2552108.061819
620876.739682
525657.981025
408186.272018
-68937.890608
-1121677.345431
12821.228219
875087.555711
1351510.778373
1730921.490583
1622565.036139
-61103.565009
465278.959406
863726.767540
595289.536064
575860.157435
575783.936388
580903.969148
580272.657577
592740.548559
586155.942170
586145.256287
598856.879449
671377.130844
251865.345882
377549.225904
755236.626973
559915.612398
581093.407642
583858.632421
583872.190138
347155.002666
344958.420497
345052.051503
351660.872596
349753.971001
349518.828883
331327.658162
274757.684754
202234.563564
13759.490431
-54088.131992
-53434.201904
-53102.883992
-81149.978670
372.413312
104271.118428
106622.452897
131887.835102
181231.764664
248823.382061
344395.221823
481830.828284
654608.660036
836691.108173
986401.744236
918120.510617
1293710.399373
1803538.674661
1852688.081238
1849453.690766
2155732.739837
4126413.658032
6402748.906888
3937398.181377
4248051.435779
3674523.730649
4666187.442001
7076350.522076
8112862.023937
2044467.311420
1213913.995886
1360725.155686
-1037723.590141
322974.084924
0.000942
-0.000511
-0.000820
0.000377
-0.000357
0.000636
-0.000439
0.000311
0.000145
-0.000688
0.000816
0.000440
-0.000677
-0.000267
0.001660
-0.001421
0.000082
-0.001365
0.001573
-0.000362
0.000113
-0.000062
0.000004
-0.000068
0.000044
-0.000123
0.000112
0.000004
-0.000057
0.000153
0.000008
-0.000185
0.000545
-0.000025
0.000065
-0.000105
-0.000098
0.000080
-0.000486
0.001741
-0.002674
0.001449
0.000202
-0.001700
0.004633
-0.005871
0.002802
-0.000542
0.001949
-0.010165
0.037415
-0.053722
0.028841
-0.004803
0.001200
-0.000466
0.000137
-0.000023
0.000007
-0.000004
-0.000001
-0.000001
-0.000000
-0.000000
0.000000
118525.512098
284955.492966
532186.489632
669543.413898
436315.322408
-25939.423963
37799.431896
-6311.622803
37318.752231
806985.757125
1574265.763821
3583032.367047
4011471.295838
1917949.038347
-1085170.643748
2090039.284519
-624088.775290
-524184.137933
-291800.564444
561622.417904
1554855.095368
594044.426261
-128127.262639
-654694.321588
-1093131.792821
1298388.372122
2253997.764724
498895.208679
1929899.318973
1809769.089947
1480806.785133
1307534.558834
1166983.948325
1135911.087462
876487.765094
633359.977104
399250.994306
156983.504640
-340072.993931
-810470.201826
-1009748.090627
-1851458.264714
-2249326.849351
-2639283.268123
-2928361.065413
-2983537.916695
-3548592.932641
-4362749.790318
-4329648.293784
-4461883.197155
-4398615.213170
-4365609.963857
-4189071.702209
-4164967.614051
-3891128.013751
-3819202.568525
-3107230.544293
-2095675.218346
-1258459.379430
171929.633996
-690292.155275
-1556427.137978
-2136959.422970
-2128175.535592
-2400029.314534
-2629643.795183
-2611487.139175
-2411467.463706
-2153820.937580
-1935887.981853
-1756018.809795
-1609822.271418
-1486905.719489
-1389658.935712
-1328483.601576
-1424811.861172
-1828152.720484
-2096911.875068
-1587292.651167
-1372163.918686
-1311617.508783
-1330199.314072
-1369878.833709
-1415134.881416
-1464987.028206
-1504624.163615
-1534461.243098
-1552935.212108
-1561848.012086
-1554473.437818
-1530482.226284
-1481452.103485
-1406014.496407
-1305786.309423
-1179279.337662
-1032279.326201
-870310.263740
-698587.318319
-525937.384960
-353872.404429
-183547.564097
-17626.891654
145414.952199
306398.499975
466263.281902
614588.796511
747568.666305
874537.539710
985668.279994
1036086.789599
1086142.090037
1143103.419412
1199318.528705
1211846.749672
1216210.227583
1219086.445287
1222322.756822
1175321.839933
1062226.215799
1121873.051051
1203124.975028
1207235.731588
1109287.391864
1353821.038464
1279052.335109
1278649.707338
1279689.048581
1293899.211592
1511058.802719
1737300.172859
1485970.494882
1166211.598371
1198387.186745
1475552.388701
1376334.838604
1537857.119726
1517879.538034
1479291.044354
1455230.495595
1490644.933703
1556263.360899
1623482.292250
1693112.470616
1683841.194384
1572716.374126
1239431.704049
667427.090486
68903.855503
705808.927098
699828.241111
1001958.442509
870626.963461
874325.509261
895604.612812
1242259.263209
1727772.369932
2361639.027477
2747062.438061
2301844.282772
2066923.637132
2906024.937052
4010455.200859
4865931.678423
5572974.931851
6146598.028787
5663449.658836
6458105.267546
4078141.527344
2331107.829386
1224154.986554
-60795.002101
678480.939846
218391.660886
-6562900.447849
-7496640.629815
-7585511.197406
-2624000.314918
-2509011.181471
-1184246.798867
-6381086.429715
-461169.182071
3219345.178410
1797521.198904
-2549788.948168
-848254.709786
-3400726.280299
-1368827.610171
-2274921.909203
-1627063.356838
1132014.409336
-297700.515143
-738185.215705
1593535.910291
1706229.080642
617983.106058
897743.710368
1224937.280342
648086.855591
-530261.461044
-806283.407671
-267641.458515
1630043.277287
1193310.988301
1673207.940799
1655533.991990
905912.246429
45556.621860
-929441.644203
-52345.936347
-133361.918034
-152565.807914
759671.024569
979664.844728
1047963.574319
531157.625098
-1272059.209255
-1248567.864980
-1275543.099835
311889.861021
390950.327816
375957.646800
407813.356273
224979.050344
637730.368160
993681.260500
939534.469537
1633385.666208
1499677.560423
1487392.601479
1726021.816765
955071.486786
935148.894870
977002.155906
770360.953546
783878.548147
645624.900990
1306982.813259
269500.191744
-953526.127203
-415816.637621
1106692.359129
1132722.571319
1139385.387997
1098196.863564
-1266348.162096
-1373455.687811
376436.724918
413214.360030
420911.228530
-1578925.389597
-2268587.321982
-911942.373415
-26403.114399
845526.266684
-1275265.170584
-374578.873204
-1412247.112682
-222270.376782
528421.255191
-191228.747038
-994937.440391
-1742691.319698
1356476.854040
2573685.523791
2840710.038132
4514090.732891
2423679.328161
-2551421.988522
5096707.092863
-3812649.376370
5258147.529142
2518601.465957
1673706.346155
-659754.167580
1116955.594476
1133545.741702
1104132.161280
1199977.980618
3491573.529465
2797758.913007
3772849.251627
277268.990130
760423.357816
351043.467934
-3843758.470368
1152128.050851
2510224.473638
-904118.802621
-1331523.228440
-225660.727601
147857.059219
520764.772097
378993.989811
460572.726233
-349351.893449
586739.742519
563131.700061
-561331.699120
661598.496574
1073515.491005
1301721.877400
1565499.250552
1052500.914919
2691263.553206
2942902.451664
1134961.843000
-1594209.526653
-1747369.639335
-1613909.368964
-757499.926894
-749569.414578
-536618.629509
-529236.350402
391624.094376
731063.579000
-183441.383718
1207221.027296
891647.073308
449393.053552
417027.848220
511775.435798
443832.755401
2043098.516713
252474.085839
-1268152.733841
157170.556411
588157.040998
625157.342594
796942.056171
-1630502.430584
-298405.651542
-644446.406875
-1394452.593605
160791.632085
-208467.727084
-518726.365048
-88221.160158
-720714.155038
-359412.759907
4871763.664122
438911.784718
-1655273.258638
-601571.964434
-1300802.269589
-2181.511979
-326734.489554
-107415.173082
221667.764759
207596.428047
769700.080913
2938467.175083
500500.891907
1257932.602240
389578.156750
696160.178785
-20686.567926
43777.372053
-3922.463679
-529643.634338
-544270.932788
-312698.153855
64073.621920
1783454.951750
1586819.561510
2011624.303610
1659518.051613
790762.505736
-296288.354633
1018155.455710
-616776.188276
927342.835290
-1151230.808956
-1279742.575860
-1283478.425747
670643.620956
1248985.537774
1253341.103030
1253295.721595
1581218.255821
1168205.451020
1213775.686262
1255004.414427
1248627.436660
1446348.508233
1185249.258882
1169983.239245
1800827.823234
1474561.095814
1161131.838734
579705.489483
2953996.298177
-1288620.224964
854377.266238
285989.864457
369232.296521
337653.906899
29737.533560
333142.979101
448937.372201
2079272.993357
-450684.682786
-459030.561579
-201923.882281
135103.872930
-185917.867973
693786.935742
-943848.610772
1667437.064247
1478337.650740
-509401.687568
-1040310.818431
-578629.296771
-467586.283349
1197316.248464
1180286.640880
1340055.600746
1244530.200152
497164.350545
598304.867756
566524.732820
1233146.092901
846371.502543
1155386.766802
155912.345091
328929.931049
439109.559664
459016.559318
871161.802982
795130.551906
835903.832607
789563.208738
-1643895.793846
-1276747.435557
-1156967.912254
-629866.573053
-1473565.071693
-1927757.383279
-2189367.965246
-2044688.424788
910102.711238
881730.753722
-1381976.253071
-1308075.146097
-1359088.230862
1073658.122523
1371541.364022
1059250.696962
279465.610925
1389368.596157
2138416.184267
-1007669.391458
-1851806.236493
788030.294904
-496258.201442
-118597.667998
340173.550018
91422.460256
400186.483434
-431633.489309
82622.774465
878.142423
-136940.677600
549188.212953
383284.159226
915427.413126
951815.613116
1151042.460100
820587.003355
831515.978077
1556820.504577
1431911.101611
1551311.900704
1322617.937395
1384332.241406
1352690.048919
1408787.502047
1506481.836476
-1076473.873556
-1478287.760257
-1083083.792020
-2121267.639893
-1440045.061649
1234150.847966
1291311.587289
263293.312294
322392.644796
463235.432760
305633.039570
485837.543327
1379796.916810
-2413208.146726
-822358.383258
332086.377973
3404484.553021
696266.202227
1664053.540554
-852846.866662
1103844.095586
1043389.695337
1046936.143078
1006529.222122
1514803.281264
1500716.752652
1399229.422432
1420077.403174
-683623.184842
-846998.557351
-1162862.726008
8141.412891
-855337.399179
-460579.619862
626345.504663
-1168567.253576
-2441429.778944
-1680442.255769
1327277.503592
408616.379596
3892782.816097
-69210.845446
111739.474444
2430628.617219
-2957.897165
2793190.230955
303383.610793
1072629.147890
1156176.363428
1161177.828877
-22739.878450
896461.379927
-351006.864167
1112804.917818
1064811.091547
917039.658079
896727.909533
1233464.940349
1115675.882738
1081873.736800
842399.580908
680644.397712
633529.702491
341538.576399
397282.137911
437267.709692
596780.156399
-115570.690286
-1444.332405
1959653.292913
-526628.033492
-487280.437975
-5581949.252768
-2297506.901567
-4921419.193381
-5002074.249979
-5253231.873164
-1753386.704634
-2333205.843665
701755.311200
323527.066278
518796.758444
1034073.988341
144067.393688
-217371.134518
997489.759997
-208378.272737
298273.209490
166001.781120
271906.368892
-1487167.111156
-1542826.633383
-1412114.963230
233772.119648
211149.925496
-555836.584491
559841.620072
776615.562518
333374.060504
691447.612532
-1420959.192510
-1481277.888107
-1350847.839791
-2377954.953854
-2835305.157752
-2512952.790662
1057424.749951
1187218.505808
1118742.189860
1453981.017128
1177509.345573
-2827409.278661
-3326671.751868
-3131187.174466
811565.733920
-1986228.080801
500211.416070
-393751.508339
-74654.889630
-48744.011215
437551.851370
463598.218234
557509.408884
239593.588509
547033.930489
413768.182915
808031.579290
378265.173517
-106549.945841
-112928.615365
-60495.452895
78682.814401
1428934.938994
2934628.262375
1011844.164209
619231.029716
515717.045390
527598.814893
583058.742594
90351.524121
-101280.900717
-419.231803
1553230.856508
1365143.089348
1453717.847084
1500222.805263
1680639.402429
1935729.824669
1246526.132996
-109735.749818
-113856.117805
-102675.025520
-531463.141186
1155.921120
174122.152860
-256078.767838
-1344555.495214
-2524298.851250
21624.766545
521978.253554
1147751.396697
450404.154732
631324.885070
586608.575105
536852.743541
524086.576907
557978.024756
660358.242530
479516.998648
232067.110793
359784.583508
1431193.053762
2286192.741326
1548265.249059
1717978.331201
927988.482492
-195689.641862
83139.275384
-1500518.346327
-267607.067759
-1081254.502486
-2308150.234290
-2194832.367108
1318768.580541
2344976.978850
1255562.342623
711410.900487
68976.328082
1282818.652472
-6185887.498196
-5137568.535181
-2645496.458922
285613.042332
-58061.656671
15389.288483
709128.794281
247317.996816
466424.700304
157189.770393
553168.955847
393943.933920
3562138.829303
7084496.352438
578713.746315
809677.168994
446683.775104
734159.974189
1348572.604946
728538.232113
1283434.860719
557601.706067
-2876607.373507
1714083.752831
-1026944.397345
2852.365372
-881535.337705
214239.483248
1024646.294079
1152896.632240
1155697.959280
-911057.330237
-1128310.110230
2704924.363664
903707.766265
1149773.960468
1834373.943151
1677485.371540
-69343.621187
921421.188190
974169.208956
920696.814229
-299996.500865
-4288942.539599
-4422279.483702
-794514.217837
-638832.421445
-1170123.581737
-971036.784701
-4527753.637204
-4174770.382968
-4450547.996364
-4306778.844600
2370783.942055
1732329.402974
234174.270484
156070.553034
67858.806280
1383914.277307
1358149.127400
1826135.900961
810544.963902
23786.958937
3107402.781803
979074.941753
1787605.993639
-177863.960955
300405.676748
153205.008362
-242883.939323
-480657.298047
1337284.528490
1153759.490160
577639.218513
576457.458064
3494554.676773
295303.839565
-521774.711407
1252364.594429
1044866.330405
-1411830.904191
734177.812284
-154657.587168
1971188.358465
65633.039229
-4010.501296
-658397.846132
-104464.509916
-101094.746529
26223.793324
-791814.781488
1366454.687187
224794.928435
-1349092.775277
-1966974.726877
-1948752.424959
-1959470.605579
-148557.679110
715810.607298
946139.862163
-1240277.793790
-687137.536538
-554612.648838
-773919.538028
863686.340273
199965.462081
1367054.952845
1114165.490099
-1108230.437396
32940.386772
-691809.202782
2430112.002241
1764412.344918
1685913.181519
-366665.095524
17317.627350
-243341.888791
-328763.509146
-2377779.781401
-1954218.059276
-2176588.014250
725475.954387
-392419.668881
-1907352.752640
1528203.861984
1618610.446269
1627859.747209
-2144031.388692
-1267628.066244
408709.805866
368.160803
191.824619
4.545139
-71416.138599
528804.951363
1071916.272307
1136892.488304
681562.463336
483779.782777
824394.599874
1792938.147896
1811575.449155
2145071.494196
-689062.650925
536465.631668
-769804.739422
2611168.255004
2406417.488363
448469.692044
-1096101.184877
-926453.610842
1387485.494633
-2153867.510082
2061662.288310
1641499.202686
1567537.022382
1721553.760966
1238181.658177
1711504.068674
1538397.255258
1839319.839840
1680811.802098
827602.615084
1197249.774327
1192505.102098
7931357.115396
5005925.187275
4322395.667610
7284463.201445
1144315.841924
1628773.509521
1370843.057951
20823.872904
-1294867.147824
-1818923.889893
2029386.670992
1992543.281623
-67778.854033
-1156709.578770
-1398431.988235
-1875059.258052
-4020929.630731
-3743915.657820
-3852766.995701
-3923776.337176
-34464.782536
1937203.217962
-132689.632291
2242227.563951
662537.592606
1429235.700187
1305539.001759
-1156422.806116
-1321207.918228
-1343288.376297
-1390756.339389
-3481467.664026
-1994940.184336
-2887015.148130
979980.952651
1215083.991476
1462788.619585
-76716.270989
13290.617776
-88738.254841
1313261.141018
1291173.771910
1272960.785323
545396.775961
498490.940345
695858.219341
175134.892571
-1196696.194941
-6870414.924725
-6621122.723013
-316033.372153
-4564465.656541
1195271.855036
1191754.821393
1185875.924506
2006926.451446
2568981.522434
1498206.500126
1175930.129093
1080033.011470
1070957.836335
649885.056787
-114280.259224
-150420.156303
-248570.848193
-351217.732343
1370862.787532
1213918.285386
344884.113374
-149941.573911
-1379595.627646
57696.087957
-1373513.445885
-1308359.331623
-1056975.249184
-1486960.635035
-1101601.131786
41405.528535
-590894.982141
-109311.548899
1756756.269345
1812267.672389
3280883.434973
1426858.531043
2307941.188505
1823516.126539
1600018.062499
2727001.339996
2969619.096304
-115685.129895
47522.423071
-313536.766720
329838.841864
-201598.119433
-2262549.720740
269185.169550
463102.436678
209348.395551
-576070.838348
1095116.265896
645169.090191
109500.366282
-529915.527239
-1787409.727944
-654555.667747
-1259456.719031
2302895.994233
1279984.465321
1779987.627518
-1486241.855946
-1497159.465352
-1795290.428772
102189.466562
197754.893347
126736.999102
123032.315670
365109.179398
122902.334410
69362.968190
-132352.418817
159660.990902
121910.877256
-40253.865438
9567.723758
1530680.108785
1066799.556100
1444925.714972
1313725.702170
930686.049417
825571.815863
69823.634797
-1936016.553953
-26929.731372
1559089.727724
1021614.818315
835308.316441
1066610.708184
-3039392.821461
-3203212.515275
-5429314.473996
-1201129.479577
-1012316.441350
-1310270.114834
-727625.649248
895260.056079
946286.958450
-1369204.204021
451584.525314
-3125091.977065
-1214061.712494
-418706.423560
-374585.240666
419836.906447
1575610.251538
233705.980216
1876002.111330
2060886.376005
986737.520987
-406513.857911
-369180.238294
-679293.194510
-334916.669537
384667.219271
406352.799552
-98454.032714
-1742550.675424
-16938.382800
-147739.405928
3650347.949837
1932944.798159
1467185.891981
1043471.469363
-925478.488093
-1669186.566822
1126120.031848
-1581600.277200
-1604332.051306
-1608601.406429
1187786.449333
1178303.985864
-1591925.436024
1686984.883930
1107365.382764
1679298.015394
-178529.733708
707255.296748
528985.261589
501252.362897
617124.264435
654553.008531
520162.326358
549227.091789
631424.254603
566780.335772
-2040887.327280
1410183.702233
755812.929864
651817.317575
753820.770431
-671964.049311
-150617.407738
-331126.857571
1477769.074640
2205131.540069
1350675.701320
1273371.667086
-328986.728387
-597645.590359
514976.581577
-25895.068783
-183361.120672
3196193.322912
3475863.514036
1507773.426873
-1085269.496478
39766.546704
1337249.831186
1387428.109993
1550493.999252
-419118.755414
1558222.878318
1491820.532230
1517445.919604
1327751.886626
192127.498792
1185151.555108
1203625.377734
1211193.326877
1168781.432879
1368662.267155
959260.922510
212409.261199
1824913.592329
352598.973513
1215224.972578
1647647.812780
-1922857.337756
-1836174.287478
-1886525.418272
468161.828552
309754.007308
-1829391.738084
-2060702.338301
-1911340.071299
-1997313.905923
-2074284.859558
-1988346.122643
-1931813.067396
4082934.503922
4067613.682390
3342296.592813
893358.591248
1175344.738963
5215551.235777
1612759.574341
2032560.921511
1333773.463553
1301185.539113
1404587.305201
1157073.599090
771373.844726
1781285.341445
785743.039130
972594.612451
956072.557811
997544.081915
987676.901840
-40848.712770
93064.631446
-1064012.462379
640683.741110
-1114534.141746
1799202.691026
1895845.938274
1767836.851295
2144816.584436
-1640978.888088
-1700926.888285
-1897305.181611
-1564023.019377
-79056.290815
-853250.988890
-303291.919306
757837.822177
548232.160914
722167.406554
968098.505653
527406.882887
-8191.734456
-545596.450634
-152664.315677
1940533.667661
-290299.250342
-166274.151995
-257712.840863
43254.714336
1059740.605277
827471.308957
1174585.338468
1440583.561486
634557.495082
-1027005.885751
-1160280.078996
-1081931.371246
-291184.938731
-579896.167856
-557671.454328
-786371.089939
507430.478116
528681.533468
2111495.545893
55648.312080
-29923.737892
134568.944834
-160211.428601
125090.377779
1459293.146548
-2387568.486821
-2266553.112030
5220893.339377
-1051231.925407
-1675307.153320
-2500016.687105
-1825883.487209
980411.972888
1031288.175371
988803.947713
-3130024.645675
490969.141118
1195292.881869
1220118.323586
1139720.085339
1148020.834109
-1586490.730878
-1709491.523091
-1256357.820470
276720.732929
-329527.504402
1383785.463939
-1740946.329490
958668.015606
283639.391231
-3831.670826
-2179988.718854
735443.260314
726503.092436
636484.069805
552441.350151
434659.665711
-477719.930475
95078.643227
3297026.484212
1526767.182438
1847622.370270
-1273195.609211
1591659.297146
-1254006.895584
2825967.987371
1050745.479658
2743616.908810
971505.239175
2090535.369663
1468647.348553
1847416.507869
-746379.916375
3695944.889605
547830.430946
-1392489.997397
1343179.997232
128902.234804
-1846870.917785
2529046.064645
2167974.069209
2040399.417449
1568726.850813
-2105406.692296
-2297051.848599
-1917147.933101
-3562522.634847
-586058.507459
4281269.739852
3572645.573052
119353.260524
-331093.937213
1564652.185519
958632.361406
1681497.205160
15.179449
1240495.622777