# vtk DataFile Version 2.0
Test
ASCII
DATASET POLYDATA
POINTS 1161 float
0.000000 0.000000 0.000000
13.600000 0.000000 0.000000
15.000000 1.400000 0.000000
15.000000 50.000000 0.000000
0.000000 50.000000 0.000000
0.962136 0.000000 0.000000
1.863013 0.000000 0.000000
2.706530 0.000000 0.000000
3.496339 0.000000 0.000000
4.235861 0.000000 0.000000
4.928297 0.000000 0.000000
5.576644 0.000000 0.000000
6.183711 0.000000 0.000000
6.752126 0.000000 0.000000
7.284349 0.000000 0.000000
7.782685 0.000000 0.000000
8.249292 0.000000 0.000000
8.686190 0.000000 0.000000
9.095269 0.000000 0.000000
9.478303 0.000000 0.000000
9.836948 0.000000 0.000000
10.172758 0.000000 0.000000
10.487187 0.000000 0.000000
10.781596 0.000000 0.000000
11.057260 0.000000 0.000000
11.315372 0.000000 0.000000
11.557049 0.000000 0.000000
11.783339 0.000000 0.000000
11.995221 0.000000 0.000000
12.193612 0.000000 0.000000
12.379372 0.000000 0.000000
12.553304 0.000000 0.000000
12.716161 0.000000 0.000000
12.868650 0.000000 0.000000
13.011429 0.000000 0.000000
13.145117 0.000000 0.000000
13.270294 0.000000 0.000000
13.387500 0.000000 0.000000
13.497244 0.000000 0.000000
13.600719 0.044872 0.000000
13.602876 0.089698 0.000000
13.606469 0.134432 0.000000
13.611494 0.179028 0.000000
13.617946 0.223440 0.000000
13.625817 0.267622 0.000000
13.635101 0.311529 0.000000
13.645787 0.355116 0.000000
13.657865 0.398339 0.000000
13.671322 0.441152 0.000000
13.686144 0.483511 0.000000
13.702317 0.525374 0.000000
13.719822 0.566697 0.000000
13.738644 0.607437 0.000000
13.758761 0.647554 0.000000
13.780154 0.687005 0.000000
13.802800 0.725750 0.000000
13.826677 0.763749 0.000000
13.851759 0.800963 0.000000
13.878021 0.837355 0.000000
13.905436 0.872886 0.000000
13.933976 0.907520 0.000000
13.963611 0.941221 0.000000
13.994311 0.973956 0.000000
14.026044 1.005689 0.000000
14.058779 1.036389 0.000000
14.092480 1.066024 0.000000
14.127114 1.094564 0.000000
14.162645 1.121979 0.000000
14.199037 1.148241 0.000000
14.236251 1.173323 0.000000
14.274250 1.197200 0.000000
14.312995 1.219846 0.000000
14.352446 1.241239 0.000000
14.392563 1.261356 0.000000
14.433303 1.280178 0.000000
14.474626 1.297683 0.000000
14.516489 1.313856 0.000000
14.558848 1.328678 0.000000
14.601661 1.342135 0.000000
14.644884 1.354213 0.000000
14.688471 1.364899 0.000000
14.732378 1.374183 0.000000
14.776560 1.382054 0.000000
14.820972 1.388506 0.000000
14.865568 1.393531 0.000000
14.910302 1.397124 0.000000
14.955128 1.399281 0.000000
15.000000 2.391837 0.000000
15.000000 3.383673 0.000000
15.000000 4.375510 0.000000
15.000000 5.367347 0.000000
15.000000 6.359184 0.000000
15.000000 7.351020 0.000000
15.000000 8.342857 0.000000
15.000000 9.334694 0.000000
15.000000 10.326531 0.000000
15.000000 11.318367 0.000000
15.000000 12.310204 0.000000
15.000000 13.302041 0.000000
15.000000 14.293878 0.000000
15.000000 15.285714 0.000000
15.000000 16.277551 0.000000
15.000000 17.269388 0.000000
15.000000 18.261224 0.000000
15.000000 19.253061 0.000000
15.000000 20.244898 0.000000
15.000000 21.236735 0.000000
15.000000 22.228571 0.000000
15.000000 23.220408 0.000000
15.000000 24.212245 0.000000
15.000000 25.204082 0.000000
15.000000 26.195918 0.000000
15.000000 27.187755 0.000000
15.000000 28.179592 0.000000
15.000000 29.171429 0.000000
15.000000 30.163265 0.000000
15.000000 31.155102 0.000000
15.000000 32.146939 0.000000
15.000000 33.138776 0.000000
15.000000 34.130612 0.000000
15.000000 35.122449 0.000000
15.000000 36.114286 0.000000
15.000000 37.106122 0.000000
15.000000 38.097959 0.000000
15.000000 39.089796 0.000000
15.000000 40.081633 0.000000
15.000000 41.073469 0.000000
15.000000 42.065306 0.000000
15.000000 43.057143 0.000000
15.000000 44.048980 0.000000
15.000000 45.040816 0.000000
15.000000 46.032653 0.000000
15.000000 47.024490 0.000000
15.000000 48.016327 0.000000
15.000000 49.008163 0.000000
14.000000 50.000000 0.000000
13.000000 50.000000 0.000000
12.000000 50.000000 0.000000
11.000000 50.000000 0.000000
10.000000 50.000000 0.000000
9.000000 50.000000 0.000000
8.000000 50.000000 0.000000
7.000000 50.000000 0.000000
6.000000 50.000000 0.000000
5.000000 50.000000 0.000000
4.000000 50.000000 0.000000
3.000000 50.000000 0.000000
2.000000 50.000000 0.000000
1.000000 50.000000 0.000000
0.000000 48.979592 0.000000
0.000000 47.959184 0.000000
0.000000 46.938776 0.000000
0.000000 45.918367 0.000000
0.000000 44.897959 0.000000
0.000000 43.877551 0.000000
0.000000 42.857143 0.000000
0.000000 41.836735 0.000000
0.000000 40.816327 0.000000
0.000000 39.795918 0.000000
0.000000 38.775510 0.000000
0.000000 37.755102 0.000000
0.000000 36.734694 0.000000
0.000000 35.714286 0.000000
0.000000 34.693878 0.000000
0.000000 33.673469 0.000000
0.000000 32.653061 0.000000
0.000000 31.632653 0.000000
0.000000 30.612245 0.000000
0.000000 29.591837 0.000000
0.000000 28.571429 0.000000
0.000000 27.551020 0.000000
0.000000 26.530612 0.000000
0.000000 25.510204 0.000000
0.000000 24.489796 0.000000
0.000000 23.469388 0.000000
0.000000 22.448980 0.000000
0.000000 21.428571 0.000000
0.000000 20.408163 0.000000
0.000000 19.387755 0.000000
0.000000 18.367347 0.000000
0.000000 17.346939 0.000000
0.000000 16.326531 0.000000
0.000000 15.306122 0.000000
0.000000 14.285714 0.000000
0.000000 13.265306 0.000000
0.000000 12.244898 0.000000
0.000000 11.224490 0.000000
0.000000 10.204082 0.000000
0.000000 9.183673 0.000000
0.000000 8.163265 0.000000
0.000000 7.142857 0.000000
0.000000 6.122449 0.000000
0.000000 5.102041 0.000000
0.000000 4.081633 0.000000
0.000000 3.061224 0.000000
0.000000 2.040816 0.000000
0.000000 1.020408 0.000000
13.909350 0.941829 0.000000
14.008163 30.163265 0.000000
14.008163 34.130612 0.000000
14.008163 40.081633 0.000000
14.008163 16.277551 0.000000
14.008163 20.244898 0.000000
14.008163 24.212245 0.000000
14.008163 8.342857 0.000000
9.817943 0.353805 0.000000
11.775871 0.218822 0.000000
1.020408 30.612245 0.000000
1.020408 40.816327 0.000000
1.020408 24.489796 0.000000
1.020408 20.408163 0.000000
1.020408 16.326531 0.000000
1.018362 11.223256 0.000000
1.019479 36.734114 0.000000
7.766240 0.481890 0.000000
13.744884 0.708217 0.000000
8.000000 49.000000 0.000000
12.710787 0.157483 0.000000
13.643785 0.498333 0.000000
0.966982 6.081341 0.000000
5.555248 0.626951 0.000000
1.020408 44.897959 0.000000
14.008163 45.040816 0.000000
14.008163 4.375510 0.000000
14.135230 1.157510 0.000000
1.110406 3.998402 0.000000
13.581910 0.276906 0.000000
4.000000 49.000000 0.000000
11.000000 49.000000 0.000000
3.468805 0.753815 0.000000
13.286828 0.128125 0.000000
13.571292 0.182798 0.000000
14.008163 47.024490 0.000000
14.008163 11.318367 0.000000
1.020408 47.959184 0.000000
13.986969 1.039883 0.000000
11.033365 0.256493 0.000000
12.375655 0.180019 0.000000
1.020408 34.693878 0.000000
1.020408 28.571429 0.000000
1.020408 14.285714 0.000000
14.008163 13.302041 0.000000
14.008163 26.195918 0.000000
14.008163 36.114286 0.000000
14.008163 42.065306 0.000000
13.000000 49.000000 0.000000
9.061761 0.377165 0.000000
13.846846 0.875143 0.000000
13.602565 0.367194 0.000000
14.330468 1.278355 0.000000
0.985135 1.963183 0.000000
1.848016 0.860187 0.000000
13.006717 0.138067 0.000000
6.733368 0.549656 0.000000
13.981312 2.366987 0.000000
14.517684 1.371589 0.000000
14.008163 5.367347 0.000000
13.502952 0.103492 0.000000
14.008163 6.359184 0.000000
1.012223 8.075156 0.000000
2.000000 49.000000 0.000000
10.466507 0.317468 0.000000
4.903734 0.664259 0.000000
14.008163 48.016327 0.000000
1.020408 46.938776 0.000000
1.020408 43.877551 0.000000
1.020408 42.857143 0.000000
1.020408 18.367347 0.000000
1.020408 22.448980 0.000000
1.020408 32.653061 0.000000
1.020408 27.551020 0.000000
1.020408 38.775510 0.000000
1.020408 26.530612 0.000000
1.020408 13.265306 0.000000
1.020408 10.204082 0.000000
9.000026 48.999914 0.000000
6.000000 49.000000 0.000000
14.008163 43.057143 0.000000
14.008163 38.097959 0.000000
14.008163 27.187755 0.000000
14.008163 18.261224 0.000000
14.008163 21.236735 0.000000
14.008163 32.146939 0.000000
14.008163 28.179592 0.000000
14.008163 14.293878 0.000000
14.008163 22.228571 0.000000
14.008163 9.334694 0.000000
14.004099 49.004099 0.000000
1.010098 48.989902 0.000000
13.558143 0.093291 0.000000
0.955988 0.955988 0.000000
8.662374 0.425726 0.000000
12.184441 0.198708 0.000000
13.663594 0.544206 0.000000
13.702388 0.624737 0.000000
13.617517 0.413610 0.000000
13.792566 0.798406 0.000000
11.548133 0.250352 0.000000
14.588204 1.384948 0.000000
14.681162 1.411235 0.000000
13.040022 8.144516 0.000000
13.014441 27.185869 0.000000
13.013181 20.242544 0.000000
13.014441 13.300155 0.000000
2.032435 11.216109 0.000000
2.038869 28.569481 0.000000
9.094026 0.740465 0.000000
12.393614 0.391054 0.000000
5.548361 1.269868 0.000000
13.617800 0.568998 0.000000
13.014768 42.063747 0.000000
7.999729 47.999729 0.000000
2.036314 44.892981 0.000000
13.140146 4.499330 0.000000
14.634824 1.474846 0.000000
13.571037 0.432035 0.000000
11.842029 0.443618 0.000000
1.894544 1.771554 0.000000
14.114823 3.610783 0.000000
13.394522 0.087201 0.000000
13.150234 0.115928 0.000000
0.994902 2.908324 0.000000
12.871309 0.135408 0.000000
0.983321 5.064954 0.000000
13.097446 6.278064 0.000000
0.934281 7.060694 0.000000
4.199943 0.690491 0.000000
2.699404 0.770870 0.000000
14.007220 7.350077 0.000000
1.002133 8.995361 0.000000
2.036784 47.955152 0.000000
6.151143 0.575397 0.000000
1.019139 45.917099 0.000000
2.037362 43.875442 0.000000
2.038869 27.549073 0.000000
1.019435 41.835762 0.000000
1.019435 19.386782 0.000000
1.019435 35.713313 0.000000
1.019435 31.631680 0.000000
1.019435 17.345966 0.000000
1.019435 25.509231 0.000000
1.019435 12.243925 0.000000
1.019435 29.590864 0.000000
1.019435 21.427599 0.000000
1.019435 37.754129 0.000000
1.019435 39.794946 0.000000
1.019435 23.468415 0.000000
1.019435 33.672497 0.000000
1.019435 15.305150 0.000000
11.999464 49.000536 0.000000
10.000001 48.999999 0.000000
7.001010 48.998990 0.000000
14.007547 44.048363 0.000000
[...]
POINT_DATA 1161
SCALARS UX float 1
LOOKUP_TABLE default
3.044525
0.821210
0.000000
0.000000
2.924805
2.859379
2.686089
2.524166
2.373031
2.232161
2.101006
1.979043
1.865749
1.760641
1.663270
1.573197
1.490081
1.413496
1.343043
1.278537
1.219535
1.165762
1.117133
1.073363
1.034044
0.999183
0.968387
0.941623
0.918598
0.899011
0.882635
0.869364
0.858809
0.850558
0.844579
0.839564
0.836403
0.831706
0.828011
0.820481
0.818588
0.816919
0.813463
0.810099
0.804899
0.799946
0.792992
0.785768
0.777872
0.768648
0.758962
0.748537
0.737058
0.725147
0.711978
0.698518
0.684202
0.669150
0.653466
0.637185
0.620207
0.602245
0.583803
0.564640
0.545061
0.524946
0.504482
0.483344
0.461333
0.439509
0.416964
0.393596
0.370428
0.345818
0.321852
0.297121
0.271690
0.246894
0.221456
0.195612
0.170402
0.144992
0.120104
0.095185
0.070741
0.046348
0.022694
0.000000
0.000000
0.000000
0.000000
0.000000
0.000000
0.000000
0.000000
0.000000
0.000000
0.000000
0.000000
0.000000
0.000000
0.000000
0.000000
0.000000
0.000000
0.000000
0.000000
0.000000
0.000000
0.000000
0.000000
0.000000
0.000000
0.000000
0.000000
0.000000
0.000000
0.000000
0.000000
0.000000
0.000000
0.000000
0.000000
0.000000
0.000000
0.000000
0.000000
0.000000
0.000000
0.000000
0.000000
0.000000
0.000000
0.000000
0.000000
0.194960
0.389922
0.584886
0.779855
0.974829
1.169811
1.364798
1.559789
1.754787
1.949788
2.144793
2.339798
2.534802
2.729804
2.924748
2.924690
2.924630
2.924563
2.924487
2.924400
2.924301
2.924186
2.924056
2.923910
2.923746
2.923565
2.923366
2.923147
2.922912
2.922665
2.922405
2.922135
2.921862
2.921597
2.921322
2.921073
2.920881
2.920773
2.920754
2.920851
2.921089
2.921514
2.922186
2.923181
2.924593
2.926461
2.928928
2.932039
2.935944
2.940697
2.946434
2.953114
2.960850
2.969690
2.979427
2.989849
3.000850
3.011786
3.022166
3.030975
3.037857
3.042399
0.604735
0.192830
0.193038
0.193249
0.192537
0.192358
0.192470
0.194425
1.220760
0.939835
2.722692
2.725065
2.721244
2.722297
2.728609
2.753112
2.724519
1.574817
0.705412
1.364777
0.855909
0.766993
2.813141
1.981938
2.725508
0.193338
0.201967
0.467962
2.808289
0.806780
2.144748
0.779849
2.377277
0.832004
0.816230
0.193357
0.193487
2.725713
0.549975
1.035423
0.879917
2.723851
2.722067
2.735473
0.193011
0.192585
0.193122
0.193292
0.389919
1.347372
0.637896
0.793557
0.357485
2.849004
2.687895
0.841343
1.762899
0.249674
0.246735
0.196460
0.825041
0.195364
2.782336
2.534749
1.118085
2.104581
0.193363
2.725652
2.725419
2.725317
2.724485
2.721409
2.723299
2.721763
2.724739
2.721510
2.740187
2.760610
1.169790
1.754755
0.193307
0.193193
0.192651
0.192396
0.192369
0.192942
0.192693
0.192798
0.192391
0.194003
0.194160
2.727780
0.822079
2.859166
1.416102
0.896723
0.755271
0.732886
0.784676
0.671311
0.966635
0.210988
0.159464
0.385641
0.385677
0.385374
0.386520
2.554110
2.523231
1.337761
0.867378
1.979793
0.750861
0.386888
1.364797
2.527405
0.381364
0.161925
0.783398
0.923656
2.675054
0.183775
0.830695
0.837171
2.840517
0.847772
2.821432
0.377516
2.808443
2.238005
2.524586
0.195627
2.775058
2.527519
1.870705
2.725832
2.527110
2.522879
2.725388
2.723364
2.724293
2.723189
2.726418
2.721526
2.746151
2.722579
2.721922
2.724737
2.725101
2.721453
2.723773
2.731809
0.584986
0.974820
1.559567
0.193444
0.193510
0.193430
0.192865
0.193170
0.193364
0.192556
0.192951
0.193344
0.192652
0.193406
0.194015
0.193070
0.192711
0.192605
0.193262
0.385134
1.949409
2.338982
0.252008
0.387141
0.866396
1.665402
1.493985
1.287043
1.166901
0.743999
0.717790
1.073689
0.776757
0.812979
0.801019
1.000202
0.917404
0.820304
0.824263
0.386450
2.526247
2.627259
0.578351
0.387118
0.386405
2.524459
2.531960
2.522366
2.523910
2.325072
2.328964
0.831680
2.638876
1.753908
0.385915
0.386937
0.779988
0.807823
1.573701
2.661694
1.020766
0.356001
2.527640
2.525669
0.839257
2.526977
1.169704
0.387110
0.387536
0.386354
0.385970
2.237687
0.824905
0.819374
1.109689
0.730814
0.961376
0.767360
0.794998
0.888935
0.371021
0.200597
2.577710
0.382301
0.581493
2.527937
2.546682
2.526760
2.522679
2.527003
2.523773
2.526483
2.525087
2.522555
2.106157
2.522810
0.387017
0.385225
2.562298
0.389234
0.387197
0.386256
2.140084
0.385183
0.385698
0.385432
0.385735
0.386982
0.387449
0.387190
1.560021
1.866630
2.331103
1.657313
2.525354
1.415678
1.158660
1.272472
0.697073
0.857927
0.084961
0.111481
0.542418
0.582600
0.581185
2.381670
1.858306
0.579105
0.846220
0.535111
0.953503
1.315577
1.364772
0.747509
1.077731
0.781688
0.241209
2.325631
2.354368
2.328907
2.535788
0.580867
2.097175
2.484422
2.625440
0.826017
2.629614
0.805398
0.350216
0.874191
2.610493
2.329992
2.135023
0.585570
0.563651
2.329064
2.525884
2.540439
2.526303
2.523166
2.525185
2.524118
2.522399
2.529123
2.522435
2.524780
2.526767
2.525370
2.324373
2.324676
0.974770
0.388564
0.387486
0.387163
0.386454
1.949060
2.331149
0.578414
0.578468
0.385596
0.385704
0.386905
0.386722
0.387133
0.385825
1.558273
0.581335
0.387059
0.386146
0.386254
0.579012
0.578856
0.833790
1.761765
2.384311
0.202141
0.823009
0.815963
0.712963
1.491913
0.688482
1.069004
0.847615
1.218527
0.581042
0.772073
0.772349
0.580186
2.328295
2.336270
2.327625
2.326807
2.327771
2.323779
2.127688
0.816726
0.819581
0.580834
1.362815
2.131466
2.449176
0.512941
2.134572
2.325121
2.126714
1.217284
0.579957
0.579652
0.579608
0.578603
1.748468
2.332279
1.502005
0.813556
1.006012
0.232593
0.764108
2.405165
2.461194
0.555673
2.326144
2.367563
0.908621
2.326003
0.567432
1.148356
2.324047
2.324135
2.347477
2.328532
2.327367
2.328903
0.974770
2.332757
2.327874
0.779998
1.169646
0.772013
0.580251
0.581225
0.581316
0.582004
0.579293
0.585635
0.584517
0.581021
0.580208
0.581295
0.579278
0.275289
0.816292
0.579039
0.202486
0.581327
0.729648
1.941902
1.977398
0.820514
1.746334
0.822885
0.835488
0.792833
2.488625
2.232216
0.677788
0.729044
0.772034
0.775686
0.775158
2.129774
2.202900
1.731307
2.156864
0.772950
2.130791
2.137259
0.730991
1.053667
0.796514
0.744268
2.285006
2.087747
0.671802
0.775174
0.799631
0.781327
1.208633
0.878843
2.330905
0.691521
1.654432
0.521185
2.418692
0.352764
0.797399
0.658390
0.585776
2.131581
0.811689
0.780077
2.341665
2.128165
0.745217
2.131183
2.131509
2.126157
2.327296
2.330053
2.326317
2.323978
2.326680
2.324041
2.188033
2.127146
0.777619
2.328276
2.324568
2.126559
1.558106
1.938029
0.581194
0.579944
0.772349
0.580657
0.581139
0.772799
0.579288
0.580276
0.974700
1.168601
0.282876
0.579946
0.774963
0.580926
0.773834
0.773296
0.772929
1.849344
2.472126
0.284121
0.926582
0.802646
0.842947
1.572571
0.114317
2.649898
0.315794
0.774440
0.966213
0.966654
0.773637
2.012054
1.934284
2.127897
2.125837
1.930787
1.929074
0.903690
0.462637
1.714737
0.757235
0.769069
0.972659
2.316452
1.362476
0.838365
1.936547
2.126233
2.128830
2.142905
0.303632
0.773761
0.774327
0.775496
0.784056
2.228393
1.454863
0.297976
0.189086
1.610862
0.720515
1.315532
2.290547
0.779259
2.172288
0.707553
2.149584
2.130302
1.933967
0.775034
2.128441
2.126318
2.129458
2.131421
2.134106
1.930262
0.777824
0.779394
2.130469
0.756751
2.129705
2.130707
1.929618
0.773277
0.966185
0.774058
0.775811
0.775859
0.797195
0.967820
0.775322
0.775077
0.775055
0.772324
1.741847
0.986544
1.966918
0.763667
1.131505
0.794601
0.672045
0.353055
0.086862
2.204433
0.653031
0.366487
0.710415
0.654292
2.261049
0.309276
0.795641
0.973689
0.970946
0.969648
1.932233
0.915928
1.975755
1.951143
0.969857
0.967545
1.933304
1.935725
1.932950
1.733764
1.745140
0.476563
1.204186
2.121951
0.644734
0.841132
0.741219
0.697179
1.558111
0.971626
2.155463
0.775544
2.029798
0.228508
0.881977
1.591072
1.320736
0.964213
1.953273
1.934504
0.693837
1.994536
1.931394
0.570357
2.125844
1.931270
2.129123
2.126995
2.125937
1.933689
0.973106
1.928905
1.928745
0.924539
1.733401
1.929472
2.129558
1.932253
1.944699
0.969890
1.167181
0.967275
0.774587
0.773260
0.775547
0.774998
0.966714
0.968012
0.775349
0.400680
0.969301
0.773930
0.966294
0.967239
0.969619
1.744725
0.637501
1.027176
0.761849
2.073066
0.341854
1.832227
0.659920
0.896105
0.754471
2.201264
0.152189
0.766209
0.777311
0.758000
0.403979
1.416819
0.801206
1.161500
1.160844
0.969690
1.098739
1.568664
1.799663
1.753368
1.163014
0.968056
1.736667
1.731892
1.929181
1.928160
1.734984
1.732434
1.099643
1.169703
0.500285
0.713274
1.537373
1.191658
0.359990
0.967758
0.970321
1.812369
0.963674
0.617232
0.435765
2.013458
1.454270
0.785931
1.356307
1.549189
0.668231
2.131351
0.306825
1.928892
1.847397
1.734398
1.962497
1.931975
1.933401
1.933519
0.968125
1.737217
1.732844
0.945174
1.931349
1.939285
0.569112
1.932526
1.731782
1.928249
0.968572
0.973845
0.970688
1.160869
1.160926
0.739384
0.970471
1.742987
0.970711
0.967957
0.967658
0.970543
0.970196
0.969940
0.614337
0.392721
0.687571
0.718646
0.771724
0.666407
0.897320
1.104070
0.695164
2.082761
1.164722
1.166636
1.164907
1.164351
1.158829
1.741459
1.736372
1.538401
1.735846
1.731103
0.652959
0.431892
1.134020
0.584123
0.650161
1.772641
1.735108
1.158990
1.438264
1.165465
1.529825
1.535277
1.536323
1.177671
1.100147
1.015708
0.407102
1.731993
1.824380
1.771885
1.734564
1.736525
1.928861
1.541634
1.536873
1.164696
1.746930
1.161927
1.735829
1.735417
1.930282
1.732306
1.164974
0.969256
1.168990
1.162092
1.162295
0.968628
0.969755
1.161600
1.163347
1.967934
0.739130
1.190641
1.312215
0.586922
0.371078
0.983334
1.070668
0.603998
0.632616
1.690637
0.620189
1.903340
0.706304
0.633847
1.932852
1.725902
1.356540
0.562017
1.272009
1.632681
0.415217
1.670071
1.278859
0.467769
1.361079
1.574061
1.555116
1.548995
1.358766
1.162248
1.531921
1.531385
1.355965
1.538496
1.162909
1.540036
1.727319
1.731605
1.356119
1.536104
1.733486
1.161394
0.559941
0.669488
1.535701
1.286252
1.604921
0.605368
1.365817
1.738179
1.731383
1.735684
1.538793
1.525205
1.170458
1.165943
1.165365
1.164501
1.165732
1.165932
1.418484
1.155504
1.164248
0.594869
1.334069
1.345333
1.342257
1.340816
1.151057
0.700471
1.162388
1.833160
1.972102
1.544521
1.539242
0.544767
1.658802
0.570154
1.257963
0.462563
0.499218
1.662974
1.548953
1.539791
0.490772
1.364329
1.347247
1.429032
1.535942
1.540107
1.538571
1.341302
1.733558
1.161983
1.356950
1.172488
1.356687
1.359252
1.363189
1.361830
1.363158
1.352699
1.360320
1.358982
1.394729
1.540777
1.318638
1.341884
1.359746
1.536009
1.537084
1.357451
1.340459
1.321165
1.535074
0.438780
1.808047
0.561459
1.366312
0.586966
1.542287
0.625553
0.526957
0.508085
1.543662
0.511248
1.526071
1.360979
1.484780
1.347702
1.539936
1.541687
1.359285
1.359865
1.534972
1.359625
1.547723
0.562475
0.473234
1.447719
1.405450
0.502979
1.350772
0.669779
0.525908
1.601022
SCALARS UY float 1
LOOKUP_TABLE default
-0.000000
0.000000
0.278812
4.198113
4.198451
-0.000000
-0.000000
-0.000000
-0.000000
-0.000000
-0.000000
-0.000000
-0.000000
-0.000000
-0.000000
-0.000000
-0.000000
-0.000000
-0.000000
-0.000000
-0.000000
-0.000000
-0.000000
-0.000000
-0.000000
-0.000000
-0.000000
-0.000000
-0.000000
-0.000000
-0.000000
-0.000000
0.000000
0.000000
0.000000
0.000000
0.000000
0.000000
0.000000
0.008724
0.017559
0.026302
0.035143
0.043841
0.052605
0.061184
0.069922
0.078459
0.086688
0.095047
0.103252
0.111134
0.119078
0.126801
0.134593
0.142085
0.149417
0.156492
0.163333
0.169914
0.176436
0.182928
0.189128
0.194737
0.200293
0.205757
0.211158
0.216002
0.221155
0.225542
0.229185
0.233414
0.236077
0.240145
0.243100
0.245097
0.248104
0.249811
0.250937
0.253189
0.253639
0.255810
0.257142
0.260951
0.264720
0.269797
0.274532
0.362672
0.418761
0.479804
0.546127
0.617067
0.691389
0.767434
0.844764
0.923172
1.002077
1.081608
1.161336
1.241466
1.321792
1.402250
1.482946
1.563764
1.644761
1.725893
1.807166
1.888571
1.970099
2.051772
2.133533
2.215443
2.297424
2.379506
2.461668
2.543955
2.626281
2.708708
2.791162
2.873703
2.956266
3.038900
3.121553
3.204261
3.286982
3.369745
3.452516
3.535320
3.618130
3.700954
3.783800
3.866648
3.949510
4.032373
4.115241
4.198113
4.198112
4.198110
4.198109
4.198108
4.198115
4.198125
4.198139
4.198166
4.198195
4.198237
4.198283
4.198338
4.198394
4.113174
4.027901
3.942628
3.857356
3.772084
3.686810
3.601532
3.516247
3.430951
3.345643
3.260317
3.174971
3.089599
3.004195
2.918752
2.833261
2.747716
2.662105
2.576417
2.490639
2.404758
2.318748
2.232593
2.146278
2.059792
1.973114
1.886221
1.799083
1.711675
1.623979
1.535990
1.447713
1.359148
1.270338
1.181314
1.092171
1.002999
0.913951
0.825190
0.736974
0.649501
0.563119
0.478072
0.394588
0.312851
0.232678
0.154187
0.076726
0.168324
2.543886
2.873664
3.369730
1.401834
1.725648
2.051616
0.764658
0.023257
0.009466
2.576261
3.430830
2.060076
1.712878
1.362260
0.920618
3.089382
0.035955
0.123611
4.114559
0.004776
0.084292
0.483207
0.049123
3.772006
3.783795
0.461902
0.211665
0.314109
0.046186
4.114663
4.114551
0.059799
0.008527
0.030831
3.949507
1.000984
4.027839
0.185055
0.014067
0.006173
2.918571
2.404661
1.185796
1.160634
2.215316
3.038869
3.535311
4.114557
0.026466
0.153130
0.061491
0.237302
0.152441
0.067623
0.005123
0.042226
0.302096
0.255408
0.536678
0.013614
0.611149
0.650706
4.114764
0.019230
0.052399
4.032372
3.942563
3.686723
3.601434
1.538009
1.886866
2.747535
2.318714
3.260172
2.232644
1.097421
0.832743
4.114542
4.114594
3.618124
3.204241
2.297332
1.563453
1.806949
2.708658
2.379419
1.240856
1.888384
0.842876
4.114902
4.113978
0.015380
0.074088
0.030529
0.007329
0.093085
0.108487
0.070062
0.138428
0.012003
0.258227
0.262487
0.741396
2.296887
1.724744
1.158405
0.926177
2.404666
0.052040
0.014123
0.099797
0.083246
3.535160
4.030971
3.771521
0.443419
0.271668
0.061955
0.019544
0.139532
0.409692
0.008043
0.005318
0.226708
0.004304
0.399691
0.591631
0.564604
0.054691
0.060994
0.687121
0.728961
4.027442
0.044689
3.857179
3.686472
2.318805
3.516055
1.625462
3.003937
2.661851
1.450139
2.146351
1.008935
2.490422
1.799891
3.174732
3.345428
1.973477
2.832996
1.274000
4.114598
4.114548
4.114488
3.700904
3.866579
3.452446
1.321158
2.791054
1.080588
1.644398
2.461541
3.121464
1.482478
3.286898
0.921580
2.626167
2.133341
1.969865
2.956166
1.806168
4.114478
4.114383
0.266072
4.032545
0.005184
0.039046
0.032912
0.029343
0.020955
0.098139
0.111129
0.017172
0.075921
0.036136
0.052197
0.013293
0.008261
0.022057
0.007198
2.873648
3.174594
0.582784
1.723286
3.203885
2.543373
2.662089
1.278331
1.974588
1.627828
2.404672
3.771285
0.009742
0.399990
4.030826
1.400187
3.783607
4.031060
0.039896
0.075379
0.215302
0.032504
0.381239
3.856677
3.003736
0.009527
3.515988
4.030939
3.618193
0.997895
1.239141
2.379261
0.111147
0.016031
0.025013
0.039495
0.096169
0.026410
0.070579
0.050788
0.016591
0.663018
0.269992
0.752821
0.516295
4.031302
3.942705
1.014525
1.453403
1.801519
3.601448
2.490768
3.345579
2.833176
2.147097
0.104808
2.233036
3.949561
1.562279
0.839359
0.837224
3.369427
2.708598
4.030420
1.887590
2.050676
1.643356
2.214606
3.038474
1.077658
3.452234
4.030819
0.092150
4.030200
0.080896
0.122323
0.062852
0.045433
0.060219
0.111126
0.010910
0.279385
0.265942
0.655216
0.992290
3.534768
0.759413
0.141823
2.296350
0.025233
0.349353
0.048042
0.090921
3.947353
0.072295
0.061869
0.053709
0.260800
2.489965
0.933124
3.600748
1.190812
1.155002
0.160418
0.185475
0.337162
0.013438
0.485653
0.035140
0.323225
0.030610
0.672165
3.856000
3.946815
3.947992
0.497028
3.686492
3.088929
1.102488
3.259996
1.714500
1.540427
2.576217
2.060664
1.365666
1.887884
2.747413
3.430813
2.918406
2.233746
2.319374
4.031005
0.917277
3.866387
3.286547
2.625806
4.030517
3.945858
1.887083
1.805211
1.968988
1.481027
2.956017
2.790867
3.700832
2.132516
3.946995
3.368899
3.121136
1.319586
2.461130
1.560147
1.641568
0.009591
0.086261
0.124989
0.305983
0.019563
0.029594
0.097200
0.068537
0.131040
0.037184
0.009983
0.049548
3.037884
1.886103
1.557600
2.542657
3.344936
1.195618
3.088827
2.832654
1.456775
1.975229
2.490334
0.041855
0.015268
3.783663
3.863608
3.686546
0.480872
0.285593
3.863056
1.630325
2.319804
0.085113
2.707848
2.378945
1.397617
2.049580
3.946672
0.191559
0.102508
0.023400
0.055811
0.268201
0.060891
0.670695
0.404553
0.423370
2.661655
0.845324
0.038526
2.575163
0.573420
0.073917
2.147339
1.802664
1.019917
3.430882
3.003518
3.515889
3.947478
1.282625
3.174929
3.947735
3.947315
1.721624
2.873580
3.203273
3.451727
1.073683
2.213844
0.829117
0.910410
3.617485
1.235617
3.286036
1.478724
0.254879
0.026062
1.969210
0.355702
3.864851
0.081275
3.946586
0.150428
0.014935
0.133960
0.016163
0.018337
0.042905
0.265218
0.168552
0.120186
0.641477
0.817712
1.150935
3.368714
3.088450
0.680184
0.183909
0.938637
2.295806
3.429699
1.200575
0.402895
0.099796
0.026549
0.063970
0.480160
0.218801
0.260732
3.534201
0.022836
0.045327
0.127984
0.062719
0.250776
0.096652
0.122364
0.223006
0.565586
0.276329
0.034397
0.127451
0.747879
3.771150
0.020637
3.864315
1.106792
2.576936
0.479824
3.515959
3.601930
2.149422
2.917686
1.369371
1.543215
1.888591
2.746762
2.060925
0.764966
2.404889
0.986137
3.259863
1.716475
2.234724
3.863092
3.862140
3.700514
1.316529
1.803743
2.790602
3.120549
1.639437
2.131683
2.625215
3.863953
3.863685
0.253032
2.460404
3.202566
2.954868
1.394093
1.475693
1.968538
0.194194
0.330527
0.249716
0.074884
0.033116
0.051168
0.118399
0.353736
0.281642
0.245322
2.873455
1.884525
1.554723
2.541711
0.685538
3.600490
1.546238
1.890272
2.575614
2.235785
0.390200
0.211547
0.238772
0.041907
0.067872
3.780428
0.314105
3.779795
0.095639
3.778544
2.063229
2.747866
1.114197
0.244792
2.378656
1.312873
3.617526
0.036413
0.601331
0.146379
0.255989
0.290015
0.170021
0.072364
0.138402
0.406520
0.715383
0.851046
0.328726
1.025331
3.173188
3.514402
3.783713
2.661855
1.718771
2.918698
1.374161
1.286863
2.490335
1.068466
0.903734
3.260103
0.557419
3.003658
3.344983
2.405440
2.213041
1.719774
2.707634
3.285381
3.450864
0.023072
1.390157
3.119854
3.037380
1.233055
2.048084
3.862884
0.086453
0.205427
0.050411
0.111652
0.027940
0.109060
0.235180
0.331532
0.234274
0.208594
0.237620
0.086390
0.145498
0.544167
0.245937
0.080241
0.896819
1.145784
3.201883
2.919204
0.626660
0.857907
1.033164
3.534234
2.293981
3.344766
1.291143
3.173145
2.575425
3.602869
0.177673
0.177862
0.477911
0.116855
0.243069
0.056240
0.106277
3.779242
0.121593
0.336876
0.030697
0.604652
0.281421
0.313289
0.227036
0.191217
0.729027
0.263343
3.684914
0.084987
0.769687
2.746927
0.152995
1.975654
2.660240
2.832727
1.631970
1.804314
3.429680
0.979950
2.065842
2.150997
0.466883
2.490776
2.320584
1.460275
3.003859
1.119243
3.368726
3.779963
1.637143
2.624556
2.130366
3.700425
2.790283
1.801801
1.472163
2.954635
0.228465
3.035802
2.459738
2.049880
1.967284
1.307525
3.779262
0.136117
0.140386
0.044369
0.287956
0.232510
0.250502
0.154815
0.111796
0.054673
0.288221
0.290403
0.034210
0.203711
0.113310
0.200611
0.101057
0.027674
1.551977
1.882866
2.871139
0.650036
0.284747
0.778249
1.038598
1.386602
2.540975
3.429236
2.067759
1.634785
1.891627
2.919546
2.321372
0.369129
0.889727
0.148527
0.053560
2.575594
0.228982
0.218918
2.212096
3.617718
0.311558
0.257206
0.128868
0.218970
0.359135
0.207505
0.145762
3.673827
3.690479
0.091169
0.403382
0.244331
1.980964
0.607219
2.662826
0.945336
2.833290
3.257695
1.376770
0.813005
3.514307
2.406278
0.544748
1.464110
1.205070
0.126083
3.088453
2.152328
1.806479
2.707369
1.062726
3.285227
1.717632
2.048888
0.049313
3.118405
3.702328
3.450736
2.375446
2.132771
1.224688
3.697009
2.953092
0.145637
0.222280
0.075370
0.061613
0.035129
0.095314
0.163153
0.162634
0.066443
0.539521
3.201540
1.140809
3.534266
3.035692
2.276672
1.210183
3.257751
2.659574
1.382788
1.893385
0.088357
0.210755
0.561856
0.142926
0.079490
0.956899
2.835144
0.810546
0.266927
1.303261
3.593957
2.069458
2.406513
2.130974
0.461047
0.307603
0.207054
1.983244
0.690673
0.867246
2.747236
3.344885
1.719907
3.507891
2.491448
3.701040
1.124399
0.725693
3.173045
3.003942
1.549396
2.236793
3.368729
2.624068
0.973480
1.965686
1.634526
2.458015
2.789922
1.799748
1.468814
0.419938
0.044044
2.863412
0.247949
0.106573
0.212026
0.197702
0.232392
0.120267
0.106779
0.298191
0.161099
0.536700
0.059999
0.092713
0.322754
0.530560
1.541438
0.132586
0.472844
0.699315
0.192189
0.365342
0.636579
0.199069
0.801788
0.954103
1.044101
1.130031
1.382814
2.702813
3.426884
2.740986