# vtk DataFile Version 2.0
Test
ASCII
DATASET POLYDATA
POINTS 1437 float
0.000000 0.000000 0.000000
30.000000 0.000000 0.000000
30.000000 100.000000 0.000000
0.000000 100.000000 0.000000
16.400000 50.000000 0.000000
2.142857 0.000000 0.000000
4.285714 0.000000 0.000000
6.428571 0.000000 0.000000
8.571429 0.000000 0.000000
10.714286 0.000000 0.000000
12.857143 0.000000 0.000000
15.000000 0.000000 0.000000
17.142857 0.000000 0.000000
19.285714 0.000000 0.000000
21.428571 0.000000 0.000000
23.571429 0.000000 0.000000
25.714286 0.000000 0.000000
27.857143 0.000000 0.000000
30.000000 2.040816 0.000000
30.000000 4.081633 0.000000
30.000000 6.122449 0.000000
30.000000 8.163265 0.000000
30.000000 10.204082 0.000000
30.000000 12.244898 0.000000
30.000000 14.285714 0.000000
30.000000 16.326531 0.000000
30.000000 18.367347 0.000000
30.000000 20.408163 0.000000
30.000000 22.448980 0.000000
30.000000 24.489796 0.000000
30.000000 26.530612 0.000000
30.000000 28.571429 0.000000
30.000000 30.612245 0.000000
30.000000 32.653061 0.000000
30.000000 34.693878 0.000000
30.000000 36.734694 0.000000
30.000000 38.775510 0.000000
30.000000 40.816327 0.000000
30.000000 42.857143 0.000000
30.000000 44.897959 0.000000
30.000000 46.938776 0.000000
30.000000 48.979592 0.000000
30.000000 51.020408 0.000000
30.000000 53.061224 0.000000
30.000000 55.102041 0.000000
30.000000 57.142857 0.000000
30.000000 59.183673 0.000000
30.000000 61.224490 0.000000
30.000000 63.265306 0.000000
30.000000 65.306122 0.000000
30.000000 67.346939 0.000000
30.000000 69.387755 0.000000
30.000000 71.428571 0.000000
30.000000 73.469388 0.000000
30.000000 75.510204 0.000000
30.000000 77.551020 0.000000
30.000000 79.591837 0.000000
30.000000 81.632653 0.000000
30.000000 83.673469 0.000000
30.000000 85.714286 0.000000
30.000000 87.755102 0.000000
30.000000 89.795918 0.000000
30.000000 91.836735 0.000000
30.000000 93.877551 0.000000
30.000000 95.918367 0.000000
30.000000 97.959184 0.000000
27.857143 100.000000 0.000000
25.714286 100.000000 0.000000
23.571429 100.000000 0.000000
21.428571 100.000000 0.000000
19.285714 100.000000 0.000000
17.142857 100.000000 0.000000
15.000000 100.000000 0.000000
12.857143 100.000000 0.000000
10.714286 100.000000 0.000000
8.571429 100.000000 0.000000
6.428571 100.000000 0.000000
4.285714 100.000000 0.000000
2.142857 100.000000 0.000000
0.000000 97.959184 0.000000
0.000000 95.918367 0.000000
0.000000 93.877551 0.000000
0.000000 91.836735 0.000000
0.000000 89.795918 0.000000
0.000000 87.755102 0.000000
0.000000 85.714286 0.000000
0.000000 83.673469 0.000000
0.000000 81.632653 0.000000
0.000000 79.591837 0.000000
0.000000 77.551020 0.000000
0.000000 75.510204 0.000000
0.000000 73.469388 0.000000
0.000000 71.428571 0.000000
0.000000 69.387755 0.000000
0.000000 67.346939 0.000000
0.000000 65.306122 0.000000
0.000000 63.265306 0.000000
0.000000 61.224490 0.000000
0.000000 59.183673 0.000000
0.000000 57.142857 0.000000
0.000000 55.102041 0.000000
0.000000 53.061224 0.000000
0.000000 51.020408 0.000000
0.000000 48.979592 0.000000
0.000000 46.938776 0.000000
0.000000 44.897959 0.000000
0.000000 42.857143 0.000000
0.000000 40.816327 0.000000
0.000000 38.775510 0.000000
0.000000 36.734694 0.000000
0.000000 34.693878 0.000000
0.000000 32.653061 0.000000
0.000000 30.612245 0.000000
0.000000 28.571429 0.000000
0.000000 26.530612 0.000000
0.000000 24.489796 0.000000
0.000000 22.448980 0.000000
0.000000 20.408163 0.000000
0.000000 18.367347 0.000000
0.000000 16.326531 0.000000
0.000000 14.285714 0.000000
0.000000 12.244898 0.000000
0.000000 10.204082 0.000000
0.000000 8.163265 0.000000
0.000000 6.122449 0.000000
0.000000 4.081633 0.000000
0.000000 2.040816 0.000000
16.388506 50.179028 0.000000
16.354213 50.355116 0.000000
16.297683 50.525374 0.000000
16.219846 50.687005 0.000000
16.121979 50.837355 0.000000
16.005689 50.973956 0.000000
15.872886 51.094564 0.000000
15.725750 51.197200 0.000000
15.566697 51.280178 0.000000
15.398339 51.342135 0.000000
15.223440 51.382054 0.000000
15.044872 51.399281 0.000000
14.865568 51.393531 0.000000
14.688471 51.364899 0.000000
14.516489 51.313856 0.000000
14.352446 51.241239 0.000000
14.199037 51.148241 0.000000
14.058779 51.036389 0.000000
13.933976 50.907520 0.000000
13.826677 50.763749 0.000000
13.738644 50.607437 0.000000
13.671322 50.441152 0.000000
13.625817 50.267622 0.000000
13.602876 50.089698 0.000000
13.602876 49.910302 0.000000
13.625817 49.732378 0.000000
13.671322 49.558848 0.000000
13.738644 49.392563 0.000000
13.826677 49.236251 0.000000
13.933976 49.092480 0.000000
14.058779 48.963611 0.000000
14.199037 48.851759 0.000000
14.352446 48.758761 0.000000
14.516489 48.686144 0.000000
14.688471 48.635101 0.000000
14.865568 48.606469 0.000000
15.044872 48.600719 0.000000
15.223440 48.617946 0.000000
15.398339 48.657865 0.000000
15.566697 48.719822 0.000000
15.725750 48.802800 0.000000
15.872886 48.905436 0.000000
16.005689 49.026044 0.000000
16.121979 49.162645 0.000000
16.219846 49.312995 0.000000
16.297683 49.474626 0.000000
16.354213 49.644884 0.000000
16.388506 49.820972 0.000000
16.142290 51.090246 0.000000
16.381031 49.246029 0.000000
16.476220 50.570036 0.000000
16.567534 49.809478 0.000000
13.432060 49.919357 0.000000
27.959184 67.346939 0.000000
15.062546 51.587060 0.000000
27.959184 79.591837 0.000000
2.040816 20.408163 0.000000
2.040816 30.612245 0.000000
2.040816 81.632653 0.000000
2.040816 69.387755 0.000000
27.959184 16.326531 0.000000
27.959184 24.489796 0.000000
27.959184 32.653061 0.000000
2.000226 63.022103 0.000000
2.040816 38.775510 0.000000
27.959184 38.775510 0.000000
2.063520 56.953992 0.000000
27.959184 59.183673 0.000000
15.000000 97.857143 0.000000
15.000000 2.142857 0.000000
27.959184 44.897959 0.000000
27.959184 51.020408 0.000000
2.058026 48.891267 0.000000
2.040816 12.244898 0.000000
27.959184 8.163265 0.000000
2.119286 91.907213 0.000000
27.959184 87.755102 0.000000
8.571429 2.142857 0.000000
21.428571 97.857143 0.000000
2.040816 6.122449 0.000000
27.959184 93.877551 0.000000
23.571429 2.142857 0.000000
6.428571 97.857143 0.000000
2.040816 44.897959 0.000000
15.808727 51.356253 0.000000
2.040816 77.551020 0.000000
27.959184 71.428571 0.000000
2.040816 26.530612 0.000000
4.285714 2.142857 0.000000
25.714286 97.857143 0.000000
2.021897 52.958989 0.000000
27.959184 53.061224 0.000000
27.914278 55.273576 0.000000
27.959184 61.224490 0.000000
27.879705 47.169173 0.000000
2.040816 36.734694 0.000000
1.985319 42.671502 0.000000
2.040816 4.081633 0.000000
27.959184 95.918367 0.000000
27.842785 41.012410 0.000000
27.904213 63.341606 0.000000
1.981595 60.897410 0.000000
2.040816 34.693878 0.000000
2.142857 97.857143 0.000000
27.857143 2.142857 0.000000
21.428571 2.142857 0.000000
8.571429 97.857143 0.000000
19.285714 2.142857 0.000000
10.714286 97.857143 0.000000
12.857143 2.142857 0.000000
17.142857 97.857143 0.000000
2.040816 73.469388 0.000000
2.040816 85.714286 0.000000
27.959184 28.571429 0.000000
27.957036 12.244796 0.000000
27.959184 20.408163 0.000000
27.959184 75.510204 0.000000
27.959184 81.632653 0.000000
2.040816 24.489796 0.000000
2.040816 18.367347 0.000000
2.101567 67.270721 0.000000
27.990742 34.718564 0.000000
2.040816 16.326531 0.000000
2.040816 10.204082 0.000000
2.040816 89.795918 0.000000
27.959184 83.673469 0.000000
27.959184 89.795918 0.000000
2.098379 2.081372 0.000000
27.901617 97.918624 0.000000
28.130079 4.091715 0.000000
1.869924 95.908287 0.000000
16.576970 50.167357 0.000000
25.954712 32.689406 0.000000
4.048051 69.354174 0.000000
4.081633 24.489796 0.000000
25.916213 79.588913 0.000000
4.086221 18.371935 0.000000
3.897904 34.877606 0.000000
3.923124 61.572806 0.000000
26.128612 39.133691 0.000000
26.214823 61.491956 0.000000
3.871989 43.375621 0.000000
26.265426 45.355943 0.000000
26.372982 51.593494 0.000000
15.011971 95.726257 0.000000
14.987483 4.273197 0.000000
4.095212 12.258477 0.000000
25.904714 87.741449 0.000000
8.590547 95.733404 0.000000
4.124327 91.817489 0.000000
23.644909 4.177846 0.000000
1.898679 46.664421 0.000000
1.887660 50.867252 0.000000
28.104743 49.216969 0.000000
28.091622 57.507646 0.000000
1.793213 54.763850 0.000000
1.898425 40.673936 0.000000
28.092220 43.114891 0.000000
1.898792 59.041649 0.000000
26.349643 53.492500 0.000000
3.788008 38.504633 0.000000
26.348185 4.174096 0.000000
28.073402 36.848913 0.000000
3.770644 95.809804 0.000000
1.947709 64.759841 0.000000
27.961478 65.481833 0.000000
2.032166 32.492602 0.000000
21.409200 4.266343 0.000000
6.436167 2.135262 0.000000
23.563887 97.864684 0.000000
17.151762 2.133952 0.000000
12.848401 97.865884 0.000000
10.720797 2.136346 0.000000
19.279431 97.863426 0.000000
25.741048 2.116095 0.000000
4.208553 97.884202 0.000000
2.040816 71.428571 0.000000
27.959184 73.469388 0.000000
2.040044 28.570656 0.000000
2.040816 79.591837 0.000000
2.040816 75.510204 0.000000
27.959184 30.612245 0.000000
27.959184 69.387755 0.000000
27.959184 77.551020 0.000000
2.040816 22.448980 0.000000
27.959184 22.448980 0.000000
27.959252 26.530681 0.000000
27.959184 18.367347 0.000000
2.040816 83.673469 0.000000
27.959184 14.285714 0.000000
25.913747 81.628033 0.000000
2.043283 87.757569 0.000000
2.046930 14.291828 0.000000
27.956122 10.201020 0.000000
27.953028 85.708130 0.000000
2.051111 8.173560 0.000000
27.948877 91.826428 0.000000
27.877535 6.025956 0.000000
2.132881 93.976795 0.000000
4.000357 6.267740 0.000000
4.120886 4.222927 0.000000
25.999609 93.732219 0.000000
25.879089 95.777048 0.000000
15.649674 48.560769 0.000000
26.010158 67.277614 0.000000
25.918367 24.489796 0.000000
4.081633 79.591837 0.000000
25.916050 16.328010 0.000000
23.873553 79.584761 0.000000
3.481175 55.433151 0.000000
24.733850 51.947925 0.000000
3.652422 50.744354 0.000000
25.910700 12.249504 0.000000
23.509255 6.363423 0.000000
26.366938 49.758281 0.000000
26.399277 43.548901 0.000000
3.661711 59.758281 0.000000
25.957156 34.691433 0.000000
10.699495 4.264413 0.000000
19.300303 95.735157 0.000000
17.109994 4.256463 0.000000
[...]
POINT_DATA 1437
SCALARS UX float 1
LOOKUP_TABLE default
0.000000
-0.000000
0.000000
0.000000
7654370.961328
-0.000000
-0.000000
-0.000000
0.000000
0.000000
0.000000
-0.000000
-0.000000
0.000000
-0.000000
0.000001
-0.000001
-0.000000
94353.179953
-120366.967293
119281.602317
384852.024099
639010.708820
505314.914576
632344.060040
726969.402715
1137351.536848
1605354.133936
817801.157253
1377224.488727
-21081.230125
-2187895.612392
-711295.935670
349456.409401
-10829168.932001
-4690574.810318
-2598382.192585
-5310056.413187
-6261809.185343
-8748494.818332
41048424.696565
-160851037.325976
-65082944.650529
-18418414.194825
-3194213.845774
4063801.580966
5576310.334125
9976146.090108
8186560.609990
9553542.269735
7946239.971466
11585707.659601
9445220.639636
7103971.654043
5589892.255748
5432294.179246
5869629.214630
5941828.332674
5588595.975264
5085299.708925
3802780.055576
2591440.539546
1118654.181980
1090174.379833
1178790.573739
1601685.327961
-0.000000
-0.000000
0.000000
-0.000000
0.000001
-0.000001
0.000000
0.000000
-0.000000
0.000000
-0.000000
0.000000
-0.000000
-1317918.322886
90086.480776
942566.341107
2109664.429465
2023777.783170
2024260.842454
2378954.828100
2546150.972833
3777824.287137
4729533.121303
3405621.156427
3163203.814534
6970698.746205
7893568.091950
8428931.845194
12706171.465353
16151134.583080
7416526.711614
12777797.698015
12616713.728207
11833124.507251
8002615.827834
6196012.279046
4669960.785710
4175347.606472
4058285.853173
5067346.700057
6152706.200472
6130895.005754
4463356.305673
1436210.202162
1791651.004218
2128686.728603
2377528.740892
1262959.276074
1525349.156433
903011.760799
83030.996773
786511.844321
1289280.106312
825150.352221
526736.950431
510142.029807
499532.535345
505746.937599
408380.756430
314494.124901
313685.685433
4912449.123830
5022578.419184
2030745.734054
18270734.192597
5321548.712964
5106584.768885
-1286235.766296
3346245.788848
10176813.348523
10673122.574021
7620865.237413
7352544.141710
15788141.229233
20488262.416620
16065062.939285
-23590986.964009
23370703.776147
339137.378005
19565142.274986
9116409.894304
-1534185.248794
-5992085.779993
-5552515.664703
-2050953.587012
-2961852.578506
-10837463.853248
-3935952.083302
5380791.733594
5084014.617568
-1975435.009276
4150558.838587
3216527.414956
5686978.372244
13637686.897747
9833404.053989
8406607.570311
6112457.136557
5185667.573394
6014811.721875
12761076.862629
12464953.542169
18251951.566033
19479197.295597
3239888.842717
4828637.747193
8343554.363373
7164944.782397
9906182.733963
4986750.071033
4129437.154511
6185692.594845
8045255.518039
-3256154.211796
7285708.071005
6075338.575611
5875776.281329
925375.299873
1649946.573102
3764575.270627
8613880.458599
840446.229830
2260163.182411
812605.965990
17174979.766420
2460894.732527
-4777496.164373
12361205.929575
5734895.653174
-4237815.900158
-145148.960673
5536270.030391
-44865739.796842
4203953.355835
509328.534825
756336.909976
1852814.072515
3801668.224354
-24036.436807
-1326164.321192
432515.131555
1113613.020758
60693.944237
-659033.356004
4363630.637868
6922969.202533
3013375.222664
9457628.507642
1083739.631489
880068.168182
3041392.842789
5889693.677939
-18869367.549157
-3367831.845859
7243478.316023
45556922.284329
635971.917264
4555726.556922
413420.322692
1857097.627772
-5356550.507681
12164073.581298
14011033.099999
1699016.444018
-621780.302134
-683554.471532
-270754.452236
-1632567.482858
-244904.234187
-1699337.399308
-1520456.424042
-2563388.052081
6966207.572613
2512394.555898
-377257.982104
639908.169192
1661789.240456
5601799.428878
5938499.173351
188058.570885
1135183.232891
13734029.936307
-10946123.685617
825176.925938
497962.413645
1788458.396110
5598260.913271
2388903.534138
634073.997777
1950552.189147
-116184.869469
-425105.036593
5236803.821413
697019.854605
9002667.716563
-446836.231348
5888722.108699
1125940.786196
1852383.520735
16052209.799087
-4425575.916415
8396784.533778
4643639.360856
18688406.059716
-3735558.097490
-806250.168107
-566539.419702
505841.853718
3261201.029071
-3071021.582457
826183.763480
-357868.546434
4245473.464593
2780011.916918
-2748133.661496
4334385.720461
10693370.910171
6083077.708711
-6381465.076597
12402303.952488
-31066421.927179
1869735.768879
-512199.570549
-4602223.515938
-825224.835370
14944049.300463
9417277.659749
2052172.289723
95332.287041
301490.946421
229008.402751
70954.145378
-2356781.101763
-1115279.017033
-1537260.954203
60990.530299
-460364.028260
7879834.029891
7120095.021478
1515139.939660
2556734.133680
511622.653384
-687393.788487
12586842.170883
5442628.726350
324211.508295
927935.095932
650982.594947
981802.618957
3015648.023244
630124.694927
5950004.388364
2023134.646349
523145.106681
634432.153156
5098257.701566
563417.397695
721211.191499
1268008.830135
450083.519698
507038.408895
410483.801212
424758.390730
2608322.153591
12580458.272508
10202308.539256
974523.759593
3535969.863380
706333.244208
6004151.389600
10241584.561988
-16566845.800068
2010531.840406
631711.480353
323652.994491
9740011.661642
18217770.286195
13774098.334841
-10825.280423
1419736.957319
-2567703.453430
182490.187113
-3595141.739554
11014001.928807
502400.246175
9228455.844918
481238.200858
584810.487551
3514218.811839
492151.473794
2597327.960367
6063849.641361
14301798.281022
-14077219.380632
-6659994.325599
5733812.302168
4430768.130027
3472243.718134
1206978.819066
1663821.657336
1946721.246632
237276.755779
598404.572601
-1924230.636158
9204196.430617
15108278.429658
16977595.637629
8102151.392145
116945.437841
-2591344.891654
-8972475.868377
884604.663710
-735262.573340
117291.441071
-40723.035790
764715.077007
1042470.506465
12221623.771798
6547795.988817
5507265.840245
1015012.633504
3764707.675632
2511859.223090
1250981.349672
1787332.083828
824795.087790
5606422.685830
616137.382750
10027484.129506
600043.304504
1634512.578903
804280.389936
-961832.155897
4717810.460854
5733523.680623
16934009.032438
1720118.682941
-613442.796808
10516916.221861
665625.259801
1384889.022276
3550612.773962
9914780.970380
3535006.433617
18811000.360633
-98449.959847
124124.256417
-932609.882079
3851135.982073
1580599.025023
878048.843048
497026.905429
972558.433816
5568712.183706
14489629.426572
5784027.692244
-918808.121073
6359778.405643
-160015.217991
-51127.883384
264120.278731
18243145.102181
-6666723.774080
14716347.833704
1406732.012464
6634426.990863
-15687344.802794
14852601.224617
4605034.822380
14525038.400105
-9674290.711878
-2746475.756286
2056535.008436
6966552.752673
636262.724694
-1670656.878559
1978725.530684
608702.524444
378792.717388
9908635.394500
-336636.260984
6166577.622323
267442.117170
2096495.256422
1062866.786620
1208456.002402
1202052.183746
5967784.194246
2013017.243609
628690.786258
3059550.232980
671031.127061
5452112.581078
484016.341000
1934970.419207
737270.116819
1059522.428609
5439963.645180
6579300.757759
17675152.747557
-5390561.165851
5578260.094422
1595075.942726
4668130.510648
17196005.468799
-577878.140658
962041.825254
12965069.365800
1443647.637782
-11940850.497861
15600.352491
594910.237691
5566226.382756
5219467.629845
-6020066.171139
-216645.831913
1461699.297731
2867332.517505
1977031.538165
406981.679219
19885773.058696
8462468.922864
1671223.869763
8635168.207037
5994149.426717
3862672.985145
6639047.965196
4388356.291678
483318.915130
305717.981129
883792.246915
-9013696.857187
8956088.325599
-989311.820596
4707346.439871
11967448.234993
10269519.414218
3970680.566750
-7836264.072275
227429.175953
709760.885109
8202756.707338
2710991.038242
1919209.171058
1316281.970612
83886.986332
2640686.980929
16502055.791545
1163402.453271
-1186461.628225
7552071.471423
5608754.139919
1167086.649857
1046340.309656
1128645.112253
409120.819904
5207811.948800
4350241.770726
3274155.805131
633939.698581
3441627.278772
3930020.530623
510220.183639
1275728.185645
17222883.001970
30940631.174307
4720036.298910
573938.877663
2123604.609479
500753.277837
447545.560998
815640.367278
11486978.154735
7573372.295236
6959270.510079
5242720.163270
4222685.252363
10049450.121467
1268442.174073
3285720.652206
1978737.436017
3953043.771381
12209772.470564
3574609.878477
9814367.024184
4813766.972077
1402271.891207
10614072.150378
-518066.615990
4273847.249881
946704.206948
1574425.506183
408003.394528
1107829.007398
7665433.970455
11628408.973020
3510068.178620
350898.043113
8916022.772077
2009107.048515
1892899.201739
-755256.961060
3331061.089205
5412517.680698
3260992.911745
14649569.394469
12560427.852801
281593.497008
1549306.474386
470615.293515
3876624.694356
11757294.271618
-3544933.665863
19534833.397395
-5121032.273471
3604126.302068
2359406.906275
2281889.582224
4552124.137432
17126299.694841
323103.834566
5485706.393188
1948053.123347
14793179.869699
2488891.611923
7628440.569964
5217587.921157
1316501.456692
728047.477596
809136.118299
1684750.273206
642643.966995
-569110.658907
927415.940129
6003894.155316
2514039.150732
3888280.767351
5819377.615035
569364.965921
642140.321927
471894.099086
719146.050055
891183.269592
412636.630722
2032017.067894
-11245087.087826
6238391.550832
6626825.318356
7474474.148888
1279628.761760
2807278.708046
11806136.499502
-6329892.156975
4055526.215539
3535052.792261
8821222.806297
1453453.507723
15917735.413931
5906345.822596
-204.134589
3796535.796404
1137414.354835
891527.976636
1485774.924143
699472.288983
2392458.704976
17192241.382554
-494894.364472
930769.735162
5957203.105439
6060788.036053
13861162.710222
8542077.509654
1836131.895664
-6531396.264527
-702250.405992
6399677.593206
5324901.130457
11356820.427647
2110604.434814
4335705.960660
823173.129574
715665.651046
1382485.840501
6303387.632721
2176949.447840
7958576.440046
12685813.670754
302101.416014
803190.188721
16608941.671892
12666810.882889
11544678.684071
14260189.711544
8632891.722485
1267737.670402
2153633.016863
275506.700286
10397068.394343
2556793.231796
3689859.421359
947404.636495
965986.771280
3776378.039997
1777433.777821
1667309.285936
9773031.581418
600729.126390
4415593.336491
356121.274479
1290681.315030
13016565.487998
4480620.822273
3140998.648180
15758352.749369
3753914.350899
3035042.873903
1125071.972915
8104617.665504
11106825.962682
16775974.897963
1076571.618008
10346813.892231
10577068.483687
2397211.294622
3615117.215834
-239881.124549
4333963.454828
59461.882914
178547.809898
666586.702739
1004408.438224
10092494.885396
3939708.812516
5099394.207287
7339251.511389
21366694.681328
1203681.906922
10174675.584974
637020.653340
7635265.484853
1205972.595103
2126108.441386
11363121.766672
3635501.054894
-668778.200159
2234930.966273
5980804.783156
21647926.757572
1814879.056448
3112041.585822
5826049.104642
-161631.533934
20388.703606
17126022.790649
14830773.617671
19302061.551871
14312579.239434
2206771.422627
962872.364171
802894.441713
810784.872776
10244602.947988
730537.253922
47151.966822
3488169.253541
4906426.927579
12413373.905404
3799323.001938
534440.339351
1609800.501314
416151.073148
465033.175205
2956212.034403
8006996.824789
4996602.908367
10177837.594256
8073141.947958
-4004538.523575
3659164.636164
-312049.697459
2514118.959101
14834549.227473
-84670.418526
11483016.737512
16862627.009033
16658732.384173
17090670.210692
6148349.496227
918725.098490
4548382.466515
1289071.671189
-361352.439614
3020405.135289
8806742.084826
6091196.333967
15112496.537698
529567.154171
29868.039858
546973.770581
5257373.570707
3300626.331800
1296442.178746
2444822.365078
8993182.780635
956056.034551
2044713.356762
2033954.644161
2851175.329104
9087113.966369
11382188.378773
3081938.041370
15461691.893400
15115398.276103
1813972.994115
8245106.928968
10516560.915789
14759641.342506
12504049.724010
2697455.443406
357774.257226
407929.004771
3990630.451284
-544982.655330
557188.300978
6766081.463556
9818382.115282
683698.681483
3375002.201085
-511888.939641
537941.367508
457598.490603
8333037.373366
12612866.573936
3391228.595786
5702973.408526
5693481.449660
4085121.965470
117659.283139
7438757.147187
3341857.975494
14692981.630347
1329830.549693
3205146.375440
6232357.194509
17777294.908634
-624195.195574
8460260.367897
11273195.900450
15497123.131298
-581897.548451
11657330.104965
12722320.582484
2686498.951902
7965665.346119
4283799.316624
10079369.473722
-136397.823244
357144.988952
5338982.760446
2399150.585302
800118.921057
1165585.211664
-43869.045725
329925.292675
302953.456917
-206617.841233
3922416.862547
4122164.077113
584841.564210
-152620.757021
3562408.713936
13885599.440378
1823063.967661
17770931.514600
4894515.966074
8580724.599203
13796086.167709
14373744.940087
152282.090263
22324421.448416
6971698.787239
14798151.744799
14246690.722770
5048798.807064
274073.487758
2139557.091551
10322973.247527
5192796.623651
1283647.226488
8365969.655781
11152347.338941
9545169.751815
9881277.063773
348382.783567
-867835.926345
-4189899.880999
3756327.946735
5339981.243592
3851779.848326
-315647.627278
6192059.218361
2659219.524088
7657891.203907
1058508.527910
622072.101335
13198903.600691
2966536.420158
-1844251.370739
1269192.007330
4941942.060190
-1355150.467379
9541380.091057
7038536.942030
-658120.602489
2963420.948902
11542027.859368
13793890.140228
21721416.653510
1868991.562503
-12012.611378
-3222185.595274
13000747.172840
11251889.079212
6654472.903783
10227122.795219
9363492.389747
12667590.913609
5887800.831234
18069430.117092
1595908.180666
6099596.932662
-4363668.608935
9994473.590540
4736045.018594
3484148.901445
1483911.406936
16290472.917929
4461286.987985
20782402.982236
9634225.042269
-260933.034855
8934264.711197
5448511.922944
10565121.048680
9496069.658385
323085.214951
9013334.321646
5871801.891987
357108.293088
4211517.743038
4306311.617099
5268244.540042
3737828.886390
1074791.510703
1090996.334823
5762195.467925
7518983.579162
6531195.139555
220585.399048
10032716.865724
991966.484818
5514756.588909
642564.159888
2662649.601052
5698345.739772
2013338.973223
4869688.425668
5247647.956820
19389822.930937
16614889.270800
4011872.855845
5772020.631775
3482186.792479
876747.603217
4626459.973149
18457269.166083
3977480.853665
4096407.170381
2422121.532948
2228065.383790
6844622.093830
10509822.133592
319233.948199
9681151.603991
19500316.482639
1209562.418190
8255443.113736
5119745.904537
2848205.169105
-696690.685886
7675883.278266
17967242.461324
8015494.404039
3267056.678131
5499689.679283
18774272.826761
2832112.107426
-4421364.146792
16012433.010410
10450891.671980
10147623.480703
5297995.593867
4462658.300879
12627546.856473
5384549.087642
11140692.052772
-1707284.719172
-2403605.917256
3197809.558456
12016470.789224
2258891.954142
10276157.982947
-245529.439396
9135121.458540
-2836960.268861
17701425.134543
11190635.721568
4269408.176839
13950925.774247
7961814.524935
-1831133.788670
1341904.671396
23356353.298444
472542.718442
1590201.594320
9040897.750594
-6684973.506044
9804392.134736
3893550.281981
-1504265.623039
2240930.526727
11049520.730858
1776615.396240
-4892742.739823
-7004288.924768
-5633301.386244
4345481.717225
2309678.375849
9951945.760068
-3408720.088075
15234934.001826
8480702.001080
10687715.942753
3671058.037688
-1217777.657185
6684054.254729
4910186.305316
3157563.823994
324272.209616
9373363.872633
5190419.341594
-7355524.318190
3170464.193696
5101143.253822
-25840.312070
3865891.653098
3442504.818187
2622397.104070
15744417.064410
5850847.201488
11907428.366217
9241056.424463
11457529.205108
35513.985520
6484637.888454
7261318.022877
-4274894.316138
-2980184.963706
1832042.062353
5287818.848949
11724549.743344
1581870.030377
10886760.676241
13812452.016940
4437025.876411
-2274541.905088
7506658.918718
-4159897.983885
2500191.722064
7320687.370809
1599050.988381
11421765.008744
3285804.036151
6135093.664400
23404339.998900
23145673.201671
2191756.353198
4571428.798031
5608301.617065
-1292883.307539
1875691.670903
-1095637.296745
-375935.375259
2338469.327157
-6735593.258603
1930136.295324
9487706.536771
6413789.394111
-5611496.564929
4593232.605672
7766438.529611
3069154.846057
1665892.361858
-9998395.187063
15887237.125504
2932409.419729
4536404.526817
2047141.327975
11689607.352861
981483.168413
4422688.708221
4187445.546092
-1529190.179490
-7386173.509407
11917537.214498
-1962723.806030
2812878.527527
5101362.806939
10888182.483119
10850669.017868
4943862.278876
1262606.684385
1237369.634879
29885033.108917
2750787.176748
4069606.161783
10062302.851613
-8410707.492706
1221939.234010
3107281.902817
-4659688.410600
13642272.266825
2886297.877160
3516229.288224
5756319.732488
-6033886.933597
3799840.851473
22654157.414342
3999265.883309
3959979.348185
20287812.641802
3193827.779267
16814991.662093
12372713.227498
3962572.171892
-8847996.137897
1414972.100675
1680834.741703
3588871.710069
-934305.434099
10954725.391368
-1378610.499680
12663396.557468
1675965.831175
41213937.372762
2973300.498419
7145646.521115
17123511.573139
12611950.918173
2079362.504892
7810703.730705
1644928.040190
6776646.510751
-6177463.919496
-6923310.048944
1954199.044303
2542405.787103
-2144281.958746
-5620344.485433
-8675094.797933
4714311.009994
1668295.159035
1405803.732565
-6819311.435578
2388618.816642
4349493.338636
17533111.600345
9760496.534782
20506233.992207
8847831.720866
5839445.398259
-2992879.921487
1911846.429123
-5899603.861108
4741254.852297
-8759582.643243
14317871.304733
-10649411.409406
2709375.712329
4570755.494313
-4610445.887178
-6610138.820256
4612834.537891
1261166.473683
3288655.543870
25156107.883440
12654064.655200
878557.833793
3088625.368140
6429487.939321
6209256.150229
1621487.123762
1874609.518891
523053.193893
689216.260675
5021054.887824
-1219205.352369
2804618.216865
-2829532.421454
-5953939.276290
356769.264951
-7459680.933839
14887998.514167
-5250107.969027
20988488.679592
5481140.044852
-4104320.926309
4413580.405170
-2427266.578087
8093149.225064
5276353.196263
8756763.735357
13400027.020213
5082977.440210
1495123.604522
2584292.832217
3887529.858618
14133191.190325
284811.804434
1733528.821318
4461205.408922
2143300.867361
22865949.656770
5812882.618226
-15781301.187369
16647782.097212
3009086.122546
-4304814.472616
13714817.389939
1162970.350906
-4314659.730304
-8574282.124411
10101229.201211
-2087199.886557
700701.011878
-3881978.984012
4152377.084805
6946012.539547
4735777.118518
698131.481034
3837197.148731
16806896.430583
4701468.088164
1169210.071738
25989373.717169
-5421226.933959
13517615.994598
3468400.940136
9418459.764864
2865930.060875
12092011.234479
5326214.768966
-5357412.580744
3763068.637593
4981823.046020
1080007.982891
2668163.688877
-7094926.140607
5221516.667261
934408.002835
1867747.131978
5679951.163753
5059939.326186
24503238.762055
3727563.352228
2486750.016758
7551673.208706
2404965.892910
28062934.396895
6988698.648269
2643618.541882
-3803348.698784
585769.970392
7929486.440150
808355.011643
-1528993.903183
5002614.467616
-697846.855230
5713407.484224
3522596.165264
34099401.199954
6514790.118428
22318704.698276
5664440.020496
1428016.485439
27805855.740006
18824924.093857
1542675.576422
-1517748.392757
2214503.788030
147768.434603
5779382.305536
23766797.870374
3949392.858009
-9382062.512841
5062045.795755
8365869.585954
13476874.244836
6096816.069250
5979399.951637
1405366.032127
3344884.297689
-820301.834858
2674739.504130
4380909.227328
8195221.968260
3565099.262244
-154920.570133
-332213.184184
-499092.002881
3571813.438908
806704.851135
1888473.358642
-3533548.660315
13465725.102455
17312076.792138
1541210.076863
6204064.224240
2124470.603430
5559493.068822
4274154.094537
7143157.685465
3806007.154063
17900167.017360
20449797.419621
696656.302798
22520525.650617
-8081921.617166
11711613.732888
6603771.265390
1002679.578736
4896291.449296
126431.135387
-3286098.174737
9420452.953437
2707516.247407
6039197.961692
6617040.580810
-5509991.282871
2905752.054591
7508115.301201
6837347.632951
18347488.500200
16675773.448283
2752414.513543
4886361.412158
10562775.698927
5391724.267350
22765847.168426
-2687458.985236
343857.512214
5534653.031374