# vtk DataFile Version 2.0
Test
ASCII
DATASET POLYDATA
POINTS 1437 float
0.000000 0.000000 0.000000
30.000000 0.000000 0.000000
30.000000 100.000000 0.000000
0.000000 100.000000 0.000000
16.400000 50.000000 0.000000
2.142857 0.000000 0.000000
4.285714 0.000000 0.000000
6.428571 0.000000 0.000000
8.571429 0.000000 0.000000
10.714286 0.000000 0.000000
12.857143 0.000000 0.000000
15.000000 0.000000 0.000000
17.142857 0.000000 0.000000
19.285714 0.000000 0.000000
21.428571 0.000000 0.000000
23.571429 0.000000 0.000000
25.714286 0.000000 0.000000
27.857143 0.000000 0.000000
30.000000 2.040816 0.000000
30.000000 4.081633 0.000000
30.000000 6.122449 0.000000
30.000000 8.163265 0.000000
30.000000 10.204082 0.000000
30.000000 12.244898 0.000000
30.000000 14.285714 0.000000
30.000000 16.326531 0.000000
30.000000 18.367347 0.000000
30.000000 20.408163 0.000000
30.000000 22.448980 0.000000
30.000000 24.489796 0.000000
30.000000 26.530612 0.000000
30.000000 28.571429 0.000000
30.000000 30.612245 0.000000
30.000000 32.653061 0.000000
30.000000 34.693878 0.000000
30.000000 36.734694 0.000000
30.000000 38.775510 0.000000
30.000000 40.816327 0.000000
30.000000 42.857143 0.000000
30.000000 44.897959 0.000000
30.000000 46.938776 0.000000
30.000000 48.979592 0.000000
30.000000 51.020408 0.000000
30.000000 53.061224 0.000000
30.000000 55.102041 0.000000
30.000000 57.142857 0.000000
30.000000 59.183673 0.000000
30.000000 61.224490 0.000000
30.000000 63.265306 0.000000
30.000000 65.306122 0.000000
30.000000 67.346939 0.000000
30.000000 69.387755 0.000000
30.000000 71.428571 0.000000
30.000000 73.469388 0.000000
30.000000 75.510204 0.000000
30.000000 77.551020 0.000000
30.000000 79.591837 0.000000
30.000000 81.632653 0.000000
30.000000 83.673469 0.000000
30.000000 85.714286 0.000000
30.000000 87.755102 0.000000
30.000000 89.795918 0.000000
30.000000 91.836735 0.000000
30.000000 93.877551 0.000000
30.000000 95.918367 0.000000
30.000000 97.959184 0.000000
27.857143 100.000000 0.000000
25.714286 100.000000 0.000000
23.571429 100.000000 0.000000
21.428571 100.000000 0.000000
19.285714 100.000000 0.000000
17.142857 100.000000 0.000000
15.000000 100.000000 0.000000
12.857143 100.000000 0.000000
10.714286 100.000000 0.000000
8.571429 100.000000 0.000000
6.428571 100.000000 0.000000
4.285714 100.000000 0.000000
2.142857 100.000000 0.000000
0.000000 97.959184 0.000000
0.000000 95.918367 0.000000
0.000000 93.877551 0.000000
0.000000 91.836735 0.000000
0.000000 89.795918 0.000000
0.000000 87.755102 0.000000
0.000000 85.714286 0.000000
0.000000 83.673469 0.000000
0.000000 81.632653 0.000000
0.000000 79.591837 0.000000
0.000000 77.551020 0.000000
0.000000 75.510204 0.000000
0.000000 73.469388 0.000000
0.000000 71.428571 0.000000
0.000000 69.387755 0.000000
0.000000 67.346939 0.000000
0.000000 65.306122 0.000000
0.000000 63.265306 0.000000
0.000000 61.224490 0.000000
0.000000 59.183673 0.000000
0.000000 57.142857 0.000000
0.000000 55.102041 0.000000
0.000000 53.061224 0.000000
0.000000 51.020408 0.000000
0.000000 48.979592 0.000000
0.000000 46.938776 0.000000
0.000000 44.897959 0.000000
0.000000 42.857143 0.000000
0.000000 40.816327 0.000000
0.000000 38.775510 0.000000
0.000000 36.734694 0.000000
0.000000 34.693878 0.000000
0.000000 32.653061 0.000000
0.000000 30.612245 0.000000
0.000000 28.571429 0.000000
0.000000 26.530612 0.000000
0.000000 24.489796 0.000000
0.000000 22.448980 0.000000
0.000000 20.408163 0.000000
0.000000 18.367347 0.000000
0.000000 16.326531 0.000000
0.000000 14.285714 0.000000
0.000000 12.244898 0.000000
0.000000 10.204082 0.000000
0.000000 8.163265 0.000000
0.000000 6.122449 0.000000
0.000000 4.081633 0.000000
0.000000 2.040816 0.000000
16.388506 50.179028 0.000000
16.354213 50.355116 0.000000
16.297683 50.525374 0.000000
16.219846 50.687005 0.000000
16.121979 50.837355 0.000000
16.005689 50.973956 0.000000
15.872886 51.094564 0.000000
15.725750 51.197200 0.000000
15.566697 51.280178 0.000000
15.398339 51.342135 0.000000
15.223440 51.382054 0.000000
15.044872 51.399281 0.000000
14.865568 51.393531 0.000000
14.688471 51.364899 0.000000
14.516489 51.313856 0.000000
14.352446 51.241239 0.000000
14.199037 51.148241 0.000000
14.058779 51.036389 0.000000
13.933976 50.907520 0.000000
13.826677 50.763749 0.000000
13.738644 50.607437 0.000000
13.671322 50.441152 0.000000
13.625817 50.267622 0.000000
13.602876 50.089698 0.000000
13.602876 49.910302 0.000000
13.625817 49.732378 0.000000
13.671322 49.558848 0.000000
13.738644 49.392563 0.000000
13.826677 49.236251 0.000000
13.933976 49.092480 0.000000
14.058779 48.963611 0.000000
14.199037 48.851759 0.000000
14.352446 48.758761 0.000000
14.516489 48.686144 0.000000
14.688471 48.635101 0.000000
14.865568 48.606469 0.000000
15.044872 48.600719 0.000000
15.223440 48.617946 0.000000
15.398339 48.657865 0.000000
15.566697 48.719822 0.000000
15.725750 48.802800 0.000000
15.872886 48.905436 0.000000
16.005689 49.026044 0.000000
16.121979 49.162645 0.000000
16.219846 49.312995 0.000000
16.297683 49.474626 0.000000
16.354213 49.644884 0.000000
16.388506 49.820972 0.000000
16.142290 51.090246 0.000000
16.381031 49.246029 0.000000
16.476220 50.570036 0.000000
16.567534 49.809478 0.000000
13.432060 49.919357 0.000000
27.959184 67.346939 0.000000
15.062546 51.587060 0.000000
27.959184 79.591837 0.000000
2.040816 20.408163 0.000000
2.040816 30.612245 0.000000
2.040816 81.632653 0.000000
2.040816 69.387755 0.000000
27.959184 16.326531 0.000000
27.959184 24.489796 0.000000
27.959184 32.653061 0.000000
2.000226 63.022103 0.000000
2.040816 38.775510 0.000000
27.959184 38.775510 0.000000
2.063520 56.953992 0.000000
27.959184 59.183673 0.000000
15.000000 97.857143 0.000000
15.000000 2.142857 0.000000
27.959184 44.897959 0.000000
27.959184 51.020408 0.000000
2.058026 48.891267 0.000000
2.040816 12.244898 0.000000
27.959184 8.163265 0.000000
2.119286 91.907213 0.000000
27.959184 87.755102 0.000000
8.571429 2.142857 0.000000
21.428571 97.857143 0.000000
2.040816 6.122449 0.000000
27.959184 93.877551 0.000000
23.571429 2.142857 0.000000
6.428571 97.857143 0.000000
2.040816 44.897959 0.000000
15.808727 51.356253 0.000000
2.040816 77.551020 0.000000
27.959184 71.428571 0.000000
2.040816 26.530612 0.000000
4.285714 2.142857 0.000000
25.714286 97.857143 0.000000
2.021897 52.958989 0.000000
27.959184 53.061224 0.000000
27.914278 55.273576 0.000000
27.959184 61.224490 0.000000
27.879705 47.169173 0.000000
2.040816 36.734694 0.000000
1.985319 42.671502 0.000000
2.040816 4.081633 0.000000
27.959184 95.918367 0.000000
27.842785 41.012410 0.000000
27.904213 63.341606 0.000000
1.981595 60.897410 0.000000
2.040816 34.693878 0.000000
2.142857 97.857143 0.000000
27.857143 2.142857 0.000000
21.428571 2.142857 0.000000
8.571429 97.857143 0.000000
19.285714 2.142857 0.000000
10.714286 97.857143 0.000000
12.857143 2.142857 0.000000
17.142857 97.857143 0.000000
2.040816 73.469388 0.000000
2.040816 85.714286 0.000000
27.959184 28.571429 0.000000
27.957036 12.244796 0.000000
27.959184 20.408163 0.000000
27.959184 75.510204 0.000000
27.959184 81.632653 0.000000
2.040816 24.489796 0.000000
2.040816 18.367347 0.000000
2.101567 67.270721 0.000000
27.990742 34.718564 0.000000
2.040816 16.326531 0.000000
2.040816 10.204082 0.000000
2.040816 89.795918 0.000000
27.959184 83.673469 0.000000
27.959184 89.795918 0.000000
2.098379 2.081372 0.000000
27.901617 97.918624 0.000000
28.130079 4.091715 0.000000
1.869924 95.908287 0.000000
16.576970 50.167357 0.000000
25.954712 32.689406 0.000000
4.048051 69.354174 0.000000
4.081633 24.489796 0.000000
25.916213 79.588913 0.000000
4.086221 18.371935 0.000000
3.897904 34.877606 0.000000
3.923124 61.572806 0.000000
26.128612 39.133691 0.000000
26.214823 61.491956 0.000000
3.871989 43.375621 0.000000
26.265426 45.355943 0.000000
26.372982 51.593494 0.000000
15.011971 95.726257 0.000000
14.987483 4.273197 0.000000
4.095212 12.258477 0.000000
25.904714 87.741449 0.000000
8.590547 95.733404 0.000000
4.124327 91.817489 0.000000
23.644909 4.177846 0.000000
1.898679 46.664421 0.000000
1.887660 50.867252 0.000000
28.104743 49.216969 0.000000
28.091622 57.507646 0.000000
1.793213 54.763850 0.000000
1.898425 40.673936 0.000000
28.092220 43.114891 0.000000
1.898792 59.041649 0.000000
26.349643 53.492500 0.000000
3.788008 38.504633 0.000000
26.348185 4.174096 0.000000
28.073402 36.848913 0.000000
3.770644 95.809804 0.000000
1.947709 64.759841 0.000000
27.961478 65.481833 0.000000
2.032166 32.492602 0.000000
21.409200 4.266343 0.000000
6.436167 2.135262 0.000000
23.563887 97.864684 0.000000
17.151762 2.133952 0.000000
12.848401 97.865884 0.000000
10.720797 2.136346 0.000000
19.279431 97.863426 0.000000
25.741048 2.116095 0.000000
4.208553 97.884202 0.000000
2.040816 71.428571 0.000000
27.959184 73.469388 0.000000
2.040044 28.570656 0.000000
2.040816 79.591837 0.000000
2.040816 75.510204 0.000000
27.959184 30.612245 0.000000
27.959184 69.387755 0.000000
27.959184 77.551020 0.000000
2.040816 22.448980 0.000000
27.959184 22.448980 0.000000
27.959252 26.530681 0.000000
27.959184 18.367347 0.000000
2.040816 83.673469 0.000000
27.959184 14.285714 0.000000
25.913747 81.628033 0.000000
2.043283 87.757569 0.000000
2.046930 14.291828 0.000000
27.956122 10.201020 0.000000
27.953028 85.708130 0.000000
2.051111 8.173560 0.000000
27.948877 91.826428 0.000000
27.877535 6.025956 0.000000
2.132881 93.976795 0.000000
4.000357 6.267740 0.000000
4.120886 4.222927 0.000000
25.999609 93.732219 0.000000
25.879089 95.777048 0.000000
15.649674 48.560769 0.000000
26.010158 67.277614 0.000000
25.918367 24.489796 0.000000
4.081633 79.591837 0.000000
25.916050 16.328010 0.000000
23.873553 79.584761 0.000000
3.481175 55.433151 0.000000
24.733850 51.947925 0.000000
3.652422 50.744354 0.000000
25.910700 12.249504 0.000000
23.509255 6.363423 0.000000
26.366938 49.758281 0.000000
26.399277 43.548901 0.000000
3.661711 59.758281 0.000000
25.957156 34.691433 0.000000
10.699495 4.264413 0.000000
19.300303 95.735157 0.000000
17.109994 4.256463 0.000000
[...]
POINT_DATA 1437
SCALARS UX float 1
LOOKUP_TABLE default
14415063390731657216.000000
985557159723376640.000000
-15127087895801782272.000000
51885778954767941632.000000
1574946894166870428992018201968640.000000
-457910678177094656.000000
1514864992469273600.000000
8272048431860296704.000000
-10006760015587909632.000000
7644736841667368960.000000
-41750235104686686208.000000
174542793398472081408.000000
-160556943887370321920.000000
19893956092361220096.000000
2518622510230945792.000000
-6438439205068171264.000000
4700660309854507008.000000
-13676187541458841600.000000
183538988860232969453608886075392.000000
424577434056466117913365333409792.000000
383808947956715952516352931004416.000000
479224359444210695240568442716160.000000
473991309503334199237457666375680.000000
302074638881026974457178364051456.000000
313192659831628928903913226108928.000000
348474073950729482891388111552512.000000
216008016404473895833030411419648.000000
-190082295035405183634420860452864.000000
-1458696780618922065429247909953536.000000
1543374039849674478258643340886016.000000
469292469640636837695952231858176.000000
102675680314971676275243168563200.000000
741214142074883587738850182561792.000000
202256165425286546159195954085888.000000
604912981293604277978966981083136.000000
2566787231997180139583461941837824.000000
816634912892027776094171608121344.000000
1279354299555128891034435156180992.000000
896985991330024498619711758532608.000000
869237281035540466849998838956032.000000
363270217200456084016522449649664.000000
1977356654532394560274298545635328.000000
2186143141037695284797140849655808.000000
2017979163754336774896829677436928.000000
1809492415575233955476126335762432.000000
1455369723868450865768663015751680.000000
1570511215348159165825795047292928.000000
1390019084896951081211768944459776.000000
1196810045463867494458986527195136.000000
999659516741327312729583883649024.000000
764083990197114752049393319280640.000000
517185095098108247473887465439232.000000
280516829836810040005633371013120.000000
-65625752490208554358465267499008.000000
-1067680395656825918585025178107904.000000
-497801435860817976100029663805440.000000
262082343410034693072321412857856.000000
802007510598187053343498550902784.000000
358654859698978832116585068494848.000000
-255323992076508455139279502311424.000000
21801560514633077770539493228544.000000
22910178183953665931207138869248.000000
180734080688475460206405504466944.000000
-70207387175107469867628477022208.000000
-48565720179253553644151133700096.000000
1600959505808395137363406586118144.000000
9428261289951598592.000000
-7453602712364237824.000000
12689737293482780672.000000
36544712393074352128.000000
7460878349735628800.000000
-20854741671223881728.000000
59793859831220985856.000000
-257436946316224593920.000000
195731779251606323200.000000
-37137379116007153664.000000
1111313184372545024.000000
-1459472311583967232.000000
-10699333568613111808.000000
508462057499927635437565524312064.000000
131867638832533401967729747951616.000000
383255303653346897505041483038720.000000
161000756460093881178436128473088.000000
96073757829537519958502074744832.000000
63160025024871036418338251079680.000000
622169598006465020449365753331712.000000
-384658356793102565329418932191232.000000
-259520968160284495574940516352000.000000
-609942544935803194755892375453696.000000
-252670724840330787260350882381824.000000
188264855043879899339406547353600.000000
244803174179793135460174719352832.000000
411317699006139626117421529563136.000000
-561969340293593110890039276994560.000000
1143274484218123653947556697735168.000000
1377566073599800790317047666966528.000000
-1373876785761760622291723208359936.000000
-88176483324951523197605078106112.000000
1424961093085413163624362502258688.000000
1811170013839183954835073451163648.000000
902975667261602724398207109955584.000000
-334130274499286724883510894526464.000000
503739701296430536882371375923200.000000
702938919039483959795945375268864.000000
690765681794578344220980768931840.000000
902791054237310095460243311951872.000000
1905774502733269315664725739044864.000000
1104981353913608550379646896570368.000000
1000993889250146953546859810914304.000000
1268608163660780745304242567249920.000000
2088298201648671412244487044333568.000000
925035236825527635226017740619776.000000
1322580736521657293899880432926720.000000
2424688300570663728560532076101632.000000
-511650507616899159850448496623616.000000
821856811835068085193658542850048.000000
170349131469442635434295262445568.000000
-268767407046104547037773624770560.000000
-376057300078604422170412627001344.000000
-1332227583050662668587488497369088.000000
-1991607539733320105041072410853376.000000
-1228778558452077145403680788316160.000000
-581493978786824975757713917083648.000000
-149255174835240447382107969290240.000000
-714181927603200721323270325927936.000000
67899241212725223815988008452096.000000
-20224810328697531626931309510656.000000
1854042510443918517017293378027520.000000
1404530897819806845404488965029888.000000
1234334126721190775460044688326656.000000
1711229216280102026850497795719168.000000
1558005016653736496304266384769024.000000
1481127492352894836879491065708544.000000
185140977797319745397010596888576.000000
239477905803190783854777005506560.000000
450281394122040295061954590932992.000000
636118411557510065230759520632832.000000
2068748600322235041322941647159296.000000
2191839586146539893016184221597696.000000
2929832735560223279081686495657984.000000
2742022308470677239235538715672576.000000
-1361589924346919789171662192115712.000000
-784857458068849801468351013191680.000000
-1642923580430898700473548459212800.000000
-1092265567021156640052888440143872.000000
-904498475635430870107144830582784.000000
-1336565499510933486348020159086592.000000
-98208483809182220690102891315200.000000
739145408722022119956800163807232.000000
1711196355824886303391045749047296.000000
194874337755998143658668977029120.000000
171466535667154434516480075759616.000000
348250567552284521878594701492224.000000
439666044703819199980146155061248.000000
591622885421970247046646053470208.000000
909185494420871406558488882577408.000000
-124324308257219574253177681215488.000000
-162517368897726880415646960582656.000000
-527501270151319300042844100624384.000000
501907337367548581264215232217088.000000
314139558976203649781479508017152.000000
231233983707189306783137945092096.000000
-324693274422501073859200002555904.000000
-316461666876005445874360323670016.000000
468813758616182555911854130987008.000000
427717624264614647134645202714624.000000
409336541471897077018693132615680.000000
182297297369982530868143582085120.000000
371778030428951843365414481428480.000000
705134064567763483582703347957760.000000
427592172002792366012495764127744.000000
309317060637115031112968946319360.000000
2394017539289519433911747383132160.000000
1639812789140158049720569109151744.000000
1541039544567055933855728037527552.000000
1131860704094389271093783163830272.000000
667552829092566128239908940152832.000000
1129612618068162927658421631057920.000000
1736112952323583475729405489184768.000000
31752560600162385990664492941312.000000
794767404963311118173738173988864.000000
4021518834842377902227205885263872.000000
-39151717099536045999357064904704.000000
-360201895836029706536796098134016.000000
1402385288240669943863878354993152.000000
-478812272172266188218059999674368.000000
594288364253777484431893221867520.000000
250589052200726342582278383730688.000000
-228058201846777448490596537729024.000000
201387929398959878509840432103424.000000
453280395476611405711566320959488.000000
1120819998009052753716841352790016.000000
1214444371277952021930796348604416.000000
885822047381943822332156633415680.000000
1642576573882665679333462376448000.000000
82165818778537960667742501601280.000000
26763537271860905516245639495680.000000
865784573781854042240064054886400.000000
2200425376641208410102847458246656.000000
961549353240004733393007074607104.000000
-898528066829371124866364358000640.000000
455898439529974176394768319250432.000000
264462944338928014022908875636736.000000
107032540894067593235135270486016.000000
-159543320183698198918147698851840.000000
364535310687437487612748208537600.000000
-169414961631819093575427128557568.000000
-29158979392842345990193328160768.000000
80737067822688213315255588093952.000000
269849480115055939045411151413248.000000
1250630737928824086906130296471552.000000
443567074007364075857719989370880.000000
-194165407615048366629290959175680.000000
369802402401800171524944799203328.000000
432072618413670167824523539251200.000000
-114380216105143158881923299803136.000000
818511415429864833385598866685952.000000
89475086375761204306661456478208.000000
1933893090524315991827830687137792.000000
1717859449140768503681393230872576.000000
1448976696220340987484716526469120.000000
373693302585349290843261835935744.000000
1159517842748791126554490525712384.000000
1844575917913314199659912387100672.000000
12737507173083089548730330775552.000000
-660824410569068956420016806297600.000000
1065993026313754098072079011151872.000000
1179962446873639506581402196901888.000000
318202898757475323858898464538624.000000
1337280021277584248982810579173376.000000
416867929732042926210431806603264.000000
225284056533901461049743379529728.000000
6917161130558956934464498827264.000000
125523875160581310790797610713088.000000
190532953157352550920842379264.000000
132688579467640338457152947486720.000000
-178002486828842905664040260861952.000000
-214798114130561963629946744078336.000000
343215510132702579464527260155904.000000
198846173056234234947451282784256.000000
66588998621149899690539969675264.000000
323899698199621038690750942937088.000000
-599556842601406254471614165942272.000000
-91763998869892573882578670452736.000000
1183734608820900914021942169698304.000000
872365536096790674617574468091904.000000
-736218968795241321237194318282752.000000
549891627192040842360248443338752.000000
1457198033954597935253075605323776.000000
-1238571811404341846288562349146112.000000
-496609609640981445270147667329024.000000
331625881467201918906544582295552.000000
403414936954909299068951234347008.000000
599544972310272228043910725763072.000000
-32163888069476322631112414199808.000000
639057381128024145968187184250880.000000
356463771626922359469419276533760.000000
134445206717670430596151237410816.000000
1669871411612702571158240210452480.000000
-353261776808882329345616242540544.000000
583524618173758147939897821888512.000000
227601675024863945036355474554880.000000
298899794945033781121467511996416.000000
-765940918006782595358947687792640.000000
1336634316161575906118951556349952.000000
147057447743646446594547465060352.000000
728651971938913396241917389307904.000000
1452159389045768177295927669686272.000000
1399582334334549226416856046239744.000000
1329846537347509214884995264413696.000000
2073798190665308610630010483507200.000000
2075870413087900971315284727037952.000000
186294753668010992625418279845888.000000
-860127592636131683992791299391488.000000
84207533684105662687498068819968.000000
366101093821182280526585701335040.000000
339240243754416232356949956493312.000000
192727338753149406546650575405056.000000
740459687506762698370331069906944.000000
637396312087510812292963490594816.000000
2027668269627885072065177950617600.000000
1552397191741320563937102109081600.000000
731093783576013840201530428358656.000000
828017570398079908924637359112192.000000
1052685976379077287857059608395776.000000
1789124660456473812852962546941952.000000
1956692888869876799566882552152064.000000
1463597533438195702040509120774144.000000
345754459410989461085597925900288.000000
1475142745709508024453676738281472.000000
411791468906603498724038591643648.000000
1580277208664425326600895976177664.000000
992598916330535093855661968064512.000000
874960141987242362059576613797888.000000
204601980405629719462377903095808.000000
-166430584772785860908936832483328.000000
538793974190066502434774342172672.000000
12423251762970908183083513544704.000000
364649613539874371343066167508992.000000
-162201399823466112908222001053696.000000
385372787895967108988317292560384.000000
99703177113008986496020181417984.000000
248751770893686027073287761166336.000000
-294258940038019189068003916382208.000000
57509108897188898902701456228352.000000
1337298959208286720911332987633664.000000
-595518114242517633052206115586048.000000
361262325630755297976311414259712.000000
435765836264748601868230605144064.000000
635378931167386693948919345315840.000000
-390754706287405421041883665137664.000000
-272173260538138710088719483797504.000000
-597679351721546250508239506505728.000000
84875288931567391097525259730944.000000
-311957398916696139183728061579264.000000
-213893747917003714141998901362688.000000
311446912490475144084052972142592.000000
899179566418312302122016475971584.000000
117019742241514406549570656927744.000000
-1976704725939602448825232761290752.000000
416971740018524304676640696303616.000000
-221607315532744218506660595892224.000000
-165739798876246112442374879707136.000000
251134189161708016534138027769856.000000
342077102651506407552438522347520.000000
299357707382940070700003178315776.000000
-164924566916134580465918680236032.000000
-158220241415398192329109775843328.000000
125833102190543017565619157467136.000000
265519175246293569017976998330368.000000
144016998149658596590735870394368.000000
848304475996777048068112456351744.000000
-535038482489359933588840715911168.000000
-675169665691441675233496475369472.000000
115750464798971598227139232530432.000000
-102659537613595355075247511437312.000000
716314386756496464191174429638656.000000
2395936105065608001191221575811072.000000
733297111102026321263549799727104.000000
425481606600229424537598066425856.000000
345120341682613853956496076832768.000000
2587014909229473869496825178750976.000000
2153164150352650864139661802995712.000000
845385567137225793584715029020672.000000
1532232169264778783705565163945984.000000
-361530476871628035901034632052736.000000
1340276106717196981777080290115584.000000
186965273200144151060984251809792.000000
650402676292236750628650332717056.000000
329624861179461670169279333400576.000000
768881529981663686629718373695488.000000
-1471374008501864212082601666543616.000000
131322279464906609691399857111040.000000
-614606204118382570771160254906368.000000
-57032963820540204945204716765184.000000
-523555493626536805531649207959552.000000
715330249581766533343925535506432.000000
1254740841165050236437016703139840.000000
512886494166551290758345550462976.000000
1007992288893185111878780953034752.000000
1367078970375808780195103338659840.000000
1608385158532232906226663616937984.000000
929952791824012766921326644428800.000000
1522596638131535518619398616121344.000000
1671435578873653547983325383098368.000000
846811214959004372498310336872448.000000
885654951847573118150279954432000.000000
415051958305207723425723985166336.000000
391957656378913060215551885836288.000000
439397069188832791089393019387904.000000
969967612628238200693594427228160.000000
833369529245046523375555738337280.000000
1705012891333097231350975380324352.000000
993844015215330999771495028228096.000000
45417862593646541190376229699584.000000
326537720589153705281711207612416.000000
2080601369531178634449953826537472.000000
-198095455617837349311096373116928.000000
1802824608360361949084247648108544.000000
-144488401941916357258550626484224.000000
529731609734556630403030781526016.000000
-123538347514202978786691518562304.000000
514039517596795176478122646175744.000000
510202197291121355293517487800320.000000
-110469815506088686841155561717760.000000
-39544170644906417546704176807936.000000
-517916617347287511550706122227712.000000
-768937884556866199785966296629248.000000
-682931342849606949204536254791680.000000
-482494088780396959848307416367104.000000
217280748175951248485064745418752.000000
-1354050789666316173221714083184640.000000
714347258429742544466413621346304.000000
1412468829156831135316193734295552.000000
162601611503062918901813185871872.000000
-135244453039461741181079830659072.000000
556912606750653336698820885479424.000000
314411580642000326572871897841664.000000
233552313060175884047747397976064.000000
1465161037047335342341078495789056.000000
719573561423422220218900578041856.000000
2439312693014707174568083347996672.000000
1312152254103173630738709956526080.000000
-416877739444336865625436921528320.000000
-769144785378563962197076787331072.000000
-1021578154609882685239400901640192.000000
863762272738548940258975720407040.000000
1114269803593326654417388812894208.000000
612978982656810204874539888803840.000000
-328072471332879860013879292592128.000000
936687175974976254508213448212480.000000
1402192043174182481446794881400832.000000
317142159719909235648334663778304.000000
649695283583376617296189288611840.000000
-14027645119899126597966700216320.000000
128791520679215042559127567990784.000000
933094690756444762074257387683840.000000
-965198921476901726935253684060160.000000
484432140315098130310976101154816.000000
-7106125218299399403115624005632.000000
241574315047416992632777832660992.000000
1242258818127537458589616880746496.000000
490628019739797834119291980480512.000000
580014929454148983050082594062336.000000
401935004492442613148642216771584.000000
-21414967922772963263745292763136.000000
45868346123821724509901638598656.000000
1567562239296921997162990924726272.000000
1150986906782679483760051312656384.000000
797987128687378984969789992075264.000000
858688554401532456445407435685888.000000
1537833724453971609467870892785664.000000
2144725213237110425421471287345152.000000
631601528740755509107647833964544.000000
910009929118218161688295575126016.000000
735411851519381488811212021956608.000000
723737629252537468113328111878144.000000
470964943162554540457526200107008.000000
433214149824315642037402020610048.000000
542959146008969904671750778519552.000000
-379700607142220752613590893068288.000000
1016852624297222006876392958984192.000000
1464493271712789026776972345212928.000000
647864700710041575431711513116672.000000
15153149841498350396818998689792.000000
894733219813423861852231922876416.000000
145763711154745807735283989348352.000000
798865334415386391115330956034048.000000
121751135752468110569772423315456.000000
110650723464388373667551503187968.000000
-549632954244593295177086704549888.000000
-260855652664713556354942948605952.000000
-473965065162495746963857786011648.000000
624210023800878246804301702758400.000000
180777305841561041966811993604096.000000
422539235186033426683693136609280.000000
-1174119900191721537521999413248.000000
755486704018609494969070196359168.000000
753097004157228432940214106718208.000000
-577100760657489377550071108730880.000000
739305642473729136277985502953472.000000
205773637431244359343331866574848.000000
729443133621995731687420192620544.000000
295109636743806423210664132608000.000000
1525084530083642934177979873361920.000000
-521306372208981455827778895085568.000000
1543370437618516868937048418942976.000000
3417075748230242959608166700023808.000000
-376219643125612633182230479372288.000000
1406877055687631431308647891730432.000000
2120666827092060651575865243598848.000000
-258780016054479645192991100895232.000000
464337144987483845272369650204672.000000
479792282147171608981976238784512.000000
1055111140705194211063586386608128.000000
2398064608535472477839383601348608.000000
696343572943322080656581629837312.000000
-461363415068434145136036823433216.000000
-248363002366522246318788924407808.000000
791964509106304218879902382817280.000000
-220744639365495995097651936755712.000000
284924456412223434980078886322176.000000
668527862752436950131996241166336.000000
-1081560630151311524409714526912512.000000
881779786426074910244688099278848.000000
283912187793583678097869099761664.000000
2128270150459006221845535806980096.000000
796524000924872164439473313021952.000000
-63554024946388884864738980265984.000000
-215132878992926914509211281915904.000000
-113019129153705311930711659249664.000000