# vtk DataFile Version 2.0
Test
ASCII
DATASET POLYDATA
POINTS 1437 float
0.000000 0.000000 0.000000
30.000000 0.000000 0.000000
30.000000 100.000000 0.000000
0.000000 100.000000 0.000000
16.400000 50.000000 0.000000
2.142857 0.000000 0.000000
4.285714 0.000000 0.000000
6.428571 0.000000 0.000000
8.571429 0.000000 0.000000
10.714286 0.000000 0.000000
12.857143 0.000000 0.000000
15.000000 0.000000 0.000000
17.142857 0.000000 0.000000
19.285714 0.000000 0.000000
21.428571 0.000000 0.000000
23.571429 0.000000 0.000000
25.714286 0.000000 0.000000
27.857143 0.000000 0.000000
30.000000 2.040816 0.000000
30.000000 4.081633 0.000000
30.000000 6.122449 0.000000
30.000000 8.163265 0.000000
30.000000 10.204082 0.000000
30.000000 12.244898 0.000000
30.000000 14.285714 0.000000
30.000000 16.326531 0.000000
30.000000 18.367347 0.000000
30.000000 20.408163 0.000000
30.000000 22.448980 0.000000
30.000000 24.489796 0.000000
30.000000 26.530612 0.000000
30.000000 28.571429 0.000000
30.000000 30.612245 0.000000
30.000000 32.653061 0.000000
30.000000 34.693878 0.000000
30.000000 36.734694 0.000000
30.000000 38.775510 0.000000
30.000000 40.816327 0.000000
30.000000 42.857143 0.000000
30.000000 44.897959 0.000000
30.000000 46.938776 0.000000
30.000000 48.979592 0.000000
30.000000 51.020408 0.000000
30.000000 53.061224 0.000000
30.000000 55.102041 0.000000
30.000000 57.142857 0.000000
30.000000 59.183673 0.000000
30.000000 61.224490 0.000000
30.000000 63.265306 0.000000
30.000000 65.306122 0.000000
30.000000 67.346939 0.000000
30.000000 69.387755 0.000000
30.000000 71.428571 0.000000
30.000000 73.469388 0.000000
30.000000 75.510204 0.000000
30.000000 77.551020 0.000000
30.000000 79.591837 0.000000
30.000000 81.632653 0.000000
30.000000 83.673469 0.000000
30.000000 85.714286 0.000000
30.000000 87.755102 0.000000
30.000000 89.795918 0.000000
30.000000 91.836735 0.000000
30.000000 93.877551 0.000000
30.000000 95.918367 0.000000
30.000000 97.959184 0.000000
27.857143 100.000000 0.000000
25.714286 100.000000 0.000000
23.571429 100.000000 0.000000
21.428571 100.000000 0.000000
19.285714 100.000000 0.000000
17.142857 100.000000 0.000000
15.000000 100.000000 0.000000
12.857143 100.000000 0.000000
10.714286 100.000000 0.000000
8.571429 100.000000 0.000000
6.428571 100.000000 0.000000
4.285714 100.000000 0.000000
2.142857 100.000000 0.000000
0.000000 97.959184 0.000000
0.000000 95.918367 0.000000
0.000000 93.877551 0.000000
0.000000 91.836735 0.000000
0.000000 89.795918 0.000000
0.000000 87.755102 0.000000
0.000000 85.714286 0.000000
0.000000 83.673469 0.000000
0.000000 81.632653 0.000000
0.000000 79.591837 0.000000
0.000000 77.551020 0.000000
0.000000 75.510204 0.000000
0.000000 73.469388 0.000000
0.000000 71.428571 0.000000
0.000000 69.387755 0.000000
0.000000 67.346939 0.000000
0.000000 65.306122 0.000000
0.000000 63.265306 0.000000
0.000000 61.224490 0.000000
0.000000 59.183673 0.000000
0.000000 57.142857 0.000000
0.000000 55.102041 0.000000
0.000000 53.061224 0.000000
0.000000 51.020408 0.000000
0.000000 48.979592 0.000000
0.000000 46.938776 0.000000
0.000000 44.897959 0.000000
0.000000 42.857143 0.000000
0.000000 40.816327 0.000000
0.000000 38.775510 0.000000
0.000000 36.734694 0.000000
0.000000 34.693878 0.000000
0.000000 32.653061 0.000000
0.000000 30.612245 0.000000
0.000000 28.571429 0.000000
0.000000 26.530612 0.000000
0.000000 24.489796 0.000000
0.000000 22.448980 0.000000
0.000000 20.408163 0.000000
0.000000 18.367347 0.000000
0.000000 16.326531 0.000000
0.000000 14.285714 0.000000
0.000000 12.244898 0.000000
0.000000 10.204082 0.000000
0.000000 8.163265 0.000000
0.000000 6.122449 0.000000
0.000000 4.081633 0.000000
0.000000 2.040816 0.000000
16.388506 50.179028 0.000000
16.354213 50.355116 0.000000
16.297683 50.525374 0.000000
16.219846 50.687005 0.000000
16.121979 50.837355 0.000000
16.005689 50.973956 0.000000
15.872886 51.094564 0.000000
15.725750 51.197200 0.000000
15.566697 51.280178 0.000000
15.398339 51.342135 0.000000
15.223440 51.382054 0.000000
15.044872 51.399281 0.000000
14.865568 51.393531 0.000000
14.688471 51.364899 0.000000
14.516489 51.313856 0.000000
14.352446 51.241239 0.000000
14.199037 51.148241 0.000000
14.058779 51.036389 0.000000
13.933976 50.907520 0.000000
13.826677 50.763749 0.000000
13.738644 50.607437 0.000000
13.671322 50.441152 0.000000
13.625817 50.267622 0.000000
13.602876 50.089698 0.000000
13.602876 49.910302 0.000000
13.625817 49.732378 0.000000
13.671322 49.558848 0.000000
13.738644 49.392563 0.000000
13.826677 49.236251 0.000000
13.933976 49.092480 0.000000
14.058779 48.963611 0.000000
14.199037 48.851759 0.000000
14.352446 48.758761 0.000000
14.516489 48.686144 0.000000
14.688471 48.635101 0.000000
14.865568 48.606469 0.000000
15.044872 48.600719 0.000000
15.223440 48.617946 0.000000
15.398339 48.657865 0.000000
15.566697 48.719822 0.000000
15.725750 48.802800 0.000000
15.872886 48.905436 0.000000
16.005689 49.026044 0.000000
16.121979 49.162645 0.000000
16.219846 49.312995 0.000000
16.297683 49.474626 0.000000
16.354213 49.644884 0.000000
16.388506 49.820972 0.000000
16.142290 51.090246 0.000000
16.381031 49.246029 0.000000
16.476220 50.570036 0.000000
16.567534 49.809478 0.000000
13.432060 49.919357 0.000000
27.959184 67.346939 0.000000
15.062546 51.587060 0.000000
27.959184 79.591837 0.000000
2.040816 20.408163 0.000000
2.040816 30.612245 0.000000
2.040816 81.632653 0.000000
2.040816 69.387755 0.000000
27.959184 16.326531 0.000000
27.959184 24.489796 0.000000
27.959184 32.653061 0.000000
2.000226 63.022103 0.000000
2.040816 38.775510 0.000000
27.959184 38.775510 0.000000
2.063520 56.953992 0.000000
27.959184 59.183673 0.000000
15.000000 97.857143 0.000000
15.000000 2.142857 0.000000
27.959184 44.897959 0.000000
27.959184 51.020408 0.000000
2.058026 48.891267 0.000000
2.040816 12.244898 0.000000
27.959184 8.163265 0.000000
2.119286 91.907213 0.000000
27.959184 87.755102 0.000000
8.571429 2.142857 0.000000
21.428571 97.857143 0.000000
2.040816 6.122449 0.000000
27.959184 93.877551 0.000000
23.571429 2.142857 0.000000
6.428571 97.857143 0.000000
2.040816 44.897959 0.000000
15.808727 51.356253 0.000000
2.040816 77.551020 0.000000
27.959184 71.428571 0.000000
2.040816 26.530612 0.000000
4.285714 2.142857 0.000000
25.714286 97.857143 0.000000
2.021897 52.958989 0.000000
27.959184 53.061224 0.000000
27.914278 55.273576 0.000000
27.959184 61.224490 0.000000
27.879705 47.169173 0.000000
2.040816 36.734694 0.000000
1.985319 42.671502 0.000000
2.040816 4.081633 0.000000
27.959184 95.918367 0.000000
27.842785 41.012410 0.000000
27.904213 63.341606 0.000000
1.981595 60.897410 0.000000
2.040816 34.693878 0.000000
2.142857 97.857143 0.000000
27.857143 2.142857 0.000000
21.428571 2.142857 0.000000
8.571429 97.857143 0.000000
19.285714 2.142857 0.000000
10.714286 97.857143 0.000000
12.857143 2.142857 0.000000
17.142857 97.857143 0.000000
2.040816 73.469388 0.000000
2.040816 85.714286 0.000000
27.959184 28.571429 0.000000
27.957036 12.244796 0.000000
27.959184 20.408163 0.000000
27.959184 75.510204 0.000000
27.959184 81.632653 0.000000
2.040816 24.489796 0.000000
2.040816 18.367347 0.000000
2.101567 67.270721 0.000000
27.990742 34.718564 0.000000
2.040816 16.326531 0.000000
2.040816 10.204082 0.000000
2.040816 89.795918 0.000000
27.959184 83.673469 0.000000
27.959184 89.795918 0.000000
2.098379 2.081372 0.000000
27.901617 97.918624 0.000000
28.130079 4.091715 0.000000
1.869924 95.908287 0.000000
16.576970 50.167357 0.000000
25.954712 32.689406 0.000000
4.048051 69.354174 0.000000
4.081633 24.489796 0.000000
25.916213 79.588913 0.000000
4.086221 18.371935 0.000000
3.897904 34.877606 0.000000
3.923124 61.572806 0.000000
26.128612 39.133691 0.000000
26.214823 61.491956 0.000000
3.871989 43.375621 0.000000
26.265426 45.355943 0.000000
26.372982 51.593494 0.000000
15.011971 95.726257 0.000000
14.987483 4.273197 0.000000
4.095212 12.258477 0.000000
25.904714 87.741449 0.000000
8.590547 95.733404 0.000000
4.124327 91.817489 0.000000
23.644909 4.177846 0.000000
1.898679 46.664421 0.000000
1.887660 50.867252 0.000000
28.104743 49.216969 0.000000
28.091622 57.507646 0.000000
1.793213 54.763850 0.000000
1.898425 40.673936 0.000000
28.092220 43.114891 0.000000
1.898792 59.041649 0.000000
26.349643 53.492500 0.000000
3.788008 38.504633 0.000000
26.348185 4.174096 0.000000
28.073402 36.848913 0.000000
3.770644 95.809804 0.000000
1.947709 64.759841 0.000000
27.961478 65.481833 0.000000
2.032166 32.492602 0.000000
21.409200 4.266343 0.000000
6.436167 2.135262 0.000000
23.563887 97.864684 0.000000
17.151762 2.133952 0.000000
12.848401 97.865884 0.000000
10.720797 2.136346 0.000000
19.279431 97.863426 0.000000
25.741048 2.116095 0.000000
4.208553 97.884202 0.000000
2.040816 71.428571 0.000000
27.959184 73.469388 0.000000
2.040044 28.570656 0.000000
2.040816 79.591837 0.000000
2.040816 75.510204 0.000000
27.959184 30.612245 0.000000
27.959184 69.387755 0.000000
27.959184 77.551020 0.000000
2.040816 22.448980 0.000000
27.959184 22.448980 0.000000
27.959252 26.530681 0.000000
27.959184 18.367347 0.000000
2.040816 83.673469 0.000000
27.959184 14.285714 0.000000
25.913747 81.628033 0.000000
2.043283 87.757569 0.000000
2.046930 14.291828 0.000000
27.956122 10.201020 0.000000
27.953028 85.708130 0.000000
2.051111 8.173560 0.000000
27.948877 91.826428 0.000000
27.877535 6.025956 0.000000
2.132881 93.976795 0.000000
4.000357 6.267740 0.000000
4.120886 4.222927 0.000000
25.999609 93.732219 0.000000
25.879089 95.777048 0.000000
15.649674 48.560769 0.000000
26.010158 67.277614 0.000000
25.918367 24.489796 0.000000
4.081633 79.591837 0.000000
25.916050 16.328010 0.000000
23.873553 79.584761 0.000000
3.481175 55.433151 0.000000
24.733850 51.947925 0.000000
3.652422 50.744354 0.000000
25.910700 12.249504 0.000000
23.509255 6.363423 0.000000
26.366938 49.758281 0.000000
26.399277 43.548901 0.000000
3.661711 59.758281 0.000000
25.957156 34.691433 0.000000
10.699495 4.264413 0.000000
19.300303 95.735157 0.000000
17.109994 4.256463 0.000000
[...]
POINT_DATA 1437
SCALARS UX float 1
LOOKUP_TABLE default
1005892967946094989215882177750111060240778995136409237144534489280302819911799911113666303110232350834998375073447936.000000
-5179453465764773694746532896753740514416416472462757386076496190860414527951720111604864628762538345789158198077292544.000000
-111086756708929443797983128827244748786283852157076580221048675243430131675128441915415455795745930247628092338304121307136.000000
-1166414643032567773428528063152366868729509476734157458687994451466756274462662807466244857934093967307785988361682944.000000
-611822244024945313942494144073002486073448865341702614318189503782950293715120606615107173517770780400948524524400697014755222618112.000000
-1891503499056965155482281962551528767591457548606662073916481416550338403791712840537065689215247197747387958850224128.000000
-2387044005669095675747015563243393171887292156138626691115762665354289061651794065102044584593994330298858726362185728.000000
-902995625291958278417948122478565348808741630256533041675155339437775288827138564478262624327047477832951825136877568.000000
3200049794045052314401525232092813340303663447937182063720782802404150857371961832964685740736741161367637190013616128.000000
-8903521389118651806919787908299793614620026642267421977594546556170776852675962339234661947658546395637677739858722816.000000
4652186511114325578164401320797256567806556336322863182356418661955877956275557108908303513433576328962109682541920256.000000
799075191388414909086045505088728724049814683567984587895514319522338853481161003140695677316119898730366354080137216.000000
23512286133281681678564990549964300825631102757034156771840221369763117619477837104077159937087338362545192319840157696.000000
-20296263759145706716147224313546871361645089239438059474475273995124696937646036381825569032687277693520268628611563520.000000
4072925079224527495855531884491273604574150499335389149463548246335412136882765793108002650964908746890010771392036864.000000
-2725743362502682482194386038381331786243005403229369955495575722027994166939777315588069685626841856086252186945716224.000000
-4900804599608342266308102233188517608519693105864696065370615341809486898885353990763221489805801951482908281130713088.000000
7203117546097893535535090315848858017481791352985424251275999238208088474806815078364024500948783908941097407111757824.000000
6114600960398133360067118284393655077998082202878789639217109184870951218705707331959562743931782780960073467664453560575817940992.000000
110410154927365094835154999935015962334873614633419194011446097498806839723642157318771460383586364533598067534203182559910892142592.000000
-46945701771635468610516177805427031258256522151333568494930872446425347673065197334780810785016481531465335300067770906456493129728.000000
-12275210118014389689389603845129203027655805252220063880066023770172461245398804788103637423710570626926018051258338254362513506304.000000
-100301462973400410956383090182415883880996773505760614052298422240845351535066111286185166204857894286348079587275513160760456904704.000000
-100322580688891534013789825059817476972115456017506923876283796330111468997529285927208334762435525518264915746301096197733646073856.000000
-116576414051518823460163875033728804998541121200862165296455992966898158600297903401371642118280407280302975268373513875013603688448.000000
-170723853444462722045393721930322074419500696223057571623339420446512529366684582153417686705849017574869048004289445429019594981376.000000
-206792002829176130141429504346098772822565565123004546941721391538534688234442947976810063563721838117743794259126351606490230423552.000000
-215030901901562278724064745716717048011164762544765781509105059985864663438542581821322014014922470847789456259585631854434541633536.000000
-246934301698261290559760838538729195891012852005748914000910367530881188328564770069183220232920237709413222826107206271265759297536.000000
-254829028102606874363818434738248945868318770656575696985429645625291725180124956370880882516089620689035900907330480432028747563008.000000
-286439741531160951530851292876202368074967092484657018798106816554096641826303592272813882359493517199339369544735358571577960562688.000000
-259369018149644093234481190456586513608562754729122189201950889404523064535347715752885500402837906827775081379357509973850867105792.000000
-253457926765168142142861123678578886280825206636488176554719202945522376978775062749699705833610346936591747543085960549884311371776.000000
-222309937374169832459303223294674706814676191111070694930724836205918889913272281974792733656979767957821077520288245348678657638400.000000
-179448264539405870821091182086341730669163690574520869471567783095608147070585279606984993365242730333739134337778561650871767138304.000000
-333886274849224078842428152618464992404620897796153051924087321811852677686765182225458534490799954930392285742627323393281009647616.000000
-221764711287566847865667308592926857241412675544832225685956286560061594539519072376310849930762820889594287402017728259878398459904.000000
-255790200896814887001610069425934515934759612481614896442836729586337661300335245171336087633067581629939540109947049352215788519424.000000
-257176565007589225147035068945489302885303135197743240057858896027590740097361400369897495482263387013379482991657124485532913500160.000000
-342590634080512276314837680893489889550946519888272667532986319304968817014298845172300250685848896421933968202443731010022723813376.000000
-402451429502368504779905454781230756208768536425910799820002560521052649381305013633924164083401954171681023934957766602397524688896.000000
-498960988779537957334086676369095482142754526440782806143234538784190346263765616515854592461823042181283593540658348778147152920576.000000
-578322351996857443660236617090790294571617584492093552371842744255016371114222365187027062046881823879065769459034840879616407633920.000000
-472173354964390087106160889717388519189420859299956232594136423688408245592848469784101086070085465463008095004655517331239567622144.000000
-134919415131521133204420901270486147776471829870482364625439806409798097768628912885632784390899311846372218674676023008741648498688.000000
-49936212487015713400380358688954907164375416219906668661887391110381491175120344659024769187328967916828957501468687367463986266112.000000
-1020964499352349085685164842658660412754463805619891527319603750304200895190812590029228308905444653230440952041503941886450333646848.000000
-805079682993470753596869383265319920485980737290368976442923725835104505698903463853016503977932246140242884677761824071953716084736.000000
-559433315370983384963024537598640527490014213248231183441987422404718454290196072939194717566620867611122713288164326546971637579776.000000
-401532367727595571374555678408653619439594917604181725134157145659798539132245148907674091195233211553553051778148527906946639986688.000000
-355913737301434502995762301453396983016400148552700142300158687808174145554560012849929557367184940338652507685679474153725488005120.000000
-324166224311065085722269485467815819659644776784667261814248186417456476257557457454507750508597146985043224610860673161155443687424.000000
-279849342832013873413809289539955140074601336334853314024935904213181118480393337253495365193754685343161866705592905656992664649728.000000
-164514870512634923282388862902654918111984891626274510984470750004799051199079577338207935015120434482547158060923559581143057563648.000000
55773525913160970073979303197390388000840574563402271357272453718978488521590959166421360831739600645536187435635156452502673555456.000000
52143190962291738395627967156235329994878595471417609193287323996954659544625689284421005361170716063839445869562837436996268326912.000000
184851862428527495527344684970505763095781333439150653953201017385533989564643056895170025405359681965717191477216637419106307407872.000000
-55530113527152971865696763142154784291764241775578421847793939989023454596409911623508139034712141421697562696712390351525062377472.000000
-206803107214132842965228341401314639290094068540292903673976418253417584729160947368823673419044146212138029317125142044332198461440.000000
-115918989335232433482132611332200941568239767328271182072811208804746990412066788622603527807926227102622189589718127536615427407872.000000
14509423125131033828494399484391170047387590101446490436997990429341469097451489855336520476944891391618457816952585054954702503936.000000
-36016147283720717743371471177317399882817584494872904539153627847224888618211319298912537349286727364601191025232645925409233305600.000000
-24511772776090018197748715834829228563018458953278465251642068993351576455158802273045197462625389817680178420060069051980555747328.000000
9178791251001848381219169126013072152475279444756644561166569060573619005699455338793060698033958932653224640085348811367472168960.000000
90361895255292544436312132672269534941872682601565362615118702983434626050303088090867980111828743478441807562673335004316041216.000000
-191770110115150079016558139422860379982115633639518446393246599669050471754823264808147482467604821348150676100744956802339176448.000000
222172453171158823285771610018480760082809460710037369693076818453511028288646786151377199609528223057653324394385004036096.000000
-14835377760228602349233650034580866288450495704608539985038638006082269806193024406250457453161348781264477997017214222336.000000
-165777592343430959186182843089732428509465867391348719659510496532029119777774944171130007357032833019707179120073749037056.000000
19238059741343781679710587968376348342426050168520866127953262939482364249787055873983429575308487647216141575492145774592.000000
-12280189971311881501588231577333041609236890396104989553047040023067818175941026317054820679149163993876931136550470680576.000000
8909597002176408626384274644253254126612622852234754670520199171125008173333196807014444706681870115904702032002852847616.000000
-2385235422411864114884390791492941175279168423131232316712243715449923235510435819436517824960114357084330766039699685376.000000
630917599622319845964936651122874996454136314844548709125558189965483458476196658257329416610766945357086218557400809472.000000
-145443651536006847173762958558502767121942772329081372357096767026613388040284411680174327899696578550605606956738543616.000000
-43036338914868403091747744457652228026092573488907437913274206088370344305850837350237564894618148857150025200845193216.000000
75462174046964741296020705461432194889945398844644403920981990247946912657542988396295331524144961810571416517073698816.000000
-19826015516934352027814720756763005301917325184894140035811271932217226095781707887843977934663178777646634494215585792.000000
4897208493735054124953118978493288119163884091103432163869108575752736970516116319904154646422448371186025047240212480.000000
-24084874193021465475105044910248878454247893980261844167966965499077352200792795255738297776501627771843859042933267667930165805056.000000
72404461385174845912828322943654888501406206230808524732022878303719413735227862318751664427516258434250139178411946774653566976.000000
-11339294964910787808511488869764149070656107335808383510491602624325352649953871881041732660045359809083667689995454480057330827264.000000
-15102133158312486831351199404845131159296447548862878867133303894156117400712275023297069678770538019093540879063030662612316585984.000000
-23007008259296617881118902418745031906558682001750904162934234080161431064894298835986369973778876605758945618808229072066725281792.000000
-99757211953060811429081665240829541668752749231904342690671999783444376683929449587310118066273355211146201419286630032391115112448.000000
-23638771902730237789035417084012767517224136160461834061106565810862192900144190629597535679618207039181904877393428408496780476416.000000
-296003172670572682024740490551430722836125625964154358830718000379170182341734574212280478405136262432507331694418367588557847003136.000000
-455170423567165463510074703097073843834922161448339913587148174367685381800925837429723647398175888009726454527204322598359161372672.000000
-237258814974402047078281600335937626782201540165663737252734567612311081030484155280922875646961064034442884968073846812169381871616.000000
-352571310275354013072632677920150072850570170803534788889644592117500987820041998355854998748135022099626299221276047859684892213248.000000
-454335965023590099529475307435738452757941865571562030961404414244275331919462679286335064691169363840288429374570602366681856606208.000000
-638384553421838174127653085930183393887153634904688846510869481808008702571375464040574710471337095574588589339313447432172582469632.000000
-746650984681239957284561285384910216590100043604499646000620850627616966163868835382464791821867080830624959209089861861058247917568.000000
-883225476752420691620155665669682999788688303440036901395510541238575251827080386896364252054352332535718070377146937037710329643008.000000
-813611679769834262452397334845089848417769176659313594692015760041549178745199214571897123070490292318234463784623934410456844730368.000000
-1225909818673514273263349389915393148858653062564743892009784083337535274462343966379291826246280634340240575355787755697750107226112.000000
-739578458916008260709783126341629579760926534046913122540217137039132511362017565446182098313073282227359149783912155407468634046464.000000
-470742457408207936388966812344851406686443522896443174800837307286056234137490841671217333037960947376940325828407451781113954959360.000000
-287790287828006288223413628879294025986362796669109535861833251415609836150075120440279243982602606189212981148654203927926268755968.000000
126012079333456819103317218012885707684947452909894124644946933595928624256886090425111425870028996483421428379692367052567216128000.000000
-66621750802079677882770930979384784276379138980481068562273847637546089208658685088183570791454034815608792613540533406582720954368.000000
-456819701271562361701734858471944157835426191537706274194603411835458008228701857755310562947801225843370495646092847472654784921600.000000
-2185337125410559372788442410177004950123343397043948496404468092709881426063271418270655127653531951355218220281429518927700221231104.000000
-227066883416223306703941468526433286541578468837303096991026083213330204718205323022272858781105278669272046772363298907800622596096.000000
-240520883698316751409242134923830208803369637264939806247579883141390404662783235061864961770404667164207183312266104283936520667136.000000
-225440260346130326597807719635694432051283911426995124401332565281714837845947755642357494428620248690231831828754910998973915332608.000000
-176735687654308670221553567200021600256874263318164840772018725907487451573388454579951776580411349895166807679326206193110546907136.000000
-244293484873703924542976313054547975505624786195571631768820096424691450163436167907448717849017081111291136913933029774547111378944.000000
-335272541312599309481169059051438721403036277889606833787285989794834550189085460843656258016303816623448497887014530304118181855232.000000
-391956456882545353945314178121075873734993139093990732390205336607133861129129379585703974731954456620371981331599410031711509020672.000000
-368939490725944062018014469891110494679122170215763410956671158421310944990761272874127224476500648317160951659246036944199387971584.000000
-256224363502765795919408475697566986395914231447165669032465744843453513180600331961606480379091930324266854121045493758683986788352.000000
-185584958706153103985834507337273452586963901868554934464641344681615841246270872264493090388387853341824887747044089967340416925696.000000
-160586160355125980460105606800321895934324756349533706537584009779873561684209202607318570745912669488204610438572276615258071629824.000000
-55115724104844651133004019869921224525501775882674542746009574040332046689571582266038988567497964154304384905988683950376821456896.000000
-201990801002611180232113302154459199190622983294405337352446891562270748142880134638074789784113903167418014060242110497844333903872.000000
-174050234042916023222360146837281460737937648229483030688969223372878248932713260550311090380842245118278495297482530301492412284928.000000
-145158874681421516735679955437632458701489109350582196601881627514779691267719500502571259553542447972839375453414638134971586314240.000000
-181067372522742499911327902406521422579118188167200431148859110949105359996506759178426994783953664667870607801139375521242537787392.000000
-42184569186381372538195551146684551492793126403157490688644024278137135376717340644002951768749878483414967563841957277126012960768.000000
-78706693388783999294371349697383479285352692994087379471857084795888330325546966901078836019874331271773417262468869695060037337088.000000
-60448549290976368568473904502618856630247608051418918965246682711644539986019249463495754259607516755242434359007090617050604765184.000000
6018178916922088825375012841996456473437038615496932016688969152812069932850130388848557391713855065126485985064428876210380996608.000000
-7640305838649586001704050633625682425929835458775868732850543877964888897126395796398755590429874154579626751304179045015570350080.000000
-58397025711109873710149539121786996336439150849069269335140429467734139056756876283559060215540909791929394639633155477072924114944.000000
-27772729071922116763721509579606866681558069928289543260179573521784766598330952777191148747610899006156391246736234671038951063552.000000
-6057081011728445279709565474408920209955937266811000047795528353961066053729814761549414914567898995930313799953714116157604102144.000000
-371326340144624255686661392405755123356490037563198791050054698365070303307908277204964616521519410805812402301025318828581945606144.000000
-475258711258246126992358139062808390801707037960896105784169386755124157077841113057168608412600379962705307718667025432455547977728.000000
-279542737659089171627069911281625508722280930599424135617752653968025264742783528018492099644798324801077274915148672339017358901248.000000
-316230237071248757420873740782558876657304271535396134387287975623304572851161495266088869164198602152603451070653992375833428230144.000000
-46834772063201695262504315770126980088634767881782041740711862206318312579334881131228967638562173088696653652472806252832547143680.000000
-115808952732411256602739932334860719530179818578945176044604305035897009283486124185155990761680425082318108449245646557344715243520.000000
-170553402343024636865892870176515573611830849296134896036022680346480145951332744104403755942886416906438037200436050108306608357376.000000
-209524793137933035220050540201426528802067199243505270083054609148360965673545541909886783215303763991495262283992239784893702209536.000000
-193392085190037410034791393817211049622263254728268474883258111445806928595414657414280568105642818456189716536493576333556602372096.000000
-234357225117436694008455083939757798135426866030901372988488214524883828427051123116437774231274816599056535454339152820737010565120.000000
-146263366993311648463564682467939731642171070997184442782649401496609297856061039145339196565825324726953561619998374142560438321152.000000
-161987549786966692306306616776175801547515483248273572670273559750104378782339578580271890736349617852184233339057015403490639347712.000000
-161132676667997059290244951785715319285635329580316387367107765376298110284261676875419349961164971107560703341483973758396697411584.000000
-154036446253204487989330140562951504425789702812872856123376388333361903991181065074481176510652775365342787548796714379006200250368.000000
-214542743143228601013743930997006968197246235826022337307518358071936783793015964723734167994466615356292465953358497831553754726400.000000
-302926350307277326630189769006650440022882901515248481957138543302450669229238755622767760064260025463273172570952739045367049355264.000000
-280125584521253658984732740618891583799227843934476855274625435321742732300586205274769371709208591541622166491771324596429218906112.000000