# vtk DataFile Version 2.0
Test
ASCII
DATASET POLYDATA
POINTS 1770 float
0.000000 0.000000 0.000000
1.000000 0.000000 0.000000
1.000000 1.000000 0.000000
0.000000 1.000000 0.000000
0.000000 0.500000 0.000000
1.000000 0.700000 0.000000
0.076923 0.000000 0.000000
0.153846 0.000000 0.000000
0.230769 0.000000 0.000000
0.307692 0.000000 0.000000
0.384615 0.000000 0.000000
0.461538 0.000000 0.000000
0.538462 0.000000 0.000000
0.615385 0.000000 0.000000
0.692308 0.000000 0.000000
0.769231 0.000000 0.000000
0.846154 0.000000 0.000000
0.923077 0.000000 0.000000
1.000000 0.075421 0.000000
1.000000 0.143732 0.000000
1.000000 0.205602 0.000000
1.000000 0.261640 0.000000
1.000000 0.312395 0.000000
1.000000 0.358364 0.000000
1.000000 0.400000 0.000000
1.000000 0.437711 0.000000
1.000000 0.471866 0.000000
1.000000 0.502801 0.000000
1.000000 0.530820 0.000000
1.000000 0.556197 0.000000
1.000000 0.579182 0.000000
1.000000 0.600000 0.000000
1.000000 0.618855 0.000000
1.000000 0.635933 0.000000
1.000000 0.651401 0.000000
1.000000 0.665410 0.000000
1.000000 0.678099 0.000000
1.000000 0.689591 0.000000
1.000000 0.711139 0.000000
1.000000 0.725174 0.000000
1.000000 0.742857 0.000000
1.000000 0.765136 0.000000
1.000000 0.793206 0.000000
1.000000 0.828571 0.000000
1.000000 0.873129 0.000000
1.000000 0.929269 0.000000
0.923077 1.000000 0.000000
0.846154 1.000000 0.000000
0.769231 1.000000 0.000000
0.692308 1.000000 0.000000
0.615385 1.000000 0.000000
0.538462 1.000000 0.000000
0.461538 1.000000 0.000000
0.384615 1.000000 0.000000
0.307692 1.000000 0.000000
0.230769 1.000000 0.000000
0.153846 1.000000 0.000000
0.076923 1.000000 0.000000
0.000000 0.926029 0.000000
0.000000 0.861633 0.000000
0.000000 0.805574 0.000000
0.000000 0.756771 0.000000
0.000000 0.714286 0.000000
0.000000 0.677300 0.000000
0.000000 0.645102 0.000000
0.000000 0.617073 0.000000
0.000000 0.592671 0.000000
0.000000 0.571429 0.000000
0.000000 0.552936 0.000000
0.000000 0.536837 0.000000
0.000000 0.522822 0.000000
0.000000 0.510621 0.000000
0.000000 0.489379 0.000000
0.000000 0.477178 0.000000
0.000000 0.463163 0.000000
0.000000 0.447064 0.000000
0.000000 0.428571 0.000000
0.000000 0.407329 0.000000
0.000000 0.382927 0.000000
0.000000 0.354898 0.000000
0.000000 0.322700 0.000000
0.000000 0.285714 0.000000
0.000000 0.243229 0.000000
0.000000 0.194426 0.000000
0.000000 0.138367 0.000000
0.000000 0.073971 0.000000
0.009804 0.501961 0.000000
0.019608 0.503922 0.000000
0.029412 0.505882 0.000000
0.039216 0.507843 0.000000
0.049020 0.509804 0.000000
0.058824 0.511765 0.000000
0.068627 0.513725 0.000000
0.078431 0.515686 0.000000
0.088235 0.517647 0.000000
0.098039 0.519608 0.000000
0.107843 0.521569 0.000000
0.117647 0.523529 0.000000
0.127451 0.525490 0.000000
0.137255 0.527451 0.000000
0.147059 0.529412 0.000000
0.156863 0.531373 0.000000
0.166667 0.533333 0.000000
0.176471 0.535294 0.000000
0.186275 0.537255 0.000000
0.196078 0.539216 0.000000
0.205882 0.541176 0.000000
0.215686 0.543137 0.000000
0.225490 0.545098 0.000000
0.235294 0.547059 0.000000
0.245098 0.549020 0.000000
0.254902 0.550980 0.000000
0.264706 0.552941 0.000000
0.274510 0.554902 0.000000
0.284314 0.556863 0.000000
0.294118 0.558824 0.000000
0.303922 0.560784 0.000000
0.313725 0.562745 0.000000
0.323529 0.564706 0.000000
0.333333 0.566667 0.000000
0.343137 0.568627 0.000000
0.352941 0.570588 0.000000
0.362745 0.572549 0.000000
0.372549 0.574510 0.000000
0.382353 0.576471 0.000000
0.392157 0.578431 0.000000
0.401961 0.580392 0.000000
0.411765 0.582353 0.000000
0.421569 0.584314 0.000000
0.431373 0.586275 0.000000
0.441176 0.588235 0.000000
0.450980 0.590196 0.000000
0.460784 0.592157 0.000000
0.470588 0.594118 0.000000
0.480392 0.596078 0.000000
0.490196 0.598039 0.000000
0.500000 0.600000 0.000000
0.509804 0.601961 0.000000
0.519608 0.603922 0.000000
0.529412 0.605882 0.000000
0.539216 0.607843 0.000000
0.549020 0.609804 0.000000
0.558824 0.611765 0.000000
0.568627 0.613725 0.000000
0.578431 0.615686 0.000000
0.588235 0.617647 0.000000
0.598039 0.619608 0.000000
0.607843 0.621569 0.000000
0.617647 0.623529 0.000000
0.627451 0.625490 0.000000
0.637255 0.627451 0.000000
0.647059 0.629412 0.000000
0.656863 0.631373 0.000000
0.666667 0.633333 0.000000
0.676471 0.635294 0.000000
0.686275 0.637255 0.000000
0.696078 0.639216 0.000000
0.705882 0.641176 0.000000
0.715686 0.643137 0.000000
0.725490 0.645098 0.000000
0.735294 0.647059 0.000000
0.745098 0.649020 0.000000
0.754902 0.650980 0.000000
0.764706 0.652941 0.000000
0.774510 0.654902 0.000000
0.784314 0.656863 0.000000
0.794118 0.658824 0.000000
0.803922 0.660784 0.000000
0.813725 0.662745 0.000000
0.823529 0.664706 0.000000
0.833333 0.666667 0.000000
0.843137 0.668627 0.000000
0.852941 0.670588 0.000000
0.862745 0.672549 0.000000
0.872549 0.674510 0.000000
0.882353 0.676471 0.000000
0.892157 0.678431 0.000000
0.901961 0.680392 0.000000
0.911765 0.682353 0.000000
0.921569 0.684314 0.000000
0.931373 0.686275 0.000000
0.941176 0.688235 0.000000
0.950980 0.690196 0.000000
0.960784 0.692157 0.000000
0.970588 0.694118 0.000000
0.980392 0.696078 0.000000
0.990196 0.698039 0.000000
0.113534 0.606152 0.000000
0.107142 0.586373 0.000000
0.121751 0.595256 0.000000
0.125314 0.578403 0.000000
0.608008 0.765681 0.000000
0.585349 0.764086 0.000000
0.591336 0.741952 0.000000
0.592072 0.793974 0.000000
0.550258 0.931017 0.000000
0.517159 0.896365 0.000000
0.557866 0.881366 0.000000
0.885592 0.689744 0.000000
0.900640 0.689195 0.000000
0.893881 0.699663 0.000000
0.791014 0.782870 0.000000
0.806073 0.755575 0.000000
0.814238 0.783906 0.000000
0.755950 0.661588 0.000000
0.766977 0.664624 0.000000
0.759150 0.673362 0.000000
0.237587 0.602856 0.000000
0.244276 0.587613 0.000000
0.255222 0.600052 0.000000
0.435458 0.690521 0.000000
0.445365 0.672382 0.000000
0.452783 0.695442 0.000000
0.434168 0.596027 0.000000
0.443497 0.595614 0.000000
0.440408 0.604928 0.000000
0.125631 0.548518 0.000000
0.136149 0.544058 0.000000
0.133888 0.554367 0.000000
0.684531 0.649457 0.000000
0.693022 0.657375 0.000000
0.680758 0.660164 0.000000
0.688513 0.672143 0.000000
0.209804 0.572062 0.000000
0.211391 0.587677 0.000000
0.198823 0.579466 0.000000
0.912173 0.691199 0.000000
0.919923 0.697571 0.000000
0.840788 0.691515 0.000000
0.836260 0.679067 0.000000
0.846581 0.680639 0.000000
0.610270 0.644163 0.000000
0.606363 0.631487 0.000000
0.618571 0.634947 0.000000
0.703833 0.664888 0.000000
0.705328 0.651574 0.000000
0.718551 0.657874 0.000000
0.476110 0.619965 0.000000
0.470756 0.606568 0.000000
0.483603 0.608681 0.000000
0.787587 0.718715 0.000000
0.799121 0.708516 0.000000
0.805593 0.724753 0.000000
0.545957 0.632159 0.000000
0.551865 0.620855 0.000000
0.557339 0.632078 0.000000
0.494856 0.610760 0.000000
0.503640 0.608636 0.000000
0.360926 0.590762 0.000000
0.373577 0.584863 0.000000
0.371469 0.597941 0.000000
0.331595 0.581327 0.000000
0.327955 0.573642 0.000000
0.337441 0.574864 0.000000
0.452770 0.600633 0.000000
0.450058 0.613037 0.000000
0.678157 0.643781 0.000000
0.204164 0.604889 0.000000
0.194170 0.595839 0.000000
0.640959 0.641938 0.000000
0.656321 0.640868 0.000000
0.651180 0.656559 0.000000
0.987799 0.705954 0.000000
0.990005 0.721233 0.000000
0.977245 0.712758 0.000000
0.974986 0.729512 0.000000
0.333802 0.812487 0.000000
0.361509 0.790617 0.000000
0.367317 0.828894 0.000000
0.604086 0.908536 0.000000
0.602873 0.861865 0.000000
0.486055 0.632060 0.000000
0.466853 0.635244 0.000000
0.541673 0.619743 0.000000
0.532472 0.631076 0.000000
0.541658 0.649026 0.000000
0.522313 0.819315 0.000000
0.510522 0.853722 0.000000
0.487163 0.814552 0.000000
0.308272 0.686111 0.000000
0.313305 0.664245 0.000000
0.331890 0.672844 0.000000
0.462242 0.618446 0.000000
0.459244 0.608252 0.000000
0.859980 0.693314 0.000000
0.849777 0.691819 0.000000
0.856777 0.681858 0.000000
0.942362 0.711719 0.000000
0.941048 0.728383 0.000000
0.931633 0.715819 0.000000
0.696422 0.925997 0.000000
0.743778 0.899483 0.000000
0.736714 0.951105 0.000000
0.710099 0.873175 0.000000
0.706855 0.827503 0.000000
0.748341 0.846430 0.000000
0.404569 0.612087 0.000000
0.400941 0.600304 0.000000
0.413129 0.601428 0.000000
0.739879 0.801859 0.000000
0.689244 0.763692 0.000000
0.711842 0.784429 0.000000
0.682971 0.800595 0.000000
0.849502 0.703362 0.000000
0.872437 0.693808 0.000000
0.880424 0.705421 0.000000
0.247911 0.613985 0.000000
0.230071 0.625013 0.000000
0.426705 0.605906 0.000000
0.417314 0.614950 0.000000
0.564489 0.781794 0.000000
0.542753 0.763395 0.000000
0.563888 0.747070 0.000000
0.540876 0.795125 0.000000
0.254442 0.628223 0.000000
0.675859 0.845039 0.000000
0.389585 0.604484 0.000000
0.382141 0.593934 0.000000
0.394023 0.590296 0.000000
0.210190 0.549067 0.000000
0.218913 0.550855 0.000000
0.211545 0.558654 0.000000
0.509032 0.731434 0.000000
0.480547 0.728234 0.000000
0.498097 0.707679 0.000000
0.408331 0.625772 0.000000
0.737928 0.766371 0.000000
0.713411 0.751924 0.000000
0.236129 0.559953 0.000000
0.247527 0.565947 0.000000
0.238129 0.573668 0.000000
0.277601 0.586118 0.000000
0.273407 0.573379 0.000000
0.286542 0.574133 0.000000
0.695186 0.646009 0.000000
0.128809 0.536590 0.000000
0.385032 0.584469 0.000000
0.959668 0.883416 0.000000
0.604963 0.829728 0.000000
0.627628 0.795445 0.000000
0.636557 0.838109 0.000000
0.226927 0.903063 0.000000
0.196567 0.877414 0.000000
0.253614 0.858563 0.000000
0.488755 0.686131 0.000000
0.474772 0.701653 0.000000
0.208074 0.832028 0.000000
0.596571 0.714257 0.000000
0.619682 0.736143 0.000000
0.620249 0.709238 0.000000
0.426920 0.878300 0.000000
0.456147 0.845659 0.000000
0.471012 0.891685 0.000000
0.607192 0.695818 0.000000
0.525672 0.709461 0.000000
0.509369 0.690109 0.000000
0.535964 0.736172 0.000000
0.737088 0.738406 0.000000
0.716812 0.727414 0.000000
0.735580 0.717065 0.000000
0.717714 0.708748 0.000000
0.733899 0.701419 0.000000
0.434815 0.713754 0.000000
0.456218 0.743004 0.000000
0.415116 0.743197 0.000000
0.459688 0.716033 0.000000
0.441105 0.768871 0.000000
[...]
POINT_DATA 1770
SCALARS UX float 1
LOOKUP_TABLE default
-0.317121
0.000000
0.000000
-0.354621
-0.331551
0.019377
-0.290823
-0.264420
-0.238062
-0.211927
-0.186128
-0.160652
-0.135508
-0.110635
-0.086392
-0.062554
-0.039444
-0.018606
0.013751
0.018824
0.021809
0.023425
0.024833
0.025862
0.026658
0.027352
0.028018
0.028614
0.029175
0.029709
0.030198
0.030640
0.030967
0.031094
0.030859
0.029685
0.027851
0.024081
0.014894
0.011602
0.009630
0.009178
0.009631
0.010922
0.012488
0.014341
-0.000004
-0.034911
-0.068014
-0.099147
-0.129256
-0.158493
-0.187236
-0.215516
-0.243491
-0.271401
-0.299121
-0.326815
-0.349736
-0.346066
-0.343731
-0.342465
-0.341791
-0.341508
-0.341487
-0.341568
-0.341638
-0.341642
-0.341356
-0.340394
-0.338360
-0.335269
-0.325645
-0.322705
-0.321067
-0.320116
-0.319776
-0.319896
-0.320053
-0.320339
-0.320656
-0.320928
-0.321211
-0.321259
-0.321010
-0.319920
-0.327893
-0.324300
-0.320720
-0.317185
-0.313671
-0.310181
-0.306727
-0.303258
-0.299744
-0.296255
-0.292794
-0.289351
-0.285889
-0.282457
-0.279006
-0.275564
-0.272032
-0.268492
-0.265010
-0.261587
-0.258193
-0.254784
-0.251370
-0.247942
-0.244496
-0.241038
-0.237711
-0.234295
-0.230858
-0.227486
-0.224094
-0.220717
-0.217331
-0.213952
-0.210631
-0.207335
-0.203980
-0.200626
-0.197229
-0.193855
-0.190440
-0.187039
-0.183633
-0.180218
-0.176796
-0.173382
-0.169957
-0.166541
-0.163096
-0.159659
-0.156328
-0.152972
-0.149582
-0.146201
-0.142805
-0.139396
-0.136004
-0.132606
-0.129239
-0.125837
-0.122458
-0.119017
-0.115666
-0.112285
-0.108893
-0.105487
-0.102076
-0.098662
-0.095248
-0.091854
-0.088349
-0.084932
-0.081512
-0.078066
-0.074639
-0.071179
-0.067664
-0.064154
-0.060697
-0.057242
-0.053754
-0.050264
-0.046827
-0.043412
-0.040029
-0.036592
-0.033163
-0.029757
-0.026324
-0.022915
-0.019465
-0.016026
-0.012652
-0.009290
-0.005763
-0.002253
0.001251
0.004795
0.008367
0.012009
0.015634
-0.301144
-0.303150
-0.298102
-0.296434
-0.127918
-0.135883
-0.134054
-0.133130
-0.149674
-0.160678
-0.145298
-0.026961
-0.020344
-0.025860
-0.063696
-0.059154
-0.055614
-0.071174
-0.067667
-0.073003
-0.257177
-0.254028
-0.250790
-0.188749
-0.185241
-0.182693
-0.182609
-0.178608
-0.182536
-0.293376
-0.288215
-0.291183
-0.096655
-0.095242
-0.100490
-0.099291
-0.265118
-0.265951
-0.269969
-0.016077
-0.014909
-0.045079
-0.043843
-0.040105
-0.124743
-0.123343
-0.119402
-0.092486
-0.088876
-0.085366
-0.171739
-0.170979
-0.166417
-0.065925
-0.061580
-0.059682
-0.147341
-0.142316
-0.142939
-0.162477
-0.158139
-0.210599
-0.203887
-0.207987
-0.219859
-0.218984
-0.215454
-0.176461
-0.180545
-0.097527
-0.269107
-0.272447
-0.112251
-0.105739
-0.111235
0.011178
0.008281
0.004876
0.001105
-0.224992
-0.214818
-0.213302
-0.128885
-0.128701
-0.169577
-0.176791
-0.146130
-0.152264
-0.150658
-0.157672
-0.162170
-0.170225
-0.233186
-0.231386
-0.224928
-0.176763
-0.175858
-0.037874
-0.041610
-0.036282
-0.009070
-0.011525
-0.013727
-0.094513
-0.076994
-0.079795
-0.089668
-0.091940
-0.076735
-0.197563
-0.196920
-0.192416
-0.081027
-0.099571
-0.091250
-0.101000
-0.043246
-0.033053
-0.032116
-0.253774
-0.260313
-0.188073
-0.193193
-0.143004
-0.150835
-0.143594
-0.151223
-0.251773
-0.102541
-0.202244
-0.202787
-0.197242
-0.259476
-0.256420
-0.262021
-0.162902
-0.172883
-0.166843
-0.197239
-0.082562
-0.091365
-0.252435
-0.249380
-0.254768
-0.241741
-0.241062
-0.236059
-0.091227
-0.289265
-0.199039
-0.000251
-0.128085
-0.120561
-0.116725
-0.266593
-0.276149
-0.254860
-0.170133
-0.175006
-0.270248
-0.132458
-0.124230
-0.124224
-0.193052
-0.181684
-0.177462
-0.128753
-0.157212
-0.162935
-0.153453
-0.083357
-0.090508
-0.084016
-0.090236
-0.084470
-0.188937
-0.181339
-0.195765
-0.180226
-0.186577
-0.305061
-0.301975
-0.298932
-0.144671
-0.140898
-0.137141
-0.302735
-0.306955
0.001517
-0.006207
-0.006912
0.002417
-0.208332
-0.208822
-0.216937
-0.215446
-0.070457
-0.065332
-0.002250
-0.006239
-0.283139
-0.308508
-0.296546
-0.316132
-0.318026
-0.312602
-0.313396
-0.321973
-0.027776
-0.033226
-0.164022
-0.160127
-0.166741
-0.157395
0.003415
-0.076190
-0.069560
-0.070932
-0.161124
-0.262650
-0.143429
-0.198489
-0.214443
-0.249042
-0.336121
-0.336450
-0.202419
-0.009907
-0.012098
-0.255844
-0.234707
-0.230181
-0.243652
-0.244980
-0.206870
-0.220086
-0.012070
-0.023886
-0.013659
-0.021960
-0.101490
-0.327985
-0.321689
-0.314934
-0.312897
-0.110848
-0.330192
-0.327955
-0.321896
-0.320014
-0.331208
-0.304028
-0.319263
-0.110212
-0.110390
-0.317893
-0.104901
-0.106045
-0.156039
-0.157860
-0.334708
-0.154296
-0.333099
-0.321816
-0.017450
-0.022019
-0.023067
-0.115129
-0.308128
-0.327023
-0.262030
-0.063371
-0.017516
-0.021310
-0.310967
-0.314869
-0.036489
-0.028073
-0.048404
-0.320413
-0.014445
-0.015189
-0.167189
-0.173108
-0.302455
-0.295892
-0.001141
-0.292645
-0.298199
-0.291709
-0.297692
-0.291538
-0.256313
-0.266466
-0.254849
-0.309814
-0.313399
-0.318617
-0.269213
-0.048266
-0.136002
-0.311088
-0.315469
-0.081700
-0.077827
-0.127818
-0.121276
-0.122910
-0.242112
-0.234240
-0.238619
-0.237077
-0.107895
-0.114443
-0.111065
-0.110686
-0.030905
-0.035761
-0.040309
-0.320188
-0.063085
-0.038753
-0.045599
-0.041948
-0.046136
-0.041784
-0.064780
-0.070079
-0.053134
-0.050825
-0.047745
-0.195800
-0.191948
-0.190626
-0.077442
-0.051901
-0.056302
-0.072164
-0.133777
-0.129948
-0.077737
-0.178065
-0.307438
-0.314031
-0.308838
-0.222510
-0.218060
-0.222330
-0.067509
-0.073336
-0.074819
-0.216980
-0.210658
-0.206908
-0.212739
-0.206223
-0.201314
-0.028482
-0.197721
-0.323034
-0.303038
-0.183449
-0.182194
-0.200950
-0.297648
-0.294438
-0.186703
-0.287239
-0.278443
-0.280755
-0.282962
-0.186944
-0.065029
-0.098458
-0.062143
-0.268105
-0.274106
-0.271362
-0.103807
-0.096812
-0.106350
-0.026922
-0.033287
-0.028708
-0.280762
-0.286667
-0.101711
-0.095308
-0.099274
-0.105117
-0.292735
-0.161228
-0.275343
-0.272516
-0.269035
-0.274977
-0.175913
-0.287075
-0.282273
-0.282921
-0.169093
-0.194214
-0.199508
-0.263565
-0.268336
-0.128277
-0.127890
-0.133012
-0.278022
-0.192843
-0.114916
-0.119573
-0.278367
-0.281098
-0.284591
-0.286223
-0.149684
-0.156346
-0.280988
-0.274910
-0.197363
-0.220448
-0.212430
-0.212363
-0.217205
-0.186331
-0.222074
-0.223710
-0.203319
-0.260650
-0.256089
-0.080621
-0.085764
-0.131680
-0.172038
-0.167276
-0.225844
-0.230202
-0.232371
-0.227031
-0.228103
-0.089618
-0.088623
-0.105351
-0.110589
-0.323860
-0.101242
-0.258102
-0.164846
-0.296510
-0.290804
-0.300090
-0.301364
-0.304899
-0.297736
-0.295307
-0.309373
-0.307589
-0.054443
-0.050208
-0.055000
-0.286602
-0.152039
-0.163257
-0.058598
-0.244355
-0.238752
-0.244226
-0.238161
-0.248690
-0.247740
-0.060274
-0.240140
-0.225710
-0.235817
-0.242102
-0.282792
-0.129686
-0.122376
-0.056970
-0.262128
-0.254482
-0.264284
-0.271514
-0.312175
-0.270957
-0.158328
-0.160617
-0.155429
-0.231619
-0.229899
-0.213857
-0.217608
-0.208651
-0.037950
-0.036964
-0.219103
-0.225404
-0.278929
-0.274864
-0.117002
-0.117339
-0.259766
-0.083160
-0.138045
-0.138469
-0.238517
-0.242727
-0.094505
-0.226194
-0.236040
-0.325786
-0.249740
-0.250499
-0.246091
-0.149374
-0.143621
-0.135430
-0.246401
-0.213724
-0.146450
-0.306224
-0.301005
-0.171137
-0.206692
-0.260597
-0.187172
-0.233499
-0.246658
-0.208061
-0.256128
-0.250958
-0.284554
-0.305394
-0.323273
-0.326899
-0.159557
-0.310752
-0.195766
-0.117981
-0.294993
-0.304929
-0.335145
-0.020399
-0.318981
-0.019007
-0.141041
-0.333978
-0.330614
-0.329868
-0.325241
-0.334856
-0.322781
-0.324425
-0.328143
-0.330426
-0.328987
-0.147586
-0.134148
-0.223419
-0.228555
-0.331536
-0.004596
-0.244562
-0.332033
-0.331168
-0.232433
-0.329798
-0.005292
-0.264974
0.000144
-0.291252
-0.074271
-0.335206
0.007602
0.001910
-0.227909
-0.047893
-0.053063
-0.050740
-0.286848
-0.292985
-0.177844
-0.232966
-0.236404
-0.274354
-0.280883
-0.140351
-0.171475
-0.115825
-0.119141
-0.278708
-0.286794
-0.066074
-0.304317
-0.292489
-0.151428
-0.287007
-0.294777
-0.243850
-0.115678
-0.267433
-0.192501
-0.138025
-0.032732
-0.028838
-0.274728
-0.046315
-0.226318
-0.232655
-0.134113
-0.188860
-0.064015
-0.246688
-0.220236
-0.248690
-0.205648
-0.079690
-0.235787
-0.116934
-0.146424
-0.266037
-0.270641
-0.272755
-0.264843
-0.108887
-0.114275
-0.112952
-0.112870
-0.144169
-0.144740
-0.148096
-0.149768
-0.142897
-0.162849
-0.278273
-0.274808
-0.151003
-0.313504
-0.312388
-0.002066
-0.012027
-0.003469
-0.304695
-0.306362
-0.011627
-0.172747
-0.195457
0.013694
0.009967
0.018921
0.010022
-0.017041
-0.015630
-0.020540
-0.011837
-0.216954
-0.218911
-0.212696
-0.212080
-0.150502
-0.143095
-0.149825
-0.146361
-0.277274
-0.273479
-0.271019
-0.270261
-0.258989
-0.259854
-0.169718
-0.173863
-0.167717
0.005882
-0.276515
-0.270667
-0.275850
-0.273609
-0.264856
-0.255666
-0.258639
-0.250218
-0.140856
-0.144205
-0.138427
-0.118318
-0.116150
-0.075280
-0.077790
-0.068479
-0.082740
-0.048920
-0.046198
-0.052852
-0.040216
-0.117102
-0.180646
-0.184496
-0.185635
0.001057
0.001454
-0.003308
-0.188317
-0.192070
-0.187625
-0.190043
-0.300290
-0.298364
-0.295187
-0.246735
-0.249304
-0.252622
-0.178624
-0.183743
-0.051432
-0.049043
-0.045410
-0.113950
-0.108751
-0.109024
-0.104380
-0.076297
-0.070755
-0.166741
-0.169269
-0.172864
-0.152605
-0.154951
-0.150381
-0.075294
-0.070906
-0.077051
-0.157300
-0.162015
-0.163657
-0.157971
-0.240982
-0.236203
-0.240035
-0.235684
-0.245760
-0.242559
-0.247090
-0.135444
-0.135609
-0.142349
-0.109459
-0.101359
-0.099854
-0.137552
-0.240890
-0.244985
-0.238146
-0.098359
-0.099100
-0.102740
-0.097374
-0.097742
-0.092473
-0.227401
-0.227754
-0.233551
-0.094759
-0.068995
-0.081664
-0.074342
-0.077210
-0.249354
-0.250054
-0.180524
-0.184521
-0.180368
-0.121012
-0.125786
-0.124257
-0.126229
-0.309989
-0.312572
-0.307542
-0.310856
-0.085491
-0.087227
-0.090831
-0.109754
-0.113302
0.018573
0.021357
0.023984
0.015529
-0.213551
-0.204232
-0.219748
-0.091279
0.003256
-0.004931
-0.152145
-0.146717
-0.202037
-0.196483
-0.199810
-0.088906
-0.087250
-0.094085
-0.104576
0.009683
0.007141
0.002949
0.001318
-0.197802
-0.044816
-0.040897
-0.041449
-0.099794
-0.096547
-0.101055
-0.249473
-0.244796
-0.127643
-0.133155
-0.129728
-0.158007
-0.154108
-0.159384
-0.213571
-0.204801
-0.278596
-0.283697
-0.279966
-0.286361
-0.201783
-0.204765
-0.207269
-0.089025
-0.121727
-0.122432
-0.000473
0.005446
0.004237
-0.299506
-0.290649
-0.297974
-0.289667
-0.001327
-0.003433
-0.020640
-0.036452
-0.018836
-0.030685
-0.226314
-0.226811
-0.231193
-0.222170
-0.168768
-0.127453
-0.121304
-0.128081
-0.182380
-0.157161
-0.140910
-0.135358
-0.137282
0.023123
0.026166
-0.036606
-0.033143
-0.039903
-0.029892
-0.030802
-0.051971
-0.046210
-0.187143
-0.185040
-0.199820
-0.249699
-0.244413
-0.238013
-0.269461
-0.285922
-0.285701
-0.281176
-0.290177
-0.282591
-0.271751
-0.280657
-0.262272
-0.306056
-0.306504
-0.091085
-0.096124
-0.103809
-0.081146
-0.233849
-0.227819
-0.085685
-0.216330
-0.231974
-0.306481
-0.302179
-0.118407
-0.304008
0.000534
-0.005203
-0.156028
-0.156601
-0.165258
-0.165810
-0.309675
-0.018482
-0.013867
-0.020126
-0.017521
-0.013095
-0.055683
-0.047286
-0.062024
-0.190537
-0.188157
-0.188276
-0.252251
-0.257092
-0.256431
-0.025255
-0.030685
-0.029617
-0.001928
-0.307755
-0.301918
-0.308000
0.012905
0.009554
0.005309
0.021731
-0.301961
-0.297384
-0.268474
-0.264468
-0.266698
-0.293158
-0.297340
-0.294711
-0.292187
-0.289357
0.001324
-0.293899
0.020498
0.018457
0.013907
-0.185368
-0.188130
-0.193239
-0.274796
-0.282557
-0.273722
-0.281962
-0.282258
-0.055519
-0.042869
-0.155492
-0.165712
-0.148016
-0.138755
-0.154895
-0.143647
-0.305397
0.008255
0.011625
0.006330
0.012208
-0.053813
-0.050818
-0.049056
-0.052317
-0.048382
-0.006541
-0.007720
-0.162892
-0.056273
-0.314444
-0.250351
-0.247641
-0.059047
-0.056878
-0.225349
-0.009793
-0.018822
-0.087337
-0.095588
-0.091940
-0.091008
-0.122760
-0.031416
-0.035722
-0.036784
-0.013476
-0.018732
-0.037837
-0.032970
-0.040867
-0.060008
-0.278791
-0.281110
0.013614
0.007307
0.018443
0.006093
0.001146
-0.125708
-0.004112
-0.009066
-0.009533
-0.164121
-0.160321
-0.037840
-0.034027
-0.036418
-0.113051
-0.118261
-0.131618
-0.123365
-0.006814
0.001470
-0.011304
-0.249913
-0.250622
-0.256334
-0.244732
-0.313721
-0.018669
0.006538
-0.243123
-0.062301
-0.059554
-0.065357
-0.246596
-0.260628
-0.264210
-0.229850
-0.240075
0.016626
0.012100
-0.235574
-0.241805
-0.232114
-0.034380
-0.026020
-0.037146
-0.025046
-0.223972
-0.233195
-0.241348
0.018565
0.014967
0.018908
0.024135
0.025530
-0.046837
-0.064889
-0.038297
-0.048989
-0.003780
-0.049114
-0.064114
-0.054811
0.015432
-0.061146
0.001962
0.007101
-0.060964
-0.073545
-0.070767
-0.189629
-0.198214
-0.196629
0.019945
0.014409
-0.029765
-0.293518
-0.314992
-0.042179
-0.021446
0.021946
-0.037118
0.003775
0.001659
-0.309563
-0.220097
-0.222076
-0.293491
-0.297720
0.015966
-0.040964
-0.043880
-0.173222
-0.175281
-0.181518
-0.178833
-0.300695
-0.309908
-0.015751
-0.010179
-0.015505
-0.208828
-0.212241
0.019914
-0.019421
-0.010783
-0.014731
-0.023109
-0.025718
-0.302412
-0.024583
-0.260636
-0.259519
-0.111461
-0.102357
-0.116576
-0.107738
-0.051949
-0.052691
-0.058411
-0.053482
-0.057822
-0.058076
-0.032470
-0.027252
-0.025869
-0.046051
-0.048127
-0.019216
-0.138767
-0.133235
-0.129089
-0.028155
-0.029970
-0.024533
-0.289030
-0.283690
-0.287857
-0.283459
-0.126880
-0.040253
-0.040330
-0.167142
-0.048707
-0.034548
-0.069864
-0.026314
-0.028057
-0.030338
-0.281823
-0.278426
-0.284247
-0.029768
-0.299377
-0.064432
-0.061498
-0.128406
-0.126552
-0.172685
-0.003109
-0.003290
-0.003888
-0.000114
-0.005902
-0.006249
0.016048
-0.041602
-0.021235
-0.016778
-0.022865
-0.044956
-0.269423
-0.269825
-0.166909
-0.025492
-0.169719
-0.019084
-0.033146
-0.049236
-0.044923
-0.226959
-0.223413
-0.221678
-0.219547
-0.223649
-0.063261
-0.069906
-0.069690
-0.063995
-0.171176
-0.042255
-0.206624
-0.206917
-0.123970
-0.120909
-0.127329
-0.146487
-0.140923
-0.148260
-0.149788
-0.274993
-0.139230
-0.203024
-0.205913
-0.201511
-0.130442
-0.238806
-0.241449
-0.289140
-0.060436
-0.065592
-0.065780
-0.206156
-0.200639
-0.207925
-0.204749
-0.274111
-0.003049
0.011476
-0.053949
-0.180937
-0.183785
-0.296183
-0.244216
-0.113706
-0.123803
-0.114203
-0.104029
-0.113374
-0.104616
-0.110937
-0.034446
-0.146958
-0.121406
-0.038126
-0.103809
-0.099675
-0.232620
-0.130532
-0.132700
-0.132410
-0.256336
-0.248504
-0.252998
-0.157256
-0.128368
-0.132900
-0.186823
-0.206320
-0.195787
-0.087450
-0.085296
-0.098382
-0.093589
-0.093873
-0.043520
-0.265731
-0.304030
-0.173299
-0.178529
-0.176598
-0.079235
-0.212321
-0.230125
-0.224558
0.009974
-0.264221
-0.156080
-0.153150
-0.012425
-0.190798
-0.202498
-0.192154
-0.087551
-0.081592
-0.067629
-0.194298
-0.199614
-0.289403
-0.070934
-0.065610
-0.066595
-0.061654
-0.218129
-0.215406
-0.261338
-0.267764
-0.264526
-0.263205
-0.165765
-0.162272
-0.163151
-0.104546
-0.097178
-0.187803
-0.180771
-0.177915
-0.291191
-0.288098
-0.119883
-0.131399
-0.127646
-0.141732
-0.059469
-0.057965
-0.067000
-0.076976
-0.077757
-0.071957
-0.191058
-0.197791
-0.194137
-0.194027
-0.228787
-0.236097
-0.232737
-0.232599
-0.237681
-0.023946
-0.082929
-0.082521
0.005607
-0.205610
-0.112815
-0.116700
-0.262351
-0.214202
-0.210554
-0.216504
-0.214622
-0.063475
-0.068084
-0.069933
-0.074748
-0.128803
-0.056797
-0.057047
-0.204009
-0.194188
-0.239707
-0.247411
-0.216016
-0.122888
-0.119165
-0.242783
-0.134819
-0.145939
-0.072063
-0.066895
-0.070546
-0.209733
-0.214109
-0.054286
-0.179005
-0.039129
-0.266114
-0.185609
-0.190382
-0.188013
-0.131613
-0.137059
-0.007608
-0.267199
0.018877
-0.011963
-0.302681
-0.261612
-0.218536
-0.213167
-0.155477
-0.234793
-0.241650
-0.169036
-0.156320
-0.295227
-0.216105
-0.210230
-0.085182
-0.082376
-0.090112
-0.207901
-0.153821
-0.149322
0.012606
-0.083073
-0.083486
-0.259295
-0.199512
-0.202533
-0.292331
-0.247093
-0.249114
-0.247982
-0.117510
-0.113962
0.010588
0.012436
-0.255450
-0.203905
-0.209381
-0.204370
-0.136370
-0.054243
-0.195955
-0.220067
-0.223906
-0.087765
-0.079688
-0.140881
-0.048435
-0.139910
-0.141429
-0.136803
-0.227775
-0.230839
-0.027622
-0.038486
-0.166459
-0.145131
-0.014573
-0.192203
-0.195834
-0.148909
-0.148043
-0.210845
-0.214126
-0.215798
-0.094611
-0.095017
-0.048661
-0.104985
0.025177
-0.298565
-0.283227
-0.080139
-0.076244
0.017440
-0.079798
-0.261307
-0.302216
0.017563
-0.024631
-0.031613
-0.314319
-0.018906
-0.012570
-0.080251
-0.283391
0.024294
-0.278577
-0.117244
-0.317064
-0.317468
-0.321428
-0.093944
-0.318168
0.008261
-0.052502
0.009572
-0.221031
-0.136067
-0.322876
-0.002611
-0.171513
-0.115441
-0.104713
-0.107428
-0.094092
-0.084639
-0.079817
-0.077220
-0.088196
-0.144157
-0.263107
-0.074650
-0.182885
-0.177509
-0.254049
-0.200152
-0.183497
-0.145478
-0.221606
-0.025688
-0.154815
-0.167068
-0.086196
-0.079504
-0.149056
-0.193988
-0.198204
-0.097067
-0.101719
-0.100326
-0.068101
-0.012397
-0.018596
-0.096865
-0.007593
-0.113354
-0.027830
-0.243855
-0.159785
-0.133279
-0.090352
-0.071688
-0.007847
-0.212582
0.012251
-0.230791
-0.082583
-0.009618
-0.015844
-0.009169
-0.034274
-0.274223
-0.019120
-0.292546
-0.289569
-0.204720
-0.120146
-0.273179
-0.274970
-0.077066
-0.085883
-0.034332
-0.043894
-0.009297
-0.301775
-0.101541
-0.107144
-0.132297
-0.161830
-0.071783
-0.174497
-0.176607
-0.203006
-0.281869
-0.110307
-0.166367
-0.171477
-0.013512
-0.175243
-0.180188
-0.176063
-0.111451
-0.225492
-0.243611
-0.194805
-0.006412
-0.106503
-0.057332
-0.040108
-0.270011
-0.100158
-0.105891
-0.250955
-0.090869
-0.087295
-0.089686
-0.109773
-0.112958
-0.253873
-0.256998
-0.259116
-0.101719
-0.105961
-0.106010
-0.120138
-0.117581
-0.123380
-0.217614
-0.234290
-0.152446
-0.212070
-0.258485
-0.253172
-0.173124
-0.149446
-0.221313
-0.129148
-0.153108
-0.169831
-0.223548
SCALARS UY float 1
LOOKUP_TABLE default
-0.000000
-0.000000
-0.809995
-0.810000
-0.393671
-0.579215
-0.000000
-0.000000
-0.000000
-0.000000
-0.000000
-0.000000
-0.000000
-0.000000
-0.000000
-0.000000
-0.000000
-0.000000
-0.064612
-0.120779
-0.171358
-0.217319
-0.258781
-0.296289
-0.330249
-0.361017
-0.388885
-0.414211
-0.437117
-0.457866
-0.476712
-0.493881
-0.509540
-0.523709
-0.536598
-0.548576
-0.559489
-0.569804
-0.589230
-0.601092
-0.615355
-0.633066
-0.654872
-0.682328
-0.715927
-0.757363
-0.810000
-0.810000
-0.810000
-0.810000
-0.810000
-0.810000
-0.810000
-0.810000
-0.810000
-0.810000
-0.810000
-0.810000
-0.748516
-0.695195
-0.648790
-0.608419
-0.573354
-0.542829
-0.516256
-0.493005
-0.472786
-0.455068
-0.439537
-0.425945
-0.413861
-0.403083
-0.383764
-0.373543
-0.362010
-0.349027
-0.334322
-0.317625
-0.298442
-0.276371
-0.251108
-0.222048
-0.188792
-0.150664
-0.107018
-0.057000
-0.397177
-0.400337
-0.402918
-0.405233
-0.407525
-0.409746
-0.411712
-0.413631
-0.415419
-0.417356
-0.419171
-0.420864
-0.422715
-0.424424
-0.426181
-0.427735
-0.429441
-0.431054
-0.432713
-0.434353
-0.435955
-0.437587
-0.439189
-0.440704
-0.442393
-0.443993
-0.445473
-0.447021
-0.448768
-0.450228
-0.451792
-0.453360
-0.454911
-0.456553
-0.458111
-0.459736
-0.461187
-0.462731
-0.464387
-0.465859
-0.467418
-0.468998
-0.470511
-0.472133
-0.473707
-0.475164
-0.476720
-0.478269
-0.479831
-0.481351
-0.482947
-0.484524
-0.486137
-0.487573
-0.489143
-0.490747
-0.492300
-0.493905
-0.495422
-0.497096
-0.498569
-0.500235
-0.501657
-0.503299
-0.504921
-0.506582
-0.508043
-0.509727
-0.511392
-0.512965
-0.514590
-0.516189
-0.517818
-0.519494
-0.521283
-0.522696
-0.524497
-0.526115
-0.527915
-0.529542
-0.531233
-0.533098
-0.534888
-0.536670
-0.538370
-0.540295
-0.542255
-0.544247
-0.546383
-0.548349
-0.550513
-0.552656
-0.554980
-0.557281
-0.559713
-0.562117
-0.564464
-0.567029
-0.569659
-0.572420
-0.575524
-0.489601
-0.473466
-0.480919
-0.467293
-0.618311
-0.617044
-0.599188
-0.641164
-0.752970
-0.724559
-0.712186
-0.560275
-0.560441
-0.569193
-0.633295
-0.611590
-0.634497
-0.533920
-0.536431
-0.543991
-0.487681
-0.475256
-0.485373
-0.558030
-0.543374
-0.561955
-0.480674
-0.480153
-0.488238
-0.442600
-0.438890
-0.447589
-0.523662
-0.530421
-0.532781
-0.542817
-0.462484
-0.475362
-0.468602
-0.562909
-0.568912
-0.560236
-0.549492
-0.551043
-0.519693