# vtk DataFile Version 2.0
Test
ASCII
DATASET POLYDATA
POINTS 1770 float
0.000000 0.000000 0.000000
1.000000 0.000000 0.000000
1.000000 1.000000 0.000000
0.000000 1.000000 0.000000
0.000000 0.500000 0.000000
1.000000 0.700000 0.000000
0.076923 0.000000 0.000000
0.153846 0.000000 0.000000
0.230769 0.000000 0.000000
0.307692 0.000000 0.000000
0.384615 0.000000 0.000000
0.461538 0.000000 0.000000
0.538462 0.000000 0.000000
0.615385 0.000000 0.000000
0.692308 0.000000 0.000000
0.769231 0.000000 0.000000
0.846154 0.000000 0.000000
0.923077 0.000000 0.000000
1.000000 0.075421 0.000000
1.000000 0.143732 0.000000
1.000000 0.205602 0.000000
1.000000 0.261640 0.000000
1.000000 0.312395 0.000000
1.000000 0.358364 0.000000
1.000000 0.400000 0.000000
1.000000 0.437711 0.000000
1.000000 0.471866 0.000000
1.000000 0.502801 0.000000
1.000000 0.530820 0.000000
1.000000 0.556197 0.000000
1.000000 0.579182 0.000000
1.000000 0.600000 0.000000
1.000000 0.618855 0.000000
1.000000 0.635933 0.000000
1.000000 0.651401 0.000000
1.000000 0.665410 0.000000
1.000000 0.678099 0.000000
1.000000 0.689591 0.000000
1.000000 0.711139 0.000000
1.000000 0.725174 0.000000
1.000000 0.742857 0.000000
1.000000 0.765136 0.000000
1.000000 0.793206 0.000000
1.000000 0.828571 0.000000
1.000000 0.873129 0.000000
1.000000 0.929269 0.000000
0.923077 1.000000 0.000000
0.846154 1.000000 0.000000
0.769231 1.000000 0.000000
0.692308 1.000000 0.000000
0.615385 1.000000 0.000000
0.538462 1.000000 0.000000
0.461538 1.000000 0.000000
0.384615 1.000000 0.000000
0.307692 1.000000 0.000000
0.230769 1.000000 0.000000
0.153846 1.000000 0.000000
0.076923 1.000000 0.000000
0.000000 0.926029 0.000000
0.000000 0.861633 0.000000
0.000000 0.805574 0.000000
0.000000 0.756771 0.000000
0.000000 0.714286 0.000000
0.000000 0.677300 0.000000
0.000000 0.645102 0.000000
0.000000 0.617073 0.000000
0.000000 0.592671 0.000000
0.000000 0.571429 0.000000
0.000000 0.552936 0.000000
0.000000 0.536837 0.000000
0.000000 0.522822 0.000000
0.000000 0.510621 0.000000
0.000000 0.489379 0.000000
0.000000 0.477178 0.000000
0.000000 0.463163 0.000000
0.000000 0.447064 0.000000
0.000000 0.428571 0.000000
0.000000 0.407329 0.000000
0.000000 0.382927 0.000000
0.000000 0.354898 0.000000
0.000000 0.322700 0.000000
0.000000 0.285714 0.000000
0.000000 0.243229 0.000000
0.000000 0.194426 0.000000
0.000000 0.138367 0.000000
0.000000 0.073971 0.000000
0.009804 0.501961 0.000000
0.019608 0.503922 0.000000
0.029412 0.505882 0.000000
0.039216 0.507843 0.000000
0.049020 0.509804 0.000000
0.058824 0.511765 0.000000
0.068627 0.513725 0.000000
0.078431 0.515686 0.000000
0.088235 0.517647 0.000000
0.098039 0.519608 0.000000
0.107843 0.521569 0.000000
0.117647 0.523529 0.000000
0.127451 0.525490 0.000000
0.137255 0.527451 0.000000
0.147059 0.529412 0.000000
0.156863 0.531373 0.000000
0.166667 0.533333 0.000000
0.176471 0.535294 0.000000
0.186275 0.537255 0.000000
0.196078 0.539216 0.000000
0.205882 0.541176 0.000000
0.215686 0.543137 0.000000
0.225490 0.545098 0.000000
0.235294 0.547059 0.000000
0.245098 0.549020 0.000000
0.254902 0.550980 0.000000
0.264706 0.552941 0.000000
0.274510 0.554902 0.000000
0.284314 0.556863 0.000000
0.294118 0.558824 0.000000
0.303922 0.560784 0.000000
0.313725 0.562745 0.000000
0.323529 0.564706 0.000000
0.333333 0.566667 0.000000
0.343137 0.568627 0.000000
0.352941 0.570588 0.000000
0.362745 0.572549 0.000000
0.372549 0.574510 0.000000
0.382353 0.576471 0.000000
0.392157 0.578431 0.000000
0.401961 0.580392 0.000000
0.411765 0.582353 0.000000
0.421569 0.584314 0.000000
0.431373 0.586275 0.000000
0.441176 0.588235 0.000000
0.450980 0.590196 0.000000
0.460784 0.592157 0.000000
0.470588 0.594118 0.000000
0.480392 0.596078 0.000000
0.490196 0.598039 0.000000
0.500000 0.600000 0.000000
0.509804 0.601961 0.000000
0.519608 0.603922 0.000000
0.529412 0.605882 0.000000
0.539216 0.607843 0.000000
0.549020 0.609804 0.000000
0.558824 0.611765 0.000000
0.568627 0.613725 0.000000
0.578431 0.615686 0.000000
0.588235 0.617647 0.000000
0.598039 0.619608 0.000000
0.607843 0.621569 0.000000
0.617647 0.623529 0.000000
0.627451 0.625490 0.000000
0.637255 0.627451 0.000000
0.647059 0.629412 0.000000
0.656863 0.631373 0.000000
0.666667 0.633333 0.000000
0.676471 0.635294 0.000000
0.686275 0.637255 0.000000
0.696078 0.639216 0.000000
0.705882 0.641176 0.000000
0.715686 0.643137 0.000000
0.725490 0.645098 0.000000
0.735294 0.647059 0.000000
0.745098 0.649020 0.000000
0.754902 0.650980 0.000000
0.764706 0.652941 0.000000
0.774510 0.654902 0.000000
0.784314 0.656863 0.000000
0.794118 0.658824 0.000000
0.803922 0.660784 0.000000
0.813725 0.662745 0.000000
0.823529 0.664706 0.000000
0.833333 0.666667 0.000000
0.843137 0.668627 0.000000
0.852941 0.670588 0.000000
0.862745 0.672549 0.000000
0.872549 0.674510 0.000000
0.882353 0.676471 0.000000
0.892157 0.678431 0.000000
0.901961 0.680392 0.000000
0.911765 0.682353 0.000000
0.921569 0.684314 0.000000
0.931373 0.686275 0.000000
0.941176 0.688235 0.000000
0.950980 0.690196 0.000000
0.960784 0.692157 0.000000
0.970588 0.694118 0.000000
0.980392 0.696078 0.000000
0.990196 0.698039 0.000000
0.113534 0.606152 0.000000
0.107142 0.586373 0.000000
0.121751 0.595256 0.000000
0.125314 0.578403 0.000000
0.608008 0.765681 0.000000
0.585349 0.764086 0.000000
0.591336 0.741952 0.000000
0.592072 0.793974 0.000000
0.550258 0.931017 0.000000
0.517159 0.896365 0.000000
0.557866 0.881366 0.000000
0.885592 0.689744 0.000000
0.900640 0.689195 0.000000
0.893881 0.699663 0.000000
0.791014 0.782870 0.000000
0.806073 0.755575 0.000000
0.814238 0.783906 0.000000
0.755950 0.661588 0.000000
0.766977 0.664624 0.000000
0.759150 0.673362 0.000000
0.237587 0.602856 0.000000
0.244276 0.587613 0.000000
0.255222 0.600052 0.000000
0.435458 0.690521 0.000000
0.445365 0.672382 0.000000
0.452783 0.695442 0.000000
0.434168 0.596027 0.000000
0.443497 0.595614 0.000000
0.440408 0.604928 0.000000
0.125631 0.548518 0.000000
0.136149 0.544058 0.000000
0.133888 0.554367 0.000000
0.684531 0.649457 0.000000
0.693022 0.657375 0.000000
0.680758 0.660164 0.000000
0.688513 0.672143 0.000000
0.209804 0.572062 0.000000
0.211391 0.587677 0.000000
0.198823 0.579466 0.000000
0.912173 0.691199 0.000000
0.919923 0.697571 0.000000
0.840788 0.691515 0.000000
0.836260 0.679067 0.000000
0.846581 0.680639 0.000000
0.610270 0.644163 0.000000
0.606363 0.631487 0.000000
0.618571 0.634947 0.000000
0.703833 0.664888 0.000000
0.705328 0.651574 0.000000
0.718551 0.657874 0.000000
0.476110 0.619965 0.000000
0.470756 0.606568 0.000000
0.483603 0.608681 0.000000
0.787587 0.718715 0.000000
0.799121 0.708516 0.000000
0.805593 0.724753 0.000000
0.545957 0.632159 0.000000
0.551865 0.620855 0.000000
0.557339 0.632078 0.000000
0.494856 0.610760 0.000000
0.503640 0.608636 0.000000
0.360926 0.590762 0.000000
0.373577 0.584863 0.000000
0.371469 0.597941 0.000000
0.331595 0.581327 0.000000
0.327955 0.573642 0.000000
0.337441 0.574864 0.000000
0.452770 0.600633 0.000000
0.450058 0.613037 0.000000
0.678157 0.643781 0.000000
0.204164 0.604889 0.000000
0.194170 0.595839 0.000000
0.640959 0.641938 0.000000
0.656321 0.640868 0.000000
0.651180 0.656559 0.000000
0.987799 0.705954 0.000000
0.990005 0.721233 0.000000
0.977245 0.712758 0.000000
0.974986 0.729512 0.000000
0.333802 0.812487 0.000000
0.361509 0.790617 0.000000
0.367317 0.828894 0.000000
0.604086 0.908536 0.000000
0.602873 0.861865 0.000000
0.486055 0.632060 0.000000
0.466853 0.635244 0.000000
0.541673 0.619743 0.000000
0.532472 0.631076 0.000000
0.541658 0.649026 0.000000
0.522313 0.819315 0.000000
0.510522 0.853722 0.000000
0.487163 0.814552 0.000000
0.308272 0.686111 0.000000
0.313305 0.664245 0.000000
0.331890 0.672844 0.000000
0.462242 0.618446 0.000000
0.459244 0.608252 0.000000
0.859980 0.693314 0.000000
0.849777 0.691819 0.000000
0.856777 0.681858 0.000000
0.942362 0.711719 0.000000
0.941048 0.728383 0.000000
0.931633 0.715819 0.000000
0.696422 0.925997 0.000000
0.743778 0.899483 0.000000
0.736714 0.951105 0.000000
0.710099 0.873175 0.000000
0.706855 0.827503 0.000000
0.748341 0.846430 0.000000
0.404569 0.612087 0.000000
0.400941 0.600304 0.000000
0.413129 0.601428 0.000000
0.739879 0.801859 0.000000
0.689244 0.763692 0.000000
0.711842 0.784429 0.000000
0.682971 0.800595 0.000000
0.849502 0.703362 0.000000
0.872437 0.693808 0.000000
0.880424 0.705421 0.000000
0.247911 0.613985 0.000000
0.230071 0.625013 0.000000
0.426705 0.605906 0.000000
0.417314 0.614950 0.000000
0.564489 0.781794 0.000000
0.542753 0.763395 0.000000
0.563888 0.747070 0.000000
0.540876 0.795125 0.000000
0.254442 0.628223 0.000000
0.675859 0.845039 0.000000
0.389585 0.604484 0.000000
0.382141 0.593934 0.000000
0.394023 0.590296 0.000000
0.210190 0.549067 0.000000
0.218913 0.550855 0.000000
0.211545 0.558654 0.000000
0.509032 0.731434 0.000000
0.480547 0.728234 0.000000
0.498097 0.707679 0.000000
0.408331 0.625772 0.000000
0.737928 0.766371 0.000000
0.713411 0.751924 0.000000
0.236129 0.559953 0.000000
0.247527 0.565947 0.000000
0.238129 0.573668 0.000000
0.277601 0.586118 0.000000
0.273407 0.573379 0.000000
0.286542 0.574133 0.000000
0.695186 0.646009 0.000000
0.128809 0.536590 0.000000
0.385032 0.584469 0.000000
0.959668 0.883416 0.000000
0.604963 0.829728 0.000000
0.627628 0.795445 0.000000
0.636557 0.838109 0.000000
0.226927 0.903063 0.000000
0.196567 0.877414 0.000000
0.253614 0.858563 0.000000
0.488755 0.686131 0.000000
0.474772 0.701653 0.000000
0.208074 0.832028 0.000000
0.596571 0.714257 0.000000
0.619682 0.736143 0.000000
0.620249 0.709238 0.000000
0.426920 0.878300 0.000000
0.456147 0.845659 0.000000
0.471012 0.891685 0.000000
0.607192 0.695818 0.000000
0.525672 0.709461 0.000000
0.509369 0.690109 0.000000
0.535964 0.736172 0.000000
0.737088 0.738406 0.000000
0.716812 0.727414 0.000000
0.735580 0.717065 0.000000
0.717714 0.708748 0.000000
0.733899 0.701419 0.000000
0.434815 0.713754 0.000000
0.456218 0.743004 0.000000
0.415116 0.743197 0.000000
0.459688 0.716033 0.000000
0.441105 0.768871 0.000000
[...]
POINT_DATA 1770
SCALARS UX float 1
LOOKUP_TABLE default
-0.427945
0.000001
0.000001
-0.513893
-0.452546
0.028550
-0.391766
-0.355396
-0.319212
-0.283584
-0.248702
-0.214378
-0.180566
-0.147054
-0.114535
-0.082484
-0.051558
-0.024066
0.021267
0.028684
0.033233
0.035250
0.037160
0.038327
0.039105
0.039757
0.040521
0.041121
0.041721
0.042324
0.042932
0.043457
0.043807
0.043818
0.043323
0.041511
0.038907
0.034201
0.023219
0.018873
0.015979
0.014865
0.014936
0.016162
0.017589
0.019678
-0.000008
-0.049768
-0.098021
-0.143624
-0.187764
-0.230378
-0.272183
-0.313067
-0.353464
-0.393900
-0.433912
-0.473811
-0.496906
-0.483607
-0.474817
-0.470140
-0.467521
-0.466206
-0.465771
-0.465664
-0.465590
-0.465505
-0.464987
-0.463518
-0.460793
-0.456972
-0.445681
-0.441883
-0.439493
-0.437951
-0.437275
-0.437374
-0.437463
-0.437733
-0.438087
-0.438222
-0.438510
-0.438239
-0.437482
-0.434825
-0.447352
-0.442302
-0.437319
-0.432421
-0.427563
-0.422753
-0.418006
-0.413250
-0.408467
-0.403714
-0.398998
-0.394308
-0.389604
-0.384932
-0.380238
-0.375562
-0.370797
-0.366020
-0.361304
-0.356647
-0.352021
-0.347379
-0.342731
-0.338069
-0.333388
-0.328694
-0.324130
-0.319478
-0.314804
-0.310199
-0.305574
-0.300964
-0.296341
-0.291726
-0.287168
-0.282634
-0.278044
-0.273454
-0.268819
-0.264206
-0.259552
-0.254912
-0.250267
-0.245613
-0.240950
-0.236294
-0.231629
-0.226971
-0.222284
-0.217605
-0.213032
-0.208434
-0.203803
-0.199181
-0.194544
-0.189892
-0.185255
-0.180609
-0.175992
-0.171340
-0.166714
-0.162023
-0.157425
-0.152795
-0.148153
-0.143494
-0.138830
-0.134162
-0.129492
-0.124841
-0.120074
-0.115394
-0.110711
-0.106000
-0.101308
-0.096586
-0.091805
-0.087027
-0.082295
-0.077565
-0.072805
-0.068037
-0.063325
-0.058641
-0.053991
-0.049270
-0.044549
-0.039847
-0.035106
-0.030384
-0.025607
-0.020826
-0.016101
-0.011384
-0.006486
-0.001602
0.003287
0.008221
0.013204
0.018266
0.023317
-0.409820
-0.412396
-0.405576
-0.403140
-0.174281
-0.185160
-0.182571
-0.181515
-0.209835
-0.222813
-0.200151
-0.034934
-0.025998
-0.033260
-0.086385
-0.079956
-0.075275
-0.095901
-0.091027
-0.098088
-0.349792
-0.345314
-0.341031
-0.257038
-0.252139
-0.248792
-0.248253
-0.242921
-0.247907
-0.398791
-0.391900
-0.395786
-0.130707
-0.128620
-0.135776
-0.134209
-0.360330
-0.361608
-0.367006
-0.020123
-0.018235
-0.059736
-0.058266
-0.053143
-0.168919
-0.167234
-0.161805
-0.124813
-0.120132
-0.115167
-0.233100
-0.232214
-0.225995
-0.088876
-0.082702
-0.080335
-0.199773
-0.193149
-0.193772
-0.220622
-0.214912
-0.286143
-0.277259
-0.282519
-0.298847
-0.297956
-0.293194
-0.239814
-0.245102
-0.132101
-0.366110
-0.370576
-0.151958
-0.143207
-0.150444
0.017897
0.014262
0.009398
0.004233
-0.308709
-0.293759
-0.293047
-0.178658
-0.176256
-0.230220
-0.240151
-0.198317
-0.206497
-0.204500
-0.215325
-0.222633
-0.232570
-0.317649
-0.315076
-0.306321
-0.239951
-0.238811
-0.049850
-0.054980
-0.047922
-0.009925
-0.013450
-0.016413
-0.131012
-0.105594
-0.111841
-0.122467
-0.125263
-0.104545
-0.268337
-0.267494
-0.261359
-0.110269
-0.135515
-0.124190
-0.137610
-0.057282
-0.043239
-0.041891
-0.345253
-0.354298
-0.255412
-0.262382
-0.194971
-0.205597
-0.195630
-0.206295
-0.342665
-0.139874
-0.274679
-0.275559
-0.268114
-0.353221
-0.349069
-0.356210
-0.221938
-0.235547
-0.227211
-0.268069
-0.112204
-0.124189
-0.343282
-0.339029
-0.346214
-0.328492
-0.327614
-0.320836
-0.123541
-0.393504
-0.270782
0.000368
-0.174745
-0.164333
-0.159264
-0.374618
-0.385382
-0.353269
-0.231589
-0.238325
-0.373117
-0.180249
-0.169119
-0.168942
-0.267307
-0.249539
-0.246260
-0.175028
-0.214070
-0.221780
-0.209057
-0.113112
-0.122834
-0.113799
-0.122258
-0.114207
-0.257401
-0.247166
-0.266898
-0.245513
-0.254526
-0.414807
-0.411055
-0.406744
-0.196695
-0.191293
-0.186367
-0.411556
-0.417266
0.004429
-0.006194
-0.007624
0.005283
-0.283823
-0.284696
-0.295649
-0.293432
-0.094987
-0.087765
-0.000628
-0.006418
-0.402662
-0.439722
-0.415733
-0.429836
-0.432452
-0.425036
-0.426354
-0.437890
-0.035936
-0.043695
-0.222988
-0.217821
-0.226864
-0.213868
0.007109
-0.102591
-0.093341
-0.095414
-0.218816
-0.374930
-0.195760
-0.272819
-0.298171
-0.351253
-0.457774
-0.458108
-0.276824
-0.011606
-0.014238
-0.351209
-0.320301
-0.314711
-0.333204
-0.334235
-0.282320
-0.300278
-0.015519
-0.031611
-0.017335
-0.028683
-0.137232
-0.448523
-0.438839
-0.429997
-0.426492
-0.152155
-0.449864
-0.446554
-0.438321
-0.435546
-0.451974
-0.414582
-0.434623
-0.150244
-0.150350
-0.435202
-0.141927
-0.143369
-0.211813
-0.214171
-0.455894
-0.209360
-0.454172
-0.438460
-0.021687
-0.028252
-0.029428
-0.161783
-0.422927
-0.449385
-0.356149
-0.087533
-0.021662
-0.026935
-0.422733
-0.428199
-0.049632
-0.038768
-0.066273
-0.435856
-0.017807
-0.019156
-0.227150
-0.235275
-0.412022
-0.403249
-0.000046
-0.399238
-0.405913
-0.397145
-0.405347
-0.396814
-0.350174
-0.363527
-0.347479
-0.421253
-0.426358
-0.433490
-0.368615
-0.067311
-0.192891
-0.423537
-0.429330
-0.110187
-0.104686
-0.173290
-0.164177
-0.166637
-0.329606
-0.318874
-0.324950
-0.322632
-0.146510
-0.155518
-0.150723
-0.150500
-0.041104
-0.048018
-0.054056
-0.435566
-0.086087
-0.051540
-0.061070
-0.055734
-0.062279
-0.056519
-0.088141
-0.095297
-0.071447
-0.068530
-0.063741
-0.266299
-0.260900
-0.259322
-0.104587
-0.070626
-0.076373
-0.097550
-0.181507
-0.176025
-0.105252
-0.242191
-0.418404
-0.427410
-0.420179
-0.302453
-0.296449
-0.302417
-0.091482
-0.099602
-0.101440
-0.294777
-0.286503
-0.281492
-0.289554
-0.280735
-0.273847
-0.038221
-0.269096
-0.447050
-0.419610
-0.249444
-0.247465
-0.273671
-0.404763
-0.400768
-0.253769
-0.391380
-0.379328
-0.382760
-0.385299
-0.253861
-0.087126
-0.133834
-0.083346
-0.364384
-0.372582
-0.368848
-0.141039
-0.131391
-0.144693
-0.035276
-0.044080
-0.037485
-0.383526
-0.393569
-0.137970
-0.129078
-0.134407
-0.142455
-0.398267
-0.219923
-0.374234
-0.370718
-0.365939
-0.373922
-0.239995
-0.390448
-0.383804
-0.384846
-0.230492
-0.264525
-0.271832
-0.358535
-0.365205
-0.174141
-0.173361
-0.180212
-0.377917
-0.262547
-0.156412
-0.162863
-0.378405
-0.382066
-0.386801
-0.389125
-0.203697
-0.212766
-0.382085
-0.374185
-0.278630
-0.313699
-0.289069
-0.288673
-0.295181
-0.253317
-0.302142
-0.304022
-0.276349
-0.354277
-0.348300
-0.108632
-0.115609
-0.178737
-0.233948
-0.227029
-0.307402
-0.313266
-0.316062
-0.308815
-0.310071
-0.120902
-0.119703
-0.142518
-0.149812
-0.440756
-0.137108
-0.350766
-0.223706
-0.403057
-0.395294
-0.407917
-0.409679
-0.414476
-0.404708
-0.401499
-0.421019
-0.418358
-0.072716
-0.066966
-0.073349
-0.389573
-0.206739
-0.221552
-0.078410
-0.332285
-0.324753
-0.332353
-0.323726
-0.338539
-0.337370
-0.080609
-0.330183
-0.311449
-0.327674
-0.329824
-0.384746
-0.176112
-0.166191
-0.076238
-0.356920
-0.346465
-0.359995
-0.369756
-0.425023
-0.369260
-0.214823
-0.217968
-0.211059
-0.314760
-0.312817
-0.290751
-0.296074
-0.283521
-0.049974
-0.048795
-0.298284
-0.307113
-0.379473
-0.374071
-0.158579
-0.158814
-0.353135
-0.112045
-0.187093
-0.187734
-0.324626
-0.330063
-0.127719
-0.308389
-0.321736
-0.443295
-0.339437
-0.340390
-0.334377
-0.202783
-0.194808
-0.183609
-0.335417
-0.290377
-0.198917
-0.416447
-0.409309
-0.232787
-0.281258
-0.355121
-0.255767
-0.317419
-0.335272
-0.283365
-0.348849
-0.341927
-0.387276
-0.417389
-0.439665
-0.444716
-0.217474
-0.423261
-0.267204
-0.160471
-0.403604
-0.415066
-0.456656
-0.026232
-0.447832
-0.025492
-0.191902
-0.454872
-0.450677
-0.449226
-0.443051
-0.455776
-0.439524
-0.441350
-0.446626
-0.449583
-0.447561
-0.200963
-0.182398
-0.303545
-0.310548
-0.473958
-0.006314
-0.333372
-0.451867
-0.450769
-0.328202
-0.448992
-0.004653
-0.360389
0.002843
-0.396051
-0.100249
-0.456235
0.012796
0.003665
-0.309706
-0.063706
-0.071000
-0.067492
-0.390468
-0.399043
-0.242072
-0.316553
-0.321227
-0.373488
-0.382316
-0.191093
-0.242330
-0.157217
-0.161908
-0.378990
-0.397389
-0.089313
-0.414352
-0.397885
-0.205676
-0.390541
-0.401143
-0.331896
-0.156714
-0.364076
-0.261723
-0.187356
-0.043042
-0.037717
-0.374712
-0.061747
-0.307878
-0.316697
-0.182130
-0.256844
-0.086075
-0.335325
-0.299213
-0.338304
-0.279333
-0.107814
-0.320878
-0.158306
-0.198599
-0.363196
-0.369673
-0.372403
-0.361756
-0.149054
-0.156524
-0.154568
-0.154680
-0.197286
-0.197841
-0.202390
-0.200699
-0.192216
-0.219640
-0.380132
-0.375319
-0.203917
-0.428434
-0.426784
-0.001968
-0.015720
-0.003765
-0.416028
-0.418424
-0.015266
-0.231969
-0.262991
0.019772
0.014625
0.027176
0.014780
-0.023301
-0.021519
-0.028315
-0.016130
-0.295917
-0.298524
-0.290048
-0.289151
-0.205144
-0.195027
-0.204265
-0.199573
-0.378770
-0.373766
-0.369396
-0.368303
-0.352947
-0.354029
-0.231650
-0.237252
-0.228775
0.008870
-0.378039
-0.370043
-0.377083
-0.374004
-0.361145
-0.348564
-0.352702
-0.341198
-0.192736
-0.197152
-0.189137
-0.162129
-0.159165
-0.102161
-0.105476
-0.092768
-0.112384
-0.066264
-0.062647
-0.071758
-0.054409
-0.160333
-0.246991
-0.252457
-0.253835
0.001513
0.002142
-0.004364
-0.257403
-0.262532
-0.256664
-0.260016
-0.410591
-0.407852
-0.403537
-0.337349
-0.340463
-0.345082
-0.244417
-0.251400
-0.070590
-0.067407
-0.062442
-0.156025
-0.149044
-0.149369
-0.143050
-0.104289
-0.096935
-0.228240
-0.231520
-0.236469
-0.208697
-0.211730
-0.205395
-0.103327
-0.097332
-0.105647
-0.215347
-0.221634
-0.223987
-0.216023
-0.329331
-0.322759
-0.328203
-0.322279
-0.335907
-0.331357
-0.337589
-0.184661
-0.184958
-0.194153
-0.149038
-0.137894
-0.135924
-0.187726
-0.328922
-0.334546
-0.325255
-0.134760
-0.135558
-0.140506
-0.133068
-0.133425
-0.126247
-0.311087
-0.311256
-0.319002
-0.129205
-0.092608
-0.109949
-0.099714
-0.104073
-0.341005
-0.341787
-0.246898
-0.252277
-0.246793
-0.165588
-0.172136
-0.169861
-0.172922
-0.423973
-0.427597
-0.420565
-0.425104
-0.116977
-0.119564
-0.124374
-0.150047
-0.154812
0.026033
0.029795
0.033471
0.021775
-0.289669
-0.277360
-0.298648
-0.125125
0.005366
-0.006037
-0.207897
-0.200800
-0.276046
-0.268403
-0.273163
-0.121504
-0.119083
-0.128692
-0.143154
0.014127
0.010477
0.004729
0.002378
-0.267959
-0.061473
-0.055945
-0.056890
-0.136606
-0.132279
-0.138502
-0.341139
-0.334788
-0.174783
-0.182137
-0.177654
-0.215625
-0.210399
-0.217709
-0.288127
-0.277018
-0.380393
-0.387352
-0.382143
-0.390914
-0.276064
-0.279758
-0.283283
-0.121407
-0.166778
-0.167737
-0.000534
0.007729
0.006212
-0.408732
-0.396538
-0.406749
-0.395304
-0.001160
-0.004153
-0.025979
-0.047464
-0.023378
-0.039979
-0.308984
-0.309927
-0.315878
-0.303488
-0.228377
-0.173634
-0.165289
-0.174557
-0.246348
-0.212781
-0.192100
-0.184470
-0.187040
0.032514
0.036611
-0.049765
-0.045124
-0.054375
-0.040581
-0.041758
-0.068748
-0.061122
-0.253874
-0.251421
-0.271719
-0.340211
-0.332850
-0.324273
-0.367801
-0.390634
-0.390502
-0.384375
-0.396394
-0.386309
-0.370506
-0.382618
-0.357513
-0.417599
-0.418159
-0.121988
-0.129181
-0.139381
-0.108556
-0.318202
-0.310185
-0.115126
-0.294278
-0.315187
-0.418945
-0.413029
-0.161278
-0.415726
0.003273
-0.004535
-0.212606
-0.213454
-0.225266
-0.225940
-0.422866
-0.024941
-0.018644
-0.027310
-0.023552
-0.017481
-0.075704
-0.064219
-0.084313
-0.260594
-0.257103
-0.257602
-0.344633
-0.351425
-0.350269
-0.034455
-0.042057
-0.040404
-0.002199
-0.420412
-0.412293
-0.420862
0.018499
0.013426
0.007417
0.031040
-0.412489
-0.406090
-0.366900
-0.361431
-0.364614
-0.400764
-0.406499
-0.402332
-0.398942
-0.395446
0.002610
-0.401605
0.029715
0.026669
0.020398
-0.252744
-0.256585
-0.263512
-0.374817
-0.385391
-0.373295
-0.384535
-0.385056
-0.073034
-0.055986
-0.211309
-0.225113
-0.200882
-0.187915
-0.210087
-0.194234
-0.417494
0.011519
0.016214
0.009010
0.017088
-0.073852
-0.069526
-0.067279
-0.071311
-0.066070
-0.008331
-0.010028
-0.222099
-0.077103
-0.429850
-0.341205
-0.337593
-0.081096
-0.078145
-0.305291
-0.012482
-0.024996
-0.118765
-0.130049
-0.124979
-0.123858
-0.167177
-0.043228
-0.048734
-0.050396
-0.017948
-0.025166
-0.052013
-0.045406
-0.053179
-0.079294
-0.381093
-0.384168
0.020183
0.011576
0.027124
0.009514
0.002786
-0.171828
-0.005638
-0.012142
-0.012993
-0.223963
-0.218668
-0.051819
-0.046522
-0.050008
-0.151681
-0.159206
-0.177286
-0.165015
-0.008130
0.003592
-0.014136
-0.340917
-0.341957
-0.349716
-0.333897
-0.428792
-0.024458
0.009467
-0.331623
-0.085488
-0.081575
-0.089099
-0.335499
-0.354895
-0.359344
-0.313217
-0.327214
0.023185
0.017013
-0.321290
-0.329752
-0.316487
-0.045358
-0.034104
-0.049496
-0.033055
-0.305293
-0.317871
-0.329049
0.026240
0.021244
0.026850
0.034295
0.036164
-0.061459
-0.086212
-0.051324
-0.065850
-0.002813
-0.065688
-0.086165
-0.073183
0.023099
-0.081594
0.003174
0.010313
-0.082115
-0.099273
-0.095695
-0.258508
-0.270249
-0.268019
0.028067
0.020305
-0.039784
-0.401228
-0.430800
-0.055861
-0.027569
0.031287
-0.050694
0.005427
0.002831
-0.423234
-0.300472
-0.303051
-0.400905
-0.406554
0.022353
-0.056340
-0.060286
-0.236111
-0.238846
-0.247427
-0.243810
-0.410334
-0.423141
-0.021657
-0.014028
-0.021012
-0.284808
-0.289530
0.027886
-0.026345
-0.014877
-0.020325
-0.031758
-0.035463
-0.413258
-0.033868
-0.356091
-0.354305
-0.150248
-0.138062
-0.157658
-0.145804
-0.070650
-0.071726
-0.079500
-0.072893
-0.078901
-0.079137
-0.043977
-0.036767
-0.034947
-0.062610
-0.065521
-0.025768
-0.189008
-0.181386
-0.175789
-0.038162
-0.040891
-0.033597
-0.395101
-0.387751
-0.393522
-0.387172
-0.172686
-0.054554
-0.054736
-0.227332
-0.066790
-0.046769
-0.093302
-0.036096
-0.038651
-0.041736
-0.384546
-0.379954
-0.387937
-0.040876
-0.408985
-0.088470
-0.084371
-0.173371
-0.171171
-0.235437
-0.003825
-0.004194
-0.005182
0.000157
-0.008124
-0.008577
0.023039
-0.056687
-0.028987
-0.022769
-0.031148
-0.061429
-0.368100
-0.368886
-0.227891
-0.034617
-0.231431
-0.026340
-0.044772
-0.067169
-0.061215
-0.309513
-0.304716
-0.302245
-0.299135
-0.304631
-0.086344
-0.095554
-0.095070
-0.087191
-0.232312
-0.057487
-0.282232
-0.282812
-0.169010
-0.164911
-0.173732
-0.199543
-0.191869
-0.201835
-0.204009
-0.375379
-0.189439
-0.276776
-0.280776
-0.274812
-0.177871
-0.326599
-0.330214
-0.394868
-0.082669
-0.089912
-0.089981
-0.281202
-0.273688
-0.283675
-0.279974
-0.374093
-0.002383
0.017991
-0.073685
-0.246738
-0.250704
-0.404569
-0.333825
-0.154505
-0.168253
-0.154983
-0.141341
-0.154204
-0.142262
-0.150970
-0.047413
-0.200250
-0.165134
-0.051773
-0.138621
-0.132602
-0.314119
-0.177581
-0.181191
-0.180650
-0.349625
-0.338928
-0.345414
-0.214194
-0.175356
-0.181649
-0.254589
-0.281216
-0.266780
-0.118098
-0.115371
-0.133238
-0.126950
-0.126705
-0.059622
-0.363328
-0.414543
-0.236388
-0.243571
-0.240848
-0.105597
-0.289004
-0.313910
-0.306357
0.014213
-0.361158
-0.212807
-0.208882
-0.016446
-0.259535
-0.275642
-0.261559
-0.118832
-0.110502
-0.092601
-0.265603
-0.273087
-0.395037
-0.096662
-0.089333
-0.090623
-0.083879
-0.297588
-0.293929
-0.356605
-0.365390
-0.360868
-0.359234
-0.226486
-0.221548
-0.223124
-0.141891
-0.132051
-0.255829
-0.246094
-0.242342
-0.396981
-0.392567
-0.162487
-0.178128
-0.173298
-0.192546
-0.080304
-0.078443
-0.090906
-0.105009
-0.105965
-0.097982
-0.260666
-0.269895
-0.264815
-0.264865
-0.312236
-0.322255
-0.317556
-0.317619
-0.324251
-0.032388
-0.113488
-0.112642
0.009979
-0.280056
-0.153692
-0.158895
-0.358651
-0.291731
-0.287501
-0.295718
-0.292988
-0.086194
-0.092551
-0.095001
-0.101648
-0.176164
-0.076987
-0.077425
-0.277970
-0.264474
-0.327093
-0.337638
-0.294463
-0.167789
-0.162824
-0.331389
-0.183289
-0.198530
-0.098855
-0.091863
-0.096649
-0.286824
-0.292688
-0.074115
-0.243414
-0.053851
-0.362947
-0.253416
-0.260012
-0.256601
-0.180288
-0.187442
-0.010324
-0.364840
0.027218
-0.016445
-0.410420
-0.357712
-0.298653
-0.291614
-0.212835
-0.321040
-0.329963
-0.231239
-0.212794
-0.402596
-0.295649
-0.287538
-0.116848
-0.112876
-0.123552
-0.284461
-0.210443
-0.204475
0.018042
-0.113259
-0.114000
-0.354568
-0.272889
-0.276633
-0.398636
-0.337333
-0.340220
-0.338525
-0.160371
-0.155645
0.017294
0.019716
-0.348622
-0.278232
-0.285759
-0.278985
-0.186522
-0.074491
-0.268115
-0.300771
-0.306094
-0.119603
-0.108531
-0.192646
-0.065466
-0.191577
-0.193684
-0.187311
-0.311450
-0.315618
-0.037020
-0.051907
-0.226721
-0.198746
-0.019451
-0.262995
-0.267913
-0.203720
-0.202325
-0.288184
-0.292830
-0.294976
-0.129685
-0.130261
-0.065615
-0.143865
0.035399
-0.406125
-0.383734
-0.109955
-0.104388
0.024792
-0.109094
-0.353706
-0.411858
0.025066
-0.031440
-0.040674
-0.429928
-0.023240
-0.014846
-0.109524
-0.385795
0.034298
-0.378417
-0.159805
-0.433905
-0.434380
-0.439951
-0.127988
-0.434967
0.012397
-0.072135
0.013834
-0.302287
-0.186353
-0.441490
-0.001467
-0.234293
-0.157860
-0.142616
-0.146369
-0.128840
-0.116025
-0.109481
-0.102301
-0.117433
-0.196829
-0.359414
-0.101970
-0.249835
-0.242482
-0.347407
-0.273293
-0.250405
-0.199084
-0.302851
-0.034506
-0.210576
-0.227424
-0.117382
-0.108212
-0.203387
-0.265358
-0.270936
-0.132183
-0.138586
-0.136752
-0.092902
-0.016732
-0.024516
-0.129540
-0.010119
-0.154566
-0.035461
-0.330895
-0.218310
-0.182350
-0.123736
-0.095061
-0.010347
-0.289697
0.017653
-0.315666
-0.112342
-0.011254
-0.020129
-0.012093
-0.046223
-0.374131
-0.025558
-0.399096
-0.394954
-0.280109
-0.163534
-0.371986
-0.374658
-0.104722
-0.116895
-0.046686
-0.059819
-0.012111
-0.411866
-0.138514
-0.146137
-0.181149
-0.221474
-0.097673
-0.238249
-0.241585
-0.277705
-0.384215
-0.150778
-0.227453
-0.234705
-0.016502
-0.239844
-0.245992
-0.240699
-0.151890
-0.308039
-0.332748
-0.266297
-0.008139
-0.145170
-0.078365
-0.053975
-0.368323
-0.137308
-0.144817
-0.342542
-0.123729
-0.119180
-0.122464
-0.149873
-0.154123
-0.347085
-0.350880
-0.353803
-0.138997
-0.144880
-0.144765
-0.164567
-0.161019
-0.168464
-0.297645
-0.320435
-0.208700
-0.289717
-0.353326
-0.346046
-0.236772
-0.204563
-0.302732
-0.176843
-0.208918
-0.232169
-0.305802
SCALARS UY float 1
LOOKUP_TABLE default
-0.000000
-0.000000
-1.109990
-1.110000
-0.532777
-0.799254
-0.000000
-0.000000
-0.000000
-0.000000
-0.000000
-0.000000
-0.000000
-0.000000
-0.000000
-0.000000
-0.000000
-0.000000
-0.089254
-0.166977
-0.236812
-0.300688
-0.358169
-0.410016
-0.456947
-0.499464
-0.537894
-0.572909
-0.604484
-0.633029
-0.658935
-0.682541
-0.704074
-0.723536
-0.741218
-0.757646
-0.772572
-0.786557
-0.812710
-0.828778
-0.848126
-0.872153
-0.901497
-0.938465
-0.983339
-1.038997
-1.110001
-1.109999
-1.110000
-1.110000
-1.110000
-1.110000
-1.110000
-1.110000
-1.110000
-1.110000
-1.110000
-1.110000
-1.023861
-0.949355
-0.884691
-0.828668
-0.780184
-0.738045
-0.701427
-0.669314
-0.641471
-0.617068
-0.595669
-0.576964
-0.560362
-0.545603
-0.519457
-0.505439
-0.489575
-0.471729
-0.451564
-0.428777
-0.402623
-0.372537
-0.338217
-0.298719
-0.253698
-0.202172
-0.143371
-0.076088
-0.538799
-0.544050
-0.548343
-0.552089
-0.555667
-0.559032
-0.561979
-0.564792
-0.567397
-0.570112
-0.572657
-0.575035
-0.577537
-0.579867
-0.582251
-0.584376
-0.586670
-0.588875
-0.591128
-0.593339
-0.595510
-0.597720
-0.599910
-0.602004
-0.604281
-0.606482
-0.608532
-0.610663
-0.612997
-0.615029
-0.617155
-0.619293
-0.621418
-0.623634
-0.625766
-0.627972
-0.630009
-0.632138
-0.634385
-0.636444
-0.638598
-0.640778
-0.642884
-0.645099
-0.647260
-0.649300
-0.651450
-0.653595
-0.655751
-0.657864
-0.660048
-0.662218
-0.664422
-0.666437
-0.668592
-0.670787
-0.672939
-0.675145
-0.677272
-0.679550
-0.681605
-0.683863
-0.685850
-0.688075
-0.690285
-0.692532
-0.694579
-0.696865
-0.699121
-0.701283
-0.703513
-0.705725
-0.707979
-0.710272
-0.712669
-0.714659
-0.717062
-0.719289
-0.721721
-0.723981
-0.726301
-0.728819
-0.731237
-0.733618
-0.735952
-0.738584
-0.741297
-0.744112
-0.747129
-0.750028
-0.753256
-0.756547
-0.760085
-0.763640
-0.767429
-0.771217
-0.775016
-0.779149
-0.783454
-0.788030
-0.793186
-0.668467
-0.646447
-0.656643
-0.638066
-0.845245
-0.843442
-0.819055
-0.876444
-1.030324
-0.990769
-0.973800
-0.766276
-0.767053
-0.778761
-0.866303
-0.836479
-0.867942
-0.729809
-0.733274
-0.743565
-0.665807
-0.648859
-0.662693
-0.762255
-0.742279
-0.767686
-0.656626
-0.655965
-0.666915
-0.604412
-0.599384
-0.611202
-0.715775
-0.724992
-0.728219
-0.741964
-0.631403
-0.648967
-0.639760
-0.770852
-0.779367
-0.765721
-0.751011
-0.753161
-0.710293