# vtk DataFile Version 2.0
Test
ASCII
DATASET POLYDATA
POINTS 1770 float
0.000000 0.000000 0.000000
1.000000 0.000000 0.000000
1.000000 1.000000 0.000000
0.000000 1.000000 0.000000
0.000000 0.500000 0.000000
1.000000 0.700000 0.000000
0.076923 0.000000 0.000000
0.153846 0.000000 0.000000
0.230769 0.000000 0.000000
0.307692 0.000000 0.000000
0.384615 0.000000 0.000000
0.461538 0.000000 0.000000
0.538462 0.000000 0.000000
0.615385 0.000000 0.000000
0.692308 0.000000 0.000000
0.769231 0.000000 0.000000
0.846154 0.000000 0.000000
0.923077 0.000000 0.000000
1.000000 0.075421 0.000000
1.000000 0.143732 0.000000
1.000000 0.205602 0.000000
1.000000 0.261640 0.000000
1.000000 0.312395 0.000000
1.000000 0.358364 0.000000
1.000000 0.400000 0.000000
1.000000 0.437711 0.000000
1.000000 0.471866 0.000000
1.000000 0.502801 0.000000
1.000000 0.530820 0.000000
1.000000 0.556197 0.000000
1.000000 0.579182 0.000000
1.000000 0.600000 0.000000
1.000000 0.618855 0.000000
1.000000 0.635933 0.000000
1.000000 0.651401 0.000000
1.000000 0.665410 0.000000
1.000000 0.678099 0.000000
1.000000 0.689591 0.000000
1.000000 0.711139 0.000000
1.000000 0.725174 0.000000
1.000000 0.742857 0.000000
1.000000 0.765136 0.000000
1.000000 0.793206 0.000000
1.000000 0.828571 0.000000
1.000000 0.873129 0.000000
1.000000 0.929269 0.000000
0.923077 1.000000 0.000000
0.846154 1.000000 0.000000
0.769231 1.000000 0.000000
0.692308 1.000000 0.000000
0.615385 1.000000 0.000000
0.538462 1.000000 0.000000
0.461538 1.000000 0.000000
0.384615 1.000000 0.000000
0.307692 1.000000 0.000000
0.230769 1.000000 0.000000
0.153846 1.000000 0.000000
0.076923 1.000000 0.000000
0.000000 0.926029 0.000000
0.000000 0.861633 0.000000
0.000000 0.805574 0.000000
0.000000 0.756771 0.000000
0.000000 0.714286 0.000000
0.000000 0.677300 0.000000
0.000000 0.645102 0.000000
0.000000 0.617073 0.000000
0.000000 0.592671 0.000000
0.000000 0.571429 0.000000
0.000000 0.552936 0.000000
0.000000 0.536837 0.000000
0.000000 0.522822 0.000000
0.000000 0.510621 0.000000
0.000000 0.489379 0.000000
0.000000 0.477178 0.000000
0.000000 0.463163 0.000000
0.000000 0.447064 0.000000
0.000000 0.428571 0.000000
0.000000 0.407329 0.000000
0.000000 0.382927 0.000000
0.000000 0.354898 0.000000
0.000000 0.322700 0.000000
0.000000 0.285714 0.000000
0.000000 0.243229 0.000000
0.000000 0.194426 0.000000
0.000000 0.138367 0.000000
0.000000 0.073971 0.000000
0.009804 0.501961 0.000000
0.019608 0.503922 0.000000
0.029412 0.505882 0.000000
0.039216 0.507843 0.000000
0.049020 0.509804 0.000000
0.058824 0.511765 0.000000
0.068627 0.513725 0.000000
0.078431 0.515686 0.000000
0.088235 0.517647 0.000000
0.098039 0.519608 0.000000
0.107843 0.521569 0.000000
0.117647 0.523529 0.000000
0.127451 0.525490 0.000000
0.137255 0.527451 0.000000
0.147059 0.529412 0.000000
0.156863 0.531373 0.000000
0.166667 0.533333 0.000000
0.176471 0.535294 0.000000
0.186275 0.537255 0.000000
0.196078 0.539216 0.000000
0.205882 0.541176 0.000000
0.215686 0.543137 0.000000
0.225490 0.545098 0.000000
0.235294 0.547059 0.000000
0.245098 0.549020 0.000000
0.254902 0.550980 0.000000
0.264706 0.552941 0.000000
0.274510 0.554902 0.000000
0.284314 0.556863 0.000000
0.294118 0.558824 0.000000
0.303922 0.560784 0.000000
0.313725 0.562745 0.000000
0.323529 0.564706 0.000000
0.333333 0.566667 0.000000
0.343137 0.568627 0.000000
0.352941 0.570588 0.000000
0.362745 0.572549 0.000000
0.372549 0.574510 0.000000
0.382353 0.576471 0.000000
0.392157 0.578431 0.000000
0.401961 0.580392 0.000000
0.411765 0.582353 0.000000
0.421569 0.584314 0.000000
0.431373 0.586275 0.000000
0.441176 0.588235 0.000000
0.450980 0.590196 0.000000
0.460784 0.592157 0.000000
0.470588 0.594118 0.000000
0.480392 0.596078 0.000000
0.490196 0.598039 0.000000
0.500000 0.600000 0.000000
0.509804 0.601961 0.000000
0.519608 0.603922 0.000000
0.529412 0.605882 0.000000
0.539216 0.607843 0.000000
0.549020 0.609804 0.000000
0.558824 0.611765 0.000000
0.568627 0.613725 0.000000
0.578431 0.615686 0.000000
0.588235 0.617647 0.000000
0.598039 0.619608 0.000000
0.607843 0.621569 0.000000
0.617647 0.623529 0.000000
0.627451 0.625490 0.000000
0.637255 0.627451 0.000000
0.647059 0.629412 0.000000
0.656863 0.631373 0.000000
0.666667 0.633333 0.000000
0.676471 0.635294 0.000000
0.686275 0.637255 0.000000
0.696078 0.639216 0.000000
0.705882 0.641176 0.000000
0.715686 0.643137 0.000000
0.725490 0.645098 0.000000
0.735294 0.647059 0.000000
0.745098 0.649020 0.000000
0.754902 0.650980 0.000000
0.764706 0.652941 0.000000
0.774510 0.654902 0.000000
0.784314 0.656863 0.000000
0.794118 0.658824 0.000000
0.803922 0.660784 0.000000
0.813725 0.662745 0.000000
0.823529 0.664706 0.000000
0.833333 0.666667 0.000000
0.843137 0.668627 0.000000
0.852941 0.670588 0.000000
0.862745 0.672549 0.000000
0.872549 0.674510 0.000000
0.882353 0.676471 0.000000
0.892157 0.678431 0.000000
0.901961 0.680392 0.000000
0.911765 0.682353 0.000000
0.921569 0.684314 0.000000
0.931373 0.686275 0.000000
0.941176 0.688235 0.000000
0.950980 0.690196 0.000000
0.960784 0.692157 0.000000
0.970588 0.694118 0.000000
0.980392 0.696078 0.000000
0.990196 0.698039 0.000000
0.113534 0.606152 0.000000
0.107142 0.586373 0.000000
0.121751 0.595256 0.000000
0.125314 0.578403 0.000000
0.608008 0.765681 0.000000
0.585349 0.764086 0.000000
0.591336 0.741952 0.000000
0.592072 0.793974 0.000000
0.550258 0.931017 0.000000
0.517159 0.896365 0.000000
0.557866 0.881366 0.000000
0.885592 0.689744 0.000000
0.900640 0.689195 0.000000
0.893881 0.699663 0.000000
0.791014 0.782870 0.000000
0.806073 0.755575 0.000000
0.814238 0.783906 0.000000
0.755950 0.661588 0.000000
0.766977 0.664624 0.000000
0.759150 0.673362 0.000000
0.237587 0.602856 0.000000
0.244276 0.587613 0.000000
0.255222 0.600052 0.000000
0.435458 0.690521 0.000000
0.445365 0.672382 0.000000
0.452783 0.695442 0.000000
0.434168 0.596027 0.000000
0.443497 0.595614 0.000000
0.440408 0.604928 0.000000
0.125631 0.548518 0.000000
0.136149 0.544058 0.000000
0.133888 0.554367 0.000000
0.684531 0.649457 0.000000
0.693022 0.657375 0.000000
0.680758 0.660164 0.000000
0.688513 0.672143 0.000000
0.209804 0.572062 0.000000
0.211391 0.587677 0.000000
0.198823 0.579466 0.000000
0.912173 0.691199 0.000000
0.919923 0.697571 0.000000
0.840788 0.691515 0.000000
0.836260 0.679067 0.000000
0.846581 0.680639 0.000000
0.610270 0.644163 0.000000
0.606363 0.631487 0.000000
0.618571 0.634947 0.000000
0.703833 0.664888 0.000000
0.705328 0.651574 0.000000
0.718551 0.657874 0.000000
0.476110 0.619965 0.000000
0.470756 0.606568 0.000000
0.483603 0.608681 0.000000
0.787587 0.718715 0.000000
0.799121 0.708516 0.000000
0.805593 0.724753 0.000000
0.545957 0.632159 0.000000
0.551865 0.620855 0.000000
0.557339 0.632078 0.000000
0.494856 0.610760 0.000000
0.503640 0.608636 0.000000
0.360926 0.590762 0.000000
0.373577 0.584863 0.000000
0.371469 0.597941 0.000000
0.331595 0.581327 0.000000
0.327955 0.573642 0.000000
0.337441 0.574864 0.000000
0.452770 0.600633 0.000000
0.450058 0.613037 0.000000
0.678157 0.643781 0.000000
0.204164 0.604889 0.000000
0.194170 0.595839 0.000000
0.640959 0.641938 0.000000
0.656321 0.640868 0.000000
0.651180 0.656559 0.000000
0.987799 0.705954 0.000000
0.990005 0.721233 0.000000
0.977245 0.712758 0.000000
0.974986 0.729512 0.000000
0.333802 0.812487 0.000000
0.361509 0.790617 0.000000
0.367317 0.828894 0.000000
0.604086 0.908536 0.000000
0.602873 0.861865 0.000000
0.486055 0.632060 0.000000
0.466853 0.635244 0.000000
0.541673 0.619743 0.000000
0.532472 0.631076 0.000000
0.541658 0.649026 0.000000
0.522313 0.819315 0.000000
0.510522 0.853722 0.000000
0.487163 0.814552 0.000000
0.308272 0.686111 0.000000
0.313305 0.664245 0.000000
0.331890 0.672844 0.000000
0.462242 0.618446 0.000000
0.459244 0.608252 0.000000
0.859980 0.693314 0.000000
0.849777 0.691819 0.000000
0.856777 0.681858 0.000000
0.942362 0.711719 0.000000
0.941048 0.728383 0.000000
0.931633 0.715819 0.000000
0.696422 0.925997 0.000000
0.743778 0.899483 0.000000
0.736714 0.951105 0.000000
0.710099 0.873175 0.000000
0.706855 0.827503 0.000000
0.748341 0.846430 0.000000
0.404569 0.612087 0.000000
0.400941 0.600304 0.000000
0.413129 0.601428 0.000000
0.739879 0.801859 0.000000
0.689244 0.763692 0.000000
0.711842 0.784429 0.000000
0.682971 0.800595 0.000000
0.849502 0.703362 0.000000
0.872437 0.693808 0.000000
0.880424 0.705421 0.000000
0.247911 0.613985 0.000000
0.230071 0.625013 0.000000
0.426705 0.605906 0.000000
0.417314 0.614950 0.000000
0.564489 0.781794 0.000000
0.542753 0.763395 0.000000
0.563888 0.747070 0.000000
0.540876 0.795125 0.000000
0.254442 0.628223 0.000000
0.675859 0.845039 0.000000
0.389585 0.604484 0.000000
0.382141 0.593934 0.000000
0.394023 0.590296 0.000000
0.210190 0.549067 0.000000
0.218913 0.550855 0.000000
0.211545 0.558654 0.000000
0.509032 0.731434 0.000000
0.480547 0.728234 0.000000
0.498097 0.707679 0.000000
0.408331 0.625772 0.000000
0.737928 0.766371 0.000000
0.713411 0.751924 0.000000
0.236129 0.559953 0.000000
0.247527 0.565947 0.000000
0.238129 0.573668 0.000000
0.277601 0.586118 0.000000
0.273407 0.573379 0.000000
0.286542 0.574133 0.000000
0.695186 0.646009 0.000000
0.128809 0.536590 0.000000
0.385032 0.584469 0.000000
0.959668 0.883416 0.000000
0.604963 0.829728 0.000000
0.627628 0.795445 0.000000
0.636557 0.838109 0.000000
0.226927 0.903063 0.000000
0.196567 0.877414 0.000000
0.253614 0.858563 0.000000
0.488755 0.686131 0.000000
0.474772 0.701653 0.000000
0.208074 0.832028 0.000000
0.596571 0.714257 0.000000
0.619682 0.736143 0.000000
0.620249 0.709238 0.000000
0.426920 0.878300 0.000000
0.456147 0.845659 0.000000
0.471012 0.891685 0.000000
0.607192 0.695818 0.000000
0.525672 0.709461 0.000000
0.509369 0.690109 0.000000
0.535964 0.736172 0.000000
0.737088 0.738406 0.000000
0.716812 0.727414 0.000000
0.735580 0.717065 0.000000
0.717714 0.708748 0.000000
0.733899 0.701419 0.000000
0.434815 0.713754 0.000000
0.456218 0.743004 0.000000
0.415116 0.743197 0.000000
0.459688 0.716033 0.000000
0.441105 0.768871 0.000000
[...]
POINT_DATA 1770
SCALARS UX float 1
LOOKUP_TABLE default
-0.004026
0.000000
0.000000
-0.004179
-0.004115
0.000214
-0.003702
-0.003378
-0.003053
-0.002729
-0.002406
-0.002085
-0.001767
-0.001451
-0.001139
-0.000832
-0.000532
-0.000256
0.000125
0.000176
0.000205
0.000225
0.000242
0.000257
0.000270
0.000282
0.000293
0.000303
0.000312
0.000321
0.000328
0.000335
0.000341
0.000345
0.000345
0.000338
0.000323
0.000278
0.000153
0.000119
0.000104
0.000105
0.000116
0.000134
0.000156
0.000172
-0.000000
-0.000413
-0.000795
-0.001153
-0.001501
-0.001844
-0.002183
-0.002519
-0.002853
-0.003185
-0.003516
-0.003847
-0.004181
-0.004185
-0.004191
-0.004197
-0.004203
-0.004209
-0.004214
-0.004219
-0.004223
-0.004226
-0.004226
-0.004220
-0.004201
-0.004164
-0.004032
-0.004001
-0.003988
-0.003982
-0.003981
-0.003984
-0.003987
-0.003992
-0.003997
-0.004002
-0.004008
-0.004014
-0.004020
-0.004024
-0.004072
-0.004029
-0.003986
-0.003943
-0.003900
-0.003858
-0.003815
-0.003773
-0.003729
-0.003686
-0.003643
-0.003601
-0.003558
-0.003515
-0.003473
-0.003430
-0.003385
-0.003341
-0.003297
-0.003255
-0.003213
-0.003171
-0.003128
-0.003085
-0.003042
-0.002999
-0.002958
-0.002916
-0.002873
-0.002831
-0.002789
-0.002747
-0.002705
-0.002663
-0.002622
-0.002582
-0.002541
-0.002499
-0.002457
-0.002415
-0.002372
-0.002330
-0.002288
-0.002245
-0.002202
-0.002160
-0.002117
-0.002074
-0.002031
-0.001988
-0.001947
-0.001906
-0.001864
-0.001822
-0.001779
-0.001737
-0.001695
-0.001653
-0.001611
-0.001569
-0.001527
-0.001484
-0.001443
-0.001401
-0.001359
-0.001317
-0.001275
-0.001233
-0.001190
-0.001149
-0.001105
-0.001063
-0.001020
-0.000978
-0.000935
-0.000892
-0.000849
-0.000805
-0.000762
-0.000719
-0.000676
-0.000633
-0.000591
-0.000548
-0.000507
-0.000465
-0.000423
-0.000381
-0.000339
-0.000298
-0.000256
-0.000214
-0.000173
-0.000133
-0.000090
-0.000048
-0.000005
0.000038
0.000081
0.000125
0.000169
-0.003729
-0.003758
-0.003694
-0.003677
-0.001572
-0.001671
-0.001649
-0.001635
-0.001795
-0.001945
-0.001768
-0.000354
-0.000273
-0.000338
-0.000781
-0.000727
-0.000682
-0.000897
-0.000854
-0.000917
-0.003189
-0.003156
-0.003112
-0.002330
-0.002289
-0.002254
-0.002279
-0.002229
-0.002277
-0.003652
-0.003590
-0.003623
-0.001212
-0.001193
-0.001255
-0.001235
-0.003298
-0.003301
-0.003354
-0.000220
-0.000207
-0.000572
-0.000561
-0.000515
-0.001556
-0.001543
-0.001494
-0.001156
-0.001115
-0.001072
-0.002139
-0.002135
-0.002078
-0.000815
-0.000765
-0.000737
-0.001836
-0.001779
-0.001783
-0.002029
-0.001974
-0.002625
-0.002543
-0.002590
-0.002741
-0.002731
-0.002686
-0.002203
-0.002249
-0.001222
-0.003336
-0.003379
-0.001405
-0.001325
-0.001387
0.000109
0.000078
0.000035
-0.000003
-0.002753
-0.002636
-0.002606
-0.001560
-0.001573
-0.002107
-0.002193
-0.001826
-0.001897
-0.001869
-0.001933
-0.001980
-0.002087
-0.002880
-0.002860
-0.002779
-0.002201
-0.002194
-0.000485
-0.000530
-0.000468
-0.000132
-0.000153
-0.000186
-0.001143
-0.000938
-0.000956
-0.001097
-0.001127
-0.000939
-0.002456
-0.002454
-0.002399
-0.000993
-0.001223
-0.001119
-0.001239
-0.000545
-0.000426
-0.000410
-0.003145
-0.003223
-0.002344
-0.002402
-0.001757
-0.001855
-0.001767
-0.001857
-0.003117
-0.001256
-0.002517
-0.002528
-0.002461
-0.003233
-0.003195
-0.003266
-0.002006
-0.002130
-0.002057
-0.002447
-0.001014
-0.001123
-0.003147
-0.003108
-0.003171
-0.003006
-0.003004
-0.002943
-0.001144
-0.003604
-0.002483
-0.000006
-0.001571
-0.001480
-0.001430
-0.003205
-0.003338
-0.003094
-0.002100
-0.002159
-0.003293
-0.001632
-0.001528
-0.001531
-0.002341
-0.002218
-0.002148
-0.001588
-0.001938
-0.002011
-0.001889
-0.001025
-0.001114
-0.001036
-0.001114
-0.001045
-0.002330
-0.002233
-0.002411
-0.002222
-0.002294
-0.003798
-0.003760
-0.003723
-0.001787
-0.001745
-0.001694
-0.003768
-0.003817
0.000010
-0.000085
-0.000089
0.000025
-0.002571
-0.002573
-0.002675
-0.002661
-0.000872
-0.000813
-0.000053
-0.000101
-0.003376
-0.003676
-0.003575
-0.003927
-0.003955
-0.003889
-0.003900
-0.003996
-0.000354
-0.000416
-0.002029
-0.001978
-0.002060
-0.001949
0.000016
-0.000948
-0.000873
-0.000882
-0.001998
-0.003121
-0.001759
-0.002423
-0.002594
-0.002984
-0.004159
-0.004167
-0.002482
-0.000145
-0.000171
-0.003132
-0.002889
-0.002826
-0.002992
-0.003017
-0.002544
-0.002709
-0.000150
-0.000294
-0.000169
-0.000271
-0.001270
-0.004034
-0.003967
-0.003879
-0.003863
-0.001352
-0.004080
-0.004058
-0.003981
-0.003962
-0.004083
-0.003750
-0.003973
-0.001352
-0.001356
-0.003905
-0.001303
-0.001322
-0.001937
-0.001963
-0.004140
-0.001925
-0.004111
-0.003976
-0.000225
-0.000277
-0.000296
-0.001377
-0.003775
-0.004004
-0.003258
-0.000768
-0.000234
-0.000282
-0.003866
-0.003907
-0.000445
-0.000336
-0.000587
-0.003973
-0.000184
-0.000189
-0.002072
-0.002144
-0.003737
-0.003653
-0.000016
-0.003608
-0.003691
-0.003609
-0.003682
-0.003609
-0.003152
-0.003283
-0.003142
-0.003846
-0.003884
-0.003948
-0.003304
-0.000579
-0.001615
-0.003872
-0.003927
-0.001015
-0.000976
-0.001586
-0.001512
-0.001523
-0.002995
-0.002898
-0.002949
-0.002935
-0.001331
-0.001411
-0.001372
-0.001363
-0.000380
-0.000439
-0.000496
-0.003983
-0.000770
-0.000480
-0.000563
-0.000523
-0.000566
-0.000512
-0.000793
-0.000858
-0.000656
-0.000625
-0.000593
-0.002425
-0.002380
-0.002359
-0.000958
-0.000634
-0.000690
-0.000890
-0.001658
-0.001619
-0.000958
-0.002203
-0.003807
-0.003888
-0.003827
-0.002763
-0.002706
-0.002755
-0.000829
-0.000900
-0.000920
-0.002700
-0.002610
-0.002562
-0.002632
-0.002549
-0.002493
-0.000350
-0.002445
-0.003932
-0.003686
-0.002271
-0.002262
-0.002481
-0.003707
-0.003667
-0.002314
-0.003548
-0.003440
-0.003464
-0.003500
-0.002324
-0.000815
-0.001211
-0.000786
-0.003338
-0.003407
-0.003380
-0.001278
-0.001193
-0.001308
-0.000334
-0.000412
-0.000359
-0.003455
-0.003511
-0.001255
-0.001178
-0.001229
-0.001300
-0.003647
-0.001981
-0.003428
-0.003396
-0.003353
-0.003412
-0.002162
-0.003561
-0.003504
-0.003508
-0.002081
-0.002397
-0.002460
-0.003268
-0.003323
-0.001603
-0.001599
-0.001661
-0.003455
-0.002382
-0.001413
-0.001469
-0.003467
-0.003495
-0.003541
-0.003554
-0.001846
-0.001930
-0.003501
-0.003425
-0.002358
-0.002621
-0.002648
-0.002649
-0.002708
-0.002325
-0.002769
-0.002789
-0.002523
-0.003246
-0.003193
-0.001013
-0.001072
-0.001646
-0.002146
-0.002085
-0.002794
-0.002850
-0.002881
-0.002814
-0.002832
-0.001118
-0.001099
-0.001317
-0.001370
-0.004011
-0.001268
-0.003214
-0.002054
-0.003684
-0.003613
-0.003733
-0.003743
-0.003789
-0.003703
-0.003677
-0.003851
-0.003830
-0.000692
-0.000640
-0.000693
-0.003568
-0.001879
-0.002030
-0.000743
-0.003031
-0.002960
-0.003024
-0.002958
-0.003077
-0.003062
-0.000755
-0.002934
-0.002748
-0.002856
-0.002989
-0.003523
-0.001603
-0.001511
-0.000711
-0.003242
-0.003148
-0.003266
-0.003357
-0.003862
-0.003345
-0.001974
-0.002004
-0.001941
-0.002887
-0.002867
-0.002653
-0.002694
-0.002592
-0.000480
-0.000463
-0.002709
-0.002782
-0.003457
-0.003404
-0.001450
-0.001462
-0.003226
-0.001039
-0.001723
-0.001722
-0.002973
-0.003026
-0.001173
-0.002788
-0.002911
-0.004037
-0.003104
-0.003118
-0.003063
-0.001866
-0.001785
-0.001683
-0.003070
-0.002657
-0.001813
-0.003799
-0.003735
-0.002116
-0.002577
-0.003217
-0.002296
-0.002899
-0.003065
-0.002569
-0.003165
-0.003098
-0.003545
-0.003758
-0.004017
-0.004055
-0.001963
-0.003841
-0.002406
-0.001453
-0.003625
-0.003774
-0.004142
-0.000254
-0.003844
-0.000235
-0.001739
-0.004150
-0.004108
-0.004101
-0.004044
-0.004158
-0.004015
-0.004034
-0.004080
-0.004104
-0.004084
-0.001818
-0.001655
-0.002780
-0.002843
-0.003945
-0.000054
-0.003016
-0.004116
-0.004102
-0.002781
-0.004083
-0.000082
-0.003303
-0.000021
-0.003614
-0.000935
-0.004157
0.000067
0.000023
-0.002841
-0.000601
-0.000660
-0.000640
-0.003550
-0.003621
-0.002197
-0.002898
-0.002942
-0.003395
-0.003478
-0.001729
-0.002045
-0.001431
-0.001469
-0.003459
-0.003486
-0.000814
-0.003764
-0.003626
-0.001891
-0.003556
-0.003651
-0.003039
-0.001448
-0.003309
-0.002402
-0.001725
-0.000425
-0.000377
-0.003387
-0.000591
-0.002822
-0.002900
-0.001676
-0.002357
-0.000809
-0.003075
-0.002740
-0.003083
-0.002560
-0.001000
-0.002939
-0.001460
-0.001822
-0.003324
-0.003378
-0.003406
-0.003306
-0.001366
-0.001429
-0.001417
-0.001407
-0.001792
-0.001798
-0.001840
-0.001931
-0.001835
-0.002081
-0.003456
-0.003413
-0.001928
-0.003906
-0.003894
-0.000067
-0.000189
-0.000086
-0.003801
-0.003820
-0.000182
-0.002218
-0.002500
0.000129
0.000082
0.000190
0.000081
-0.000236
-0.000213
-0.000272
-0.000173
-0.002721
-0.002746
-0.002669
-0.002662
-0.001898
-0.001806
-0.001888
-0.001844
-0.003459
-0.003408
-0.003392
-0.003384
-0.003244
-0.003257
-0.002131
-0.002183
-0.002109
0.000034
-0.003439
-0.003369
-0.003428
-0.003400
-0.003314
-0.003201
-0.003237
-0.003133
-0.001762
-0.001807
-0.001738
-0.001475
-0.001447
-0.000970
-0.001003
-0.000887
-0.001062
-0.000642
-0.000607
-0.000689
-0.000534
-0.001466
-0.002258
-0.002299
-0.002320
-0.000006
0.000003
-0.000053
-0.002339
-0.002386
-0.002332
-0.002363
-0.003730
-0.003713
-0.003672
-0.003067
-0.003099
-0.003139
-0.002227
-0.002285
-0.000645
-0.000621
-0.000575
-0.001415
-0.001357
-0.001356
-0.001304
-0.000951
-0.000881
-0.002077
-0.002102
-0.002147
-0.001910
-0.001943
-0.001888
-0.000945
-0.000890
-0.000960
-0.001961
-0.002012
-0.002036
-0.001977
-0.003009
-0.002950
-0.002993
-0.002938
-0.003066
-0.003030
-0.003085
-0.001709
-0.001709
-0.001793
-0.001390
-0.001292
-0.001271
-0.001731
-0.003012
-0.003062
-0.002977
-0.001224
-0.001232
-0.001277
-0.001229
-0.001236
-0.001171
-0.002829
-0.002831
-0.002903
-0.001202
-0.000903
-0.001059
-0.000971
-0.001002
-0.003105
-0.003119
-0.002242
-0.002291
-0.002243
-0.001517
-0.001576
-0.001561
-0.001575
-0.003847
-0.003882
-0.003824
-0.003867
-0.001079
-0.001095
-0.001143
-0.001364
-0.001409
0.000211
0.000239
0.000275
0.000174
-0.002701
-0.002580
-0.002771
-0.001143
-0.000001
-0.000100
-0.001891
-0.001824
-0.002527
-0.002460
-0.002497
-0.001124
-0.001107
-0.001186
-0.001313
0.000081
0.000052
-0.000000
-0.000018
-0.002508
-0.000575
-0.000530
-0.000533
-0.001254
-0.001211
-0.001263
-0.003102
-0.003049
-0.001585
-0.001654
-0.001613
-0.001986
-0.001936
-0.001999
-0.002721
-0.002601
-0.003478
-0.003541
-0.003497
-0.003575
-0.002509
-0.002545
-0.002576
-0.001131
-0.001519
-0.001522
-0.000030
0.000041
0.000022
-0.003739
-0.003630
-0.003719
-0.003617
-0.000053
-0.000077
-0.000309
-0.000505
-0.000287
-0.000431
-0.002832
-0.002834
-0.002889
-0.002778
-0.002147
-0.001613
-0.001535
-0.001619
-0.002323
-0.001999
-0.001777
-0.001710
-0.001735
0.000267
0.000294
-0.000484
-0.000439
-0.000522
-0.000401
-0.000414
-0.000697
-0.000623
-0.002370
-0.002339
-0.002520
-0.003131
-0.003068
-0.002986
-0.003367
-0.003550
-0.003549
-0.003495
-0.003602
-0.003515
-0.003400
-0.003510
-0.003283
-0.003820
-0.003827
-0.001184
-0.001243
-0.001342
-0.001059
-0.002942
-0.002863
-0.001112
-0.002725
-0.002924
-0.003816
-0.003763
-0.001501
-0.003778
-0.000046
-0.000120
-0.001969
-0.001974
-0.002082
-0.002090
-0.003862
-0.000261
-0.000203
-0.000279
-0.000250
-0.000196
-0.000722
-0.000618
-0.000801
-0.002379
-0.002355
-0.002347
-0.003149
-0.003206
-0.003202
-0.000340
-0.000403
-0.000394
-0.000036
-0.003837
-0.003766
-0.003838
0.000145
0.000091
0.000045
0.000226
-0.003765
-0.003710
-0.003347
-0.003298
-0.003321
-0.003645
-0.003692
-0.003678
-0.003646
-0.003604
-0.000023
-0.003662
0.000204
0.000182
0.000126
-0.002331
-0.002363
-0.002428
-0.003436
-0.003531
-0.003423
-0.003525
-0.003527
-0.000742
-0.000580
-0.001970
-0.002098
-0.001879
-0.001768
-0.001967
-0.001833
-0.003788
0.000082
0.000124
0.000063
0.000126
-0.000684
-0.000653
-0.000627
-0.000655
-0.000607
-0.000118
-0.000131
-0.002051
-0.000717
-0.003899
-0.003137
-0.003103
-0.000744
-0.000714
-0.002854
-0.000164
-0.000273
-0.001117
-0.001219
-0.001176
-0.001161
-0.001556
-0.000399
-0.000451
-0.000463
-0.000202
-0.000266
-0.000477
-0.000420
-0.000559
-0.000799
-0.003471
-0.003490
0.000119
0.000040
0.000175
0.000031
-0.000032
-0.001563
-0.000066
-0.000123
-0.000129
-0.002062
-0.002017
-0.000491
-0.000446
-0.000471
-0.001460
-0.001521
-0.001689
-0.001597
-0.000130
-0.000032
-0.000187
-0.003128
-0.003136
-0.003207
-0.003063
-0.003908
-0.000275
0.000068
-0.003045
-0.000778
-0.000744
-0.000817
-0.003101
-0.003270
-0.003322
-0.002884
-0.003010
0.000183
0.000133
-0.002952
-0.003029
-0.002910
-0.000474
-0.000369
-0.000505
-0.000355
-0.002810
-0.002924
-0.003024
0.000194
0.000150
0.000196
0.000257
0.000275
-0.000635
-0.000858
-0.000516
-0.000649
-0.000103
-0.000654
-0.000840
-0.000727
0.000137
-0.000808
-0.000008
0.000054
-0.000799
-0.000955
-0.000918
-0.002384
-0.002490
-0.002472
0.000213
0.000147
-0.000410
-0.003645
-0.003919
-0.000572
-0.000316
0.000229
-0.000486
0.000032
0.000008
-0.003839
-0.002755
-0.002782
-0.003643
-0.003696
0.000170
-0.000521
-0.000553
-0.002181
-0.002208
-0.002284
-0.002250
-0.003753
-0.003865
-0.000206
-0.000140
-0.000201
-0.002620
-0.002662
0.000217
-0.000250
-0.000152
-0.000198
-0.000307
-0.000333
-0.003752
-0.000315
-0.003253
-0.003243
-0.001433
-0.001317
-0.001492
-0.001380
-0.000675
-0.000682
-0.000754
-0.000690
-0.000743
-0.000748
-0.000436
-0.000373
-0.000354
-0.000601
-0.000625
-0.000274
-0.001755
-0.001688
-0.001635
-0.000358
-0.000379
-0.000313
-0.003595
-0.003533
-0.003577
-0.003536
-0.001609
-0.000533
-0.000532
-0.002113
-0.000611
-0.000462
-0.000918
-0.000348
-0.000364
-0.000394
-0.003521
-0.003479
-0.003550
-0.000378
-0.003716
-0.000807
-0.000778
-0.001644
-0.001617
-0.002173
-0.000071
-0.000071
-0.000074
-0.000031
-0.000090
-0.000098
0.000158
-0.000524
-0.000289
-0.000237
-0.000292
-0.000582
-0.003346
-0.003354
-0.002095
-0.000346
-0.002135
-0.000249
-0.000446
-0.000637
-0.000585
-0.002845
-0.002801
-0.002781
-0.002757
-0.002809
-0.000810
-0.000889
-0.000890
-0.000821
-0.002169
-0.000553
-0.002586
-0.002586
-0.001566
-0.001526
-0.001605
-0.001851
-0.001783
-0.001875
-0.001893
-0.003435
-0.001764
-0.002550
-0.002585
-0.002530
-0.001646
-0.002969
-0.003005
-0.003607
-0.000771
-0.000830
-0.000837
-0.002587
-0.002518
-0.002607
-0.002556
-0.003425
-0.000090
0.000085
-0.000693
-0.002275
-0.002308
-0.003693
-0.003035
-0.001449
-0.001574
-0.001457
-0.001328
-0.001442
-0.001333
-0.001410
-0.000442
-0.001855
-0.001543
-0.000504
-0.001350
-0.001304
-0.002958
-0.001656
-0.001669
-0.001669
-0.003208
-0.003111
-0.003162
-0.001985
-0.001614
-0.001668
-0.002351
-0.002592
-0.002463
-0.001129
-0.001100
-0.001263
-0.001200
-0.001210
-0.000546
-0.003304
-0.003801
-0.002178
-0.002242
-0.002220
-0.001038
-0.002672
-0.002883
-0.002814
0.000091
-0.003283
-0.001966
-0.001928
-0.000190
-0.002407
-0.002550
-0.002421
-0.001124
-0.001052
-0.000843
-0.002429
-0.002488
-0.003613
-0.000907
-0.000843
-0.000856
-0.000795
-0.002734
-0.002699
-0.003268
-0.003347
-0.003308
-0.003290
-0.002078
-0.002037
-0.002041
-0.001336
-0.001242
-0.002365
-0.002279
-0.002242
-0.003641
-0.003607
-0.001530
-0.001674
-0.001624
-0.001799
-0.000778
-0.000757
-0.000867
-0.000980
-0.000992
-0.000922
-0.002398
-0.002481
-0.002437
-0.002432
-0.002864
-0.002954
-0.002915
-0.002909
-0.002977
-0.000329
-0.001032
-0.001029
0.000012
-0.002586
-0.001430
-0.001481
-0.003269
-0.002693
-0.002636
-0.002708
-0.002688
-0.000821
-0.000877
-0.000902
-0.000960
-0.001615
-0.000740
-0.000742
-0.002565
-0.002445
-0.003000
-0.003095
-0.002712
-0.001548
-0.001499
-0.003037
-0.001711
-0.001848
-0.000900
-0.000840
-0.000893
-0.002606
-0.002660
-0.000679
-0.002261
-0.000496
-0.003329
-0.002327
-0.002385
-0.002359
-0.001638
-0.001702
-0.000120
-0.003320
0.000214
-0.000169
-0.003821
-0.003255
-0.002716
-0.002652
-0.001934
-0.002918
-0.003004
-0.002111
-0.001976
-0.003689
-0.002689
-0.002622
-0.001065
-0.001037
-0.001124
-0.002588
-0.001911
-0.001861
0.000120
-0.001057
-0.001059
-0.003224
-0.002479
-0.002517
-0.003653
-0.003072
-0.003113
-0.003101
-0.001482
-0.001436
0.000071
0.000093
-0.003195
-0.002557
-0.002624
-0.002561
-0.001708
-0.000680
-0.002442
-0.002749
-0.002795
-0.001117
-0.001018
-0.001750
-0.000638
-0.001740
-0.001763
-0.001709
-0.002840
-0.002879
-0.000381
-0.000515
-0.002100
-0.001809
-0.000192
-0.002393
-0.002435
-0.001862
-0.001856
-0.002634
-0.002671
-0.002695
-0.001178
-0.001188
-0.000643
-0.001306
0.000276
-0.003751
-0.003580
-0.001005
-0.000964
0.000199
-0.001011
-0.003309
-0.003784
0.000178
-0.000347
-0.000440
-0.003899
-0.000286
-0.000201
-0.001001
-0.003556
0.000263
-0.003508
-0.001483
-0.003937
-0.003937
-0.003984
-0.001194
-0.003944
0.000059
-0.000664
0.000104
-0.002755
-0.001693
-0.004001
-0.000072
-0.002150
-0.001451
-0.001330
-0.001362
-0.001169
-0.001053
-0.000996
-0.001018
-0.001154
-0.001812
-0.003269
-0.000949
-0.002291
-0.002224
-0.003163
-0.002507
-0.002303
-0.001818
-0.002754
-0.000356
-0.001959
-0.002109
-0.001099
-0.001017
-0.001875
-0.002412
-0.002462
-0.001235
-0.001291
-0.001272
-0.000851
-0.000183
-0.000272
-0.001259
-0.000124
-0.001433
-0.000399
-0.003079
-0.001986
-0.001669
-0.001123
-0.000946
-0.000129
-0.002670
0.000113
-0.002874
-0.001057
-0.000172
-0.000245
-0.000147
-0.000462
-0.003428
-0.000274
-0.003654
-0.003618
-0.002546
-0.001525
-0.003426
-0.003443
-0.000990
-0.001097
-0.000434
-0.000552
-0.000127
-0.003766
-0.001285
-0.001355
-0.001653
-0.002019
-0.000921
-0.002189
-0.002193
-0.002531
-0.003526
-0.001388
-0.002067
-0.002134
-0.000220
-0.002182
-0.002260
-0.002202
-0.001411
-0.002803
-0.003028
-0.002420
-0.000092
-0.001349
-0.000717
-0.000537
-0.003376
-0.001248
-0.001316
-0.003138
-0.001158
-0.001088
-0.001117
-0.001385
-0.001427
-0.003155
-0.003195
-0.003221
-0.001283
-0.001334
-0.001338
-0.001493
-0.001460
-0.001535
-0.002712
-0.002916
-0.001902
-0.002652
-0.003211
-0.003158
-0.002164
-0.001858
-0.002752
-0.001614
-0.001925
-0.002125
-0.002781
SCALARS UY float 1
LOOKUP_TABLE default
-0.000000
-0.000000
-0.010000
-0.010000
-0.004930
-0.007089
-0.000000
-0.000000
-0.000000
-0.000000
-0.000000
-0.000000
-0.000000
-0.000000
-0.000000
-0.000000
-0.000000
-0.000000
-0.000784
-0.001469
-0.002088
-0.002648
-0.003156
-0.003616
-0.004033
-0.004410
-0.004753
-0.005064
-0.005345
-0.005601
-0.005832
-0.006043
-0.006235
-0.006408
-0.006566
-0.006712
-0.006845
-0.006972
-0.007214
-0.007360
-0.007537
-0.007758
-0.008033
-0.008380
-0.008808
-0.009332
-0.010000
-0.010000
-0.010000
-0.010000
-0.010000
-0.010000
-0.010000
-0.010000
-0.010000
-0.010000
-0.010000
-0.010000
-0.009254
-0.008605
-0.008041
-0.007549
-0.007121
-0.006749
-0.006424
-0.006141
-0.005894
-0.005678
-0.005489
-0.005324
-0.005177
-0.005046
-0.004806
-0.004681
-0.004540
-0.004381
-0.004199
-0.003991
-0.003752
-0.003478
-0.003162
-0.002799
-0.002383
-0.001904
-0.001355
-0.000724
-0.004960
-0.004989
-0.005013
-0.005035
-0.005059
-0.005083
-0.005104
-0.005125
-0.005144
-0.005167
-0.005188
-0.005207
-0.005229
-0.005250
-0.005271
-0.005289
-0.005310
-0.005329
-0.005349
-0.005370
-0.005390
-0.005410
-0.005430
-0.005448
-0.005469
-0.005489
-0.005507
-0.005527
-0.005549
-0.005567
-0.005587
-0.005606
-0.005625
-0.005646
-0.005666
-0.005686
-0.005704
-0.005723
-0.005745
-0.005763
-0.005782
-0.005802
-0.005820
-0.005841
-0.005861
-0.005879
-0.005898
-0.005918
-0.005937
-0.005956
-0.005976
-0.005996
-0.006016
-0.006034
-0.006054
-0.006074
-0.006094
-0.006114
-0.006132
-0.006154
-0.006172
-0.006193
-0.006211
-0.006232
-0.006252
-0.006273
-0.006291
-0.006312
-0.006333
-0.006353
-0.006373
-0.006393
-0.006413
-0.006434
-0.006457
-0.006473
-0.006496
-0.006516
-0.006538
-0.006558
-0.006579
-0.006601
-0.006623
-0.006646
-0.006666
-0.006689
-0.006712
-0.006734
-0.006759
-0.006781
-0.006805
-0.006827
-0.006852
-0.006876
-0.006901
-0.006926
-0.006949
-0.006975
-0.007001
-0.007027
-0.007056
-0.006058
-0.005859
-0.005949
-0.005781
-0.007650
-0.007635
-0.007414
-0.007933
-0.009307
-0.008960
-0.008808
-0.006929
-0.006925
-0.007035
-0.007834
-0.007567
-0.007849
-0.006614
-0.006644
-0.006737
-0.006030
-0.005877
-0.006002
-0.006904
-0.006722
-0.006952
-0.005948
-0.005942
-0.006042
-0.005477
-0.005430
-0.005537
-0.006486
-0.006569
-0.006597
-0.006720
-0.005719
-0.005878
-0.005794
-0.006951
-0.007022
-0.006936
-0.006804
-0.006822