# vtk DataFile Version 2.0
Test
ASCII
DATASET POLYDATA
POINTS 1770 float
0.000000 0.000000 0.000000
1.000000 0.000000 0.000000
1.000000 1.000000 0.000000
0.000000 1.000000 0.000000
0.000000 0.500000 0.000000
1.000000 0.700000 0.000000
0.076923 0.000000 0.000000
0.153846 0.000000 0.000000
0.230769 0.000000 0.000000
0.307692 0.000000 0.000000
0.384615 0.000000 0.000000
0.461538 0.000000 0.000000
0.538462 0.000000 0.000000
0.615385 0.000000 0.000000
0.692308 0.000000 0.000000
0.769231 0.000000 0.000000
0.846154 0.000000 0.000000
0.923077 0.000000 0.000000
1.000000 0.075421 0.000000
1.000000 0.143732 0.000000
1.000000 0.205602 0.000000
1.000000 0.261640 0.000000
1.000000 0.312395 0.000000
1.000000 0.358364 0.000000
1.000000 0.400000 0.000000
1.000000 0.437711 0.000000
1.000000 0.471866 0.000000
1.000000 0.502801 0.000000
1.000000 0.530820 0.000000
1.000000 0.556197 0.000000
1.000000 0.579182 0.000000
1.000000 0.600000 0.000000
1.000000 0.618855 0.000000
1.000000 0.635933 0.000000
1.000000 0.651401 0.000000
1.000000 0.665410 0.000000
1.000000 0.678099 0.000000
1.000000 0.689591 0.000000
1.000000 0.711139 0.000000
1.000000 0.725174 0.000000
1.000000 0.742857 0.000000
1.000000 0.765136 0.000000
1.000000 0.793206 0.000000
1.000000 0.828571 0.000000
1.000000 0.873129 0.000000
1.000000 0.929269 0.000000
0.923077 1.000000 0.000000
0.846154 1.000000 0.000000
0.769231 1.000000 0.000000
0.692308 1.000000 0.000000
0.615385 1.000000 0.000000
0.538462 1.000000 0.000000
0.461538 1.000000 0.000000
0.384615 1.000000 0.000000
0.307692 1.000000 0.000000
0.230769 1.000000 0.000000
0.153846 1.000000 0.000000
0.076923 1.000000 0.000000
0.000000 0.926029 0.000000
0.000000 0.861633 0.000000
0.000000 0.805574 0.000000
0.000000 0.756771 0.000000
0.000000 0.714286 0.000000
0.000000 0.677300 0.000000
0.000000 0.645102 0.000000
0.000000 0.617073 0.000000
0.000000 0.592671 0.000000
0.000000 0.571429 0.000000
0.000000 0.552936 0.000000
0.000000 0.536837 0.000000
0.000000 0.522822 0.000000
0.000000 0.510621 0.000000
0.000000 0.489379 0.000000
0.000000 0.477178 0.000000
0.000000 0.463163 0.000000
0.000000 0.447064 0.000000
0.000000 0.428571 0.000000
0.000000 0.407329 0.000000
0.000000 0.382927 0.000000
0.000000 0.354898 0.000000
0.000000 0.322700 0.000000
0.000000 0.285714 0.000000
0.000000 0.243229 0.000000
0.000000 0.194426 0.000000
0.000000 0.138367 0.000000
0.000000 0.073971 0.000000
0.009804 0.501961 0.000000
0.019608 0.503922 0.000000
0.029412 0.505882 0.000000
0.039216 0.507843 0.000000
0.049020 0.509804 0.000000
0.058824 0.511765 0.000000
0.068627 0.513725 0.000000
0.078431 0.515686 0.000000
0.088235 0.517647 0.000000
0.098039 0.519608 0.000000
0.107843 0.521569 0.000000
0.117647 0.523529 0.000000
0.127451 0.525490 0.000000
0.137255 0.527451 0.000000
0.147059 0.529412 0.000000
0.156863 0.531373 0.000000
0.166667 0.533333 0.000000
0.176471 0.535294 0.000000
0.186275 0.537255 0.000000
0.196078 0.539216 0.000000
0.205882 0.541176 0.000000
0.215686 0.543137 0.000000
0.225490 0.545098 0.000000
0.235294 0.547059 0.000000
0.245098 0.549020 0.000000
0.254902 0.550980 0.000000
0.264706 0.552941 0.000000
0.274510 0.554902 0.000000
0.284314 0.556863 0.000000
0.294118 0.558824 0.000000
0.303922 0.560784 0.000000
0.313725 0.562745 0.000000
0.323529 0.564706 0.000000
0.333333 0.566667 0.000000
0.343137 0.568627 0.000000
0.352941 0.570588 0.000000
0.362745 0.572549 0.000000
0.372549 0.574510 0.000000
0.382353 0.576471 0.000000
0.392157 0.578431 0.000000
0.401961 0.580392 0.000000
0.411765 0.582353 0.000000
0.421569 0.584314 0.000000
0.431373 0.586275 0.000000
0.441176 0.588235 0.000000
0.450980 0.590196 0.000000
0.460784 0.592157 0.000000
0.470588 0.594118 0.000000
0.480392 0.596078 0.000000
0.490196 0.598039 0.000000
0.500000 0.600000 0.000000
0.509804 0.601961 0.000000
0.519608 0.603922 0.000000
0.529412 0.605882 0.000000
0.539216 0.607843 0.000000
0.549020 0.609804 0.000000
0.558824 0.611765 0.000000
0.568627 0.613725 0.000000
0.578431 0.615686 0.000000
0.588235 0.617647 0.000000
0.598039 0.619608 0.000000
0.607843 0.621569 0.000000
0.617647 0.623529 0.000000
0.627451 0.625490 0.000000
0.637255 0.627451 0.000000
0.647059 0.629412 0.000000
0.656863 0.631373 0.000000
0.666667 0.633333 0.000000
0.676471 0.635294 0.000000
0.686275 0.637255 0.000000
0.696078 0.639216 0.000000
0.705882 0.641176 0.000000
0.715686 0.643137 0.000000
0.725490 0.645098 0.000000
0.735294 0.647059 0.000000
0.745098 0.649020 0.000000
0.754902 0.650980 0.000000
0.764706 0.652941 0.000000
0.774510 0.654902 0.000000
0.784314 0.656863 0.000000
0.794118 0.658824 0.000000
0.803922 0.660784 0.000000
0.813725 0.662745 0.000000
0.823529 0.664706 0.000000
0.833333 0.666667 0.000000
0.843137 0.668627 0.000000
0.852941 0.670588 0.000000
0.862745 0.672549 0.000000
0.872549 0.674510 0.000000
0.882353 0.676471 0.000000
0.892157 0.678431 0.000000
0.901961 0.680392 0.000000
0.911765 0.682353 0.000000
0.921569 0.684314 0.000000
0.931373 0.686275 0.000000
0.941176 0.688235 0.000000
0.950980 0.690196 0.000000
0.960784 0.692157 0.000000
0.970588 0.694118 0.000000
0.980392 0.696078 0.000000
0.990196 0.698039 0.000000
0.113534 0.606152 0.000000
0.107142 0.586373 0.000000
0.121751 0.595256 0.000000
0.125314 0.578403 0.000000
0.608008 0.765681 0.000000
0.585349 0.764086 0.000000
0.591336 0.741952 0.000000
0.592072 0.793974 0.000000
0.550258 0.931017 0.000000
0.517159 0.896365 0.000000
0.557866 0.881366 0.000000
0.885592 0.689744 0.000000
0.900640 0.689195 0.000000
0.893881 0.699663 0.000000
0.791014 0.782870 0.000000
0.806073 0.755575 0.000000
0.814238 0.783906 0.000000
0.755950 0.661588 0.000000
0.766977 0.664624 0.000000
0.759150 0.673362 0.000000
0.237587 0.602856 0.000000
0.244276 0.587613 0.000000
0.255222 0.600052 0.000000
0.435458 0.690521 0.000000
0.445365 0.672382 0.000000
0.452783 0.695442 0.000000
0.434168 0.596027 0.000000
0.443497 0.595614 0.000000
0.440408 0.604928 0.000000
0.125631 0.548518 0.000000
0.136149 0.544058 0.000000
0.133888 0.554367 0.000000
0.684531 0.649457 0.000000
0.693022 0.657375 0.000000
0.680758 0.660164 0.000000
0.688513 0.672143 0.000000
0.209804 0.572062 0.000000
0.211391 0.587677 0.000000
0.198823 0.579466 0.000000
0.912173 0.691199 0.000000
0.919923 0.697571 0.000000
0.840788 0.691515 0.000000
0.836260 0.679067 0.000000
0.846581 0.680639 0.000000
0.610270 0.644163 0.000000
0.606363 0.631487 0.000000
0.618571 0.634947 0.000000
0.703833 0.664888 0.000000
0.705328 0.651574 0.000000
0.718551 0.657874 0.000000
0.476110 0.619965 0.000000
0.470756 0.606568 0.000000
0.483603 0.608681 0.000000
0.787587 0.718715 0.000000
0.799121 0.708516 0.000000
0.805593 0.724753 0.000000
0.545957 0.632159 0.000000
0.551865 0.620855 0.000000
0.557339 0.632078 0.000000
0.494856 0.610760 0.000000
0.503640 0.608636 0.000000
0.360926 0.590762 0.000000
0.373577 0.584863 0.000000
0.371469 0.597941 0.000000
0.331595 0.581327 0.000000
0.327955 0.573642 0.000000
0.337441 0.574864 0.000000
0.452770 0.600633 0.000000
0.450058 0.613037 0.000000
0.678157 0.643781 0.000000
0.204164 0.604889 0.000000
0.194170 0.595839 0.000000
0.640959 0.641938 0.000000
0.656321 0.640868 0.000000
0.651180 0.656559 0.000000
0.987799 0.705954 0.000000
0.990005 0.721233 0.000000
0.977245 0.712758 0.000000
0.974986 0.729512 0.000000
0.333802 0.812487 0.000000
0.361509 0.790617 0.000000
0.367317 0.828894 0.000000
0.604086 0.908536 0.000000
0.602873 0.861865 0.000000
0.486055 0.632060 0.000000
0.466853 0.635244 0.000000
0.541673 0.619743 0.000000
0.532472 0.631076 0.000000
0.541658 0.649026 0.000000
0.522313 0.819315 0.000000
0.510522 0.853722 0.000000
0.487163 0.814552 0.000000
0.308272 0.686111 0.000000
0.313305 0.664245 0.000000
0.331890 0.672844 0.000000
0.462242 0.618446 0.000000
0.459244 0.608252 0.000000
0.859980 0.693314 0.000000
0.849777 0.691819 0.000000
0.856777 0.681858 0.000000
0.942362 0.711719 0.000000
0.941048 0.728383 0.000000
0.931633 0.715819 0.000000
0.696422 0.925997 0.000000
0.743778 0.899483 0.000000
0.736714 0.951105 0.000000
0.710099 0.873175 0.000000
0.706855 0.827503 0.000000
0.748341 0.846430 0.000000
0.404569 0.612087 0.000000
0.400941 0.600304 0.000000
0.413129 0.601428 0.000000
0.739879 0.801859 0.000000
0.689244 0.763692 0.000000
0.711842 0.784429 0.000000
0.682971 0.800595 0.000000
0.849502 0.703362 0.000000
0.872437 0.693808 0.000000
0.880424 0.705421 0.000000
0.247911 0.613985 0.000000
0.230071 0.625013 0.000000
0.426705 0.605906 0.000000
0.417314 0.614950 0.000000
0.564489 0.781794 0.000000
0.542753 0.763395 0.000000
0.563888 0.747070 0.000000
0.540876 0.795125 0.000000
0.254442 0.628223 0.000000
0.675859 0.845039 0.000000
0.389585 0.604484 0.000000
0.382141 0.593934 0.000000
0.394023 0.590296 0.000000
0.210190 0.549067 0.000000
0.218913 0.550855 0.000000
0.211545 0.558654 0.000000
0.509032 0.731434 0.000000
0.480547 0.728234 0.000000
0.498097 0.707679 0.000000
0.408331 0.625772 0.000000
0.737928 0.766371 0.000000
0.713411 0.751924 0.000000
0.236129 0.559953 0.000000
0.247527 0.565947 0.000000
0.238129 0.573668 0.000000
0.277601 0.586118 0.000000
0.273407 0.573379 0.000000
0.286542 0.574133 0.000000
0.695186 0.646009 0.000000
0.128809 0.536590 0.000000
0.385032 0.584469 0.000000
0.959668 0.883416 0.000000
0.604963 0.829728 0.000000
0.627628 0.795445 0.000000
0.636557 0.838109 0.000000
0.226927 0.903063 0.000000
0.196567 0.877414 0.000000
0.253614 0.858563 0.000000
0.488755 0.686131 0.000000
0.474772 0.701653 0.000000
0.208074 0.832028 0.000000
0.596571 0.714257 0.000000
0.619682 0.736143 0.000000
0.620249 0.709238 0.000000
0.426920 0.878300 0.000000
0.456147 0.845659 0.000000
0.471012 0.891685 0.000000
0.607192 0.695818 0.000000
0.525672 0.709461 0.000000
0.509369 0.690109 0.000000
0.535964 0.736172 0.000000
0.737088 0.738406 0.000000
0.716812 0.727414 0.000000
0.735580 0.717065 0.000000
0.717714 0.708748 0.000000
0.733899 0.701419 0.000000
0.434815 0.713754 0.000000
0.456218 0.743004 0.000000
0.415116 0.743197 0.000000
0.459688 0.716033 0.000000
0.441105 0.768871 0.000000
[...]
POINT_DATA 1770
SCALARS UX float 1
LOOKUP_TABLE default
-0.124160
0.000000
0.000000
-0.130255
-0.127433
0.006781
-0.114128
-0.104072
-0.094011
-0.083971
-0.073979
-0.064056
-0.054216
-0.044465
-0.034863
-0.025426
-0.016233
-0.007768
0.004142
0.005805
0.006750
0.007373
0.007908
0.008357
0.008747
0.009101
0.009425
0.009728
0.010006
0.010264
0.010492
0.010697
0.010864
0.010974
0.010977
0.010709
0.010178
0.008749
0.004904
0.003779
0.003254
0.003275
0.003574
0.004156
0.004843
0.005408
-0.000000
-0.012889
-0.024822
-0.036024
-0.046916
-0.057609
-0.068174
-0.078633
-0.089011
-0.099352
-0.109650
-0.119943
-0.130127
-0.130103
-0.130166
-0.130280
-0.130419
-0.130569
-0.130716
-0.130851
-0.130960
-0.131025
-0.131005
-0.130783
-0.130145
-0.128976
-0.124893
-0.123874
-0.123419
-0.123207
-0.123165
-0.123231
-0.123327
-0.123464
-0.123617
-0.123782
-0.123952
-0.124103
-0.124221
-0.124256
-0.126092
-0.124760
-0.123415
-0.122080
-0.120753
-0.119430
-0.118119
-0.116800
-0.115450
-0.114111
-0.112784
-0.111464
-0.110132
-0.108816
-0.107492
-0.106166
-0.104793
-0.103417
-0.102069
-0.100753
-0.099449
-0.098137
-0.096824
-0.095500
-0.094168
-0.092828
-0.091561
-0.090243
-0.088915
-0.087621
-0.086315
-0.085018
-0.083718
-0.082420
-0.081155
-0.079904
-0.078616
-0.077329
-0.076021
-0.074725
-0.073406
-0.072095
-0.070783
-0.069464
-0.068143
-0.066826
-0.065502
-0.064184
-0.062852
-0.061524
-0.060250
-0.058965
-0.057661
-0.056361
-0.055053
-0.053739
-0.052435
-0.051130
-0.049843
-0.048536
-0.047239
-0.045913
-0.044632
-0.043338
-0.042038
-0.040731
-0.039421
-0.038112
-0.036802
-0.035505
-0.034150
-0.032842
-0.031532
-0.030209
-0.028896
-0.027566
-0.026209
-0.024855
-0.023530
-0.022208
-0.020866
-0.019526
-0.018214
-0.016908
-0.015621
-0.014311
-0.013006
-0.011716
-0.010414
-0.009125
-0.007816
-0.006518
-0.005259
-0.004007
-0.002675
-0.001351
-0.000032
0.001306
0.002650
0.004027
0.005387
-0.115614
-0.116469
-0.114504
-0.113964
-0.048806
-0.051856
-0.051191
-0.050758
-0.055888
-0.060486
-0.054947
-0.010870
-0.008329
-0.010386
-0.024270
-0.022581
-0.021195
-0.027695
-0.026368
-0.028357
-0.098849
-0.097771
-0.096432
-0.072268
-0.070981
-0.069934
-0.070511
-0.068951
-0.070463
-0.113085
-0.111141
-0.112201
-0.037461
-0.036893
-0.038849
-0.038252
-0.102145
-0.102300
-0.103902
-0.006702
-0.006287
-0.017666
-0.017288
-0.015864
-0.048178
-0.047716
-0.046206
-0.035787
-0.034474
-0.033140
-0.066226
-0.066048
-0.064295
-0.025273
-0.023711
-0.022877
-0.056859
-0.055017
-0.055191
-0.062777
-0.061077
-0.081256
-0.078699
-0.080204
-0.084849
-0.084504
-0.083132
-0.068148
-0.069641
-0.037774
-0.103388
-0.104714
-0.043459
-0.040955
-0.042951
0.003532
0.002511
0.001196
-0.000037
-0.085491
-0.081832
-0.080943
-0.048509
-0.048870
-0.065268
-0.067971
-0.056489
-0.058734
-0.057921
-0.060042
-0.061506
-0.064818
-0.089315
-0.088697
-0.086191
-0.068147
-0.067893
-0.014944
-0.016360
-0.014404
-0.004012
-0.004734
-0.005701
-0.035565
-0.029166
-0.029770
-0.034074
-0.034992
-0.029174
-0.076091
-0.075970
-0.074252
-0.030846
-0.037966
-0.034765
-0.038471
-0.016854
-0.013127
-0.012657
-0.097488
-0.099925
-0.072564
-0.074402
-0.054551
-0.057578
-0.054836
-0.057658
-0.096642
-0.039018
-0.077953
-0.078246
-0.076154
-0.100064
-0.098884
-0.101091
-0.062263
-0.066094
-0.063826
-0.075828
-0.031474
-0.034854
-0.097412
-0.096217
-0.098207
-0.093125
-0.093005
-0.091091
-0.035349
-0.111559
-0.076818
-0.000153
-0.048775
-0.045955
-0.044428
-0.099719
-0.103781
-0.096158
-0.065144
-0.066971
-0.102290
-0.050637
-0.047439
-0.047502
-0.072795
-0.068909
-0.066792
-0.049280
-0.060130
-0.062374
-0.058632
-0.031828
-0.034583
-0.032150
-0.034550
-0.032405
-0.072279
-0.069294
-0.074808
-0.068937
-0.071215
-0.117600
-0.116391
-0.115253
-0.055423
-0.054093
-0.052550
-0.116692
-0.118232
0.000325
-0.002638
-0.002761
0.000769
-0.079741
-0.079826
-0.082994
-0.082528
-0.027053
-0.025185
-0.001521
-0.003000
-0.105131
-0.114470
-0.111178
-0.121664
-0.122494
-0.120445
-0.120770
-0.123837
-0.010951
-0.012885
-0.062923
-0.061351
-0.063885
-0.060417
0.000623
-0.029374
-0.027000
-0.027343
-0.061928
-0.097210
-0.054620
-0.075269
-0.080657
-0.092881
-0.128956
-0.129160
-0.077080
-0.004362
-0.005196
-0.097240
-0.089648
-0.087734
-0.092880
-0.093617
-0.078962
-0.084060
-0.004644
-0.009128
-0.005256
-0.008424
-0.039286
-0.125167
-0.123053
-0.120361
-0.119802
-0.042010
-0.126541
-0.125806
-0.123452
-0.122840
-0.126661
-0.116336
-0.122999
-0.041981
-0.042090
-0.121201
-0.040374
-0.040938
-0.060013
-0.060819
-0.128366
-0.059582
-0.127524
-0.123300
-0.006970
-0.008590
-0.009141
-0.042887
-0.117209
-0.124302
-0.100932
-0.023878
-0.007177
-0.008665
-0.119755
-0.121075
-0.013825
-0.010468
-0.018271
-0.123138
-0.005696
-0.005886
-0.064223
-0.066470
-0.115894
-0.113312
-0.000512
-0.111919
-0.114425
-0.111899
-0.114159
-0.111893
-0.097822
-0.101869
-0.097479
-0.119181
-0.120398
-0.122390
-0.102562
-0.018041
-0.050330
-0.119867
-0.121570
-0.031448
-0.030191
-0.049149
-0.046817
-0.047223
-0.092866
-0.089847
-0.091461
-0.091001
-0.041284
-0.043772
-0.042546
-0.042290
-0.011812
-0.013637
-0.015394
-0.123346
-0.023927
-0.014904
-0.017479
-0.016208
-0.017584
-0.015900
-0.024624
-0.026668
-0.020347
-0.019402
-0.018403
-0.075166
-0.073766
-0.073132
-0.029713
-0.019701
-0.021430
-0.027621
-0.051389
-0.050142
-0.029730
-0.068297
-0.118018
-0.120535
-0.118629
-0.085603
-0.083844
-0.085400
-0.025752
-0.027944
-0.028560
-0.083609
-0.080910
-0.079413
-0.081595
-0.079054
-0.077271
-0.010863
-0.075810
-0.122166
-0.114534
-0.070416
-0.070095
-0.076959
-0.114768
-0.113510
-0.071733
-0.110025
-0.106686
-0.107446
-0.108513
-0.071997
-0.025229
-0.037589
-0.024272
-0.103357
-0.105550
-0.104642
-0.039675
-0.037022
-0.040589
-0.010374
-0.012793
-0.011147
-0.107221
-0.109001
-0.038945
-0.036543
-0.038108
-0.040322
-0.112886
-0.061502
-0.106158
-0.105126
-0.103795
-0.105746
-0.067118
-0.110349
-0.108574
-0.108728
-0.064585
-0.074348
-0.076331
-0.101276
-0.103016
-0.049581
-0.049464
-0.051397
-0.107041
-0.073882
-0.043864
-0.045618
-0.107357
-0.108267
-0.109662
-0.110126
-0.057283
-0.059853
-0.108388
-0.106008
-0.073432
-0.081642
-0.081960
-0.081973
-0.083815
-0.071947
-0.085700
-0.086321
-0.078173
-0.100510
-0.098817
-0.031319
-0.033187
-0.050901
-0.066412
-0.064544
-0.086642
-0.088359
-0.089281
-0.087211
-0.087753
-0.034628
-0.034073
-0.040758
-0.042481
-0.124343
-0.039215
-0.099510
-0.063587
-0.114127
-0.111939
-0.115630
-0.115985
-0.117373
-0.114701
-0.113852
-0.119239
-0.118580
-0.021340
-0.019718
-0.021422
-0.110497
-0.058261
-0.062875
-0.022925
-0.093945
-0.091732
-0.093758
-0.091652
-0.095410
-0.094967
-0.023383
-0.091128
-0.085400
-0.088783
-0.092721
-0.109062
-0.049718
-0.046882
-0.022021
-0.100526
-0.097613
-0.101276
-0.104096
-0.119742
-0.103750
-0.061098
-0.062021
-0.060059
-0.089372
-0.088708
-0.082210
-0.083531
-0.080297
-0.014843
-0.014350
-0.084011
-0.086288
-0.107162
-0.105532
-0.044945
-0.045264
-0.099964
-0.032154
-0.053332
-0.053349
-0.092003
-0.093668
-0.036360
-0.086496
-0.090307
-0.125145
-0.096160
-0.096558
-0.094870
-0.057736
-0.055288
-0.052151
-0.095024
-0.082300
-0.056208
-0.117733
-0.115752
-0.065611
-0.079756
-0.099777
-0.071295
-0.089828
-0.094943
-0.079689
-0.098160
-0.096102
-0.109723
-0.116600
-0.124433
-0.125669
-0.060934
-0.119108
-0.074690
-0.045085
-0.112514
-0.117011
-0.128453
-0.007901
-0.119533
-0.007274
-0.053961
-0.128527
-0.127206
-0.126999
-0.125225
-0.128820
-0.124321
-0.124944
-0.126352
-0.127153
-0.126542
-0.056421
-0.051351
-0.086099
-0.088053
-0.122836
-0.001685
-0.093567
-0.127578
-0.127164
-0.086572
-0.126571
-0.002498
-0.102238
-0.000552
-0.112001
-0.028866
-0.128824
0.002214
0.000699
-0.087935
-0.018608
-0.020454
-0.019797
-0.110075
-0.112303
-0.068126
-0.089756
-0.091110
-0.105270
-0.107811
-0.053639
-0.063697
-0.044377
-0.045586
-0.107184
-0.108315
-0.025260
-0.116708
-0.112384
-0.058513
-0.110218
-0.113180
-0.094050
-0.044772
-0.102608
-0.074324
-0.053356
-0.013050
-0.011559
-0.105078
-0.018222
-0.087341
-0.089743
-0.051833
-0.072914
-0.024969
-0.095176
-0.084865
-0.095547
-0.079276
-0.030897
-0.090959
-0.045195
-0.056420
-0.102753
-0.104441
-0.105312
-0.102221
-0.042150
-0.044115
-0.043734
-0.043484
-0.055435
-0.055643
-0.056945
-0.059369
-0.056437
-0.064067
-0.106986
-0.105677
-0.059363
-0.120823
-0.120426
-0.001757
-0.005544
-0.002342
-0.117545
-0.118154
-0.005345
-0.068252
-0.076992
0.004291
0.002859
0.006207
0.002840
-0.007093
-0.006420
-0.008243
-0.005118
-0.084038
-0.084816
-0.082429
-0.082216
-0.058539
-0.055694
-0.058251
-0.056896
-0.106959
-0.105411
-0.104832
-0.104574
-0.100250
-0.100628
-0.065788
-0.067408
-0.065087
0.001354
-0.106418
-0.104233
-0.106090
-0.105221
-0.102433
-0.098929
-0.100044
-0.096826
-0.054425
-0.055805
-0.053649
-0.045579
-0.044716
-0.029771
-0.030778
-0.027198
-0.032623
-0.019611
-0.018523
-0.021061
-0.016264
-0.045255
-0.069782
-0.071088
-0.071682
0.000007
0.000231
-0.001524
-0.072394
-0.073837
-0.072157
-0.073116
-0.115453
-0.114886
-0.113616
-0.094911
-0.095915
-0.097175
-0.068854
-0.070684
-0.019876
-0.019078
-0.017664
-0.043784
-0.041926
-0.041920
-0.040275
-0.029383
-0.027227
-0.064211
-0.065058
-0.066433
-0.058997
-0.059990
-0.058279
-0.029142
-0.027443
-0.029655
-0.060618
-0.062276
-0.062971
-0.061065
-0.093007
-0.091194
-0.092538
-0.090855
-0.094809
-0.093667
-0.095384
-0.052701
-0.052725
-0.055320
-0.042807
-0.039741
-0.039116
-0.053417
-0.093091
-0.094648
-0.092007
-0.037832
-0.038094
-0.039494
-0.037880
-0.038089
-0.036059
-0.087519
-0.087610
-0.089859
-0.037012
-0.027639
-0.032496
-0.029737
-0.030734
-0.096045
-0.096449
-0.069377
-0.070926
-0.069381
-0.046823
-0.048642
-0.048163
-0.048662
-0.119106
-0.120142
-0.118322
-0.119643
-0.033250
-0.033773
-0.035239
-0.042203
-0.043586
0.006705
0.007621
0.008699
0.005556
-0.083305
-0.079588
-0.085512
-0.035276
0.000283
-0.002790
-0.058515
-0.056426
-0.078092
-0.075987
-0.077154
-0.034630
-0.034070
-0.036561
-0.040504
0.002813
0.001906
0.000286
-0.000289
-0.077323
-0.017617
-0.016215
-0.016307
-0.038681
-0.037350
-0.038997
-0.095981
-0.094293
-0.049037
-0.051176
-0.049888
-0.061299
-0.059754
-0.061735
-0.083839
-0.080184
-0.107543
-0.109500
-0.108111
-0.110546
-0.077622
-0.078761
-0.079717
-0.034795
-0.046920
-0.047068
-0.000717
0.001491
0.000929
-0.115607
-0.112246
-0.115002
-0.111850
-0.001360
-0.002113
-0.009227
-0.015300
-0.008550
-0.013012
-0.087511
-0.087590
-0.089289
-0.085853
-0.066137
-0.049704
-0.047306
-0.049901
-0.071574
-0.061594
-0.054817
-0.052714
-0.053492
0.008422
0.009343
-0.014726
-0.013357
-0.015937
-0.012162
-0.012547
-0.021238
-0.018974
-0.073074
-0.072131
-0.077769
-0.096723
-0.094766
-0.092245
-0.104089
-0.109899
-0.109850
-0.108152
-0.111534
-0.108769
-0.105080
-0.108493
-0.101474
-0.118131
-0.118345
-0.036315
-0.038173
-0.041210
-0.032458
-0.090819
-0.088414
-0.034110
-0.084100
-0.090259
-0.118045
-0.116396
-0.046232
-0.116913
-0.001088
-0.003366
-0.060717
-0.060896
-0.064231
-0.064486
-0.119435
-0.007815
-0.006036
-0.008385
-0.007486
-0.005793
-0.022102
-0.018894
-0.024562
-0.073522
-0.072752
-0.072564
-0.097365
-0.099134
-0.098998
-0.010287
-0.012271
-0.011962
-0.000996
-0.118665
-0.116469
-0.118718
0.004599
0.003061
0.001597
0.007308
-0.116437
-0.114732
-0.103517
-0.101984
-0.102727
-0.112791
-0.114300
-0.113743
-0.112755
-0.111488
-0.000406
-0.113261
0.006674
0.005970
0.004224
-0.071943
-0.072967
-0.074953
-0.106205
-0.109176
-0.105809
-0.108960
-0.109045
-0.022665
-0.017674
-0.060714
-0.064682
-0.057904
-0.054437
-0.060605
-0.056423
-0.117297
0.002736
0.004028
0.002097
0.004113
-0.021003
-0.020005
-0.019234
-0.020229
-0.018708
-0.003362
-0.003772
-0.063280
-0.022024
-0.120740
-0.096928
-0.095864
-0.022910
-0.022006
-0.088007
-0.004754
-0.008151
-0.034344
-0.037505
-0.036146
-0.035710
-0.047931
-0.012241
-0.013869
-0.014259
-0.005974
-0.007976
-0.014679
-0.012883
-0.017002
-0.024404
-0.107383
-0.108042
0.004046
0.001599
0.005795
0.001273
-0.000649
-0.048348
-0.001882
-0.003703
-0.003891
-0.063656
-0.062246
-0.015013
-0.013604
-0.014388
-0.044862
-0.046755
-0.051948
-0.049063
-0.003706
-0.000653
-0.005467
-0.096668
-0.096916
-0.099116
-0.094667
-0.120886
-0.008204
0.002225
-0.094076
-0.024007
-0.022952
-0.025235
-0.095748
-0.101017
-0.102585
-0.089088
-0.092986
0.005872
0.004269
-0.091194
-0.093595
-0.089895
-0.014348
-0.011115
-0.015319
-0.010674
-0.086803
-0.090338
-0.093443
0.006292
0.004924
0.006359
0.008271
0.008832
-0.019319
-0.026241
-0.015691
-0.019811
-0.002821
-0.019945
-0.025707
-0.022204
0.004597
-0.024693
0.000006
0.001947
-0.024432
-0.029272
-0.028142
-0.073606
-0.076889
-0.076310
0.006863
0.004803
-0.012392
-0.112831
-0.121254
-0.017373
-0.009435
0.007419
-0.014813
0.001127
0.000355
-0.118874
-0.085132
-0.085942
-0.112805
-0.114448
0.005504
-0.015995
-0.017007
-0.067307
-0.068133
-0.070497
-0.069440
-0.116067
-0.119538
-0.006268
-0.004180
-0.006145
-0.080929
-0.082209
0.006972
-0.007640
-0.004514
-0.005965
-0.009316
-0.010147
-0.116183
-0.009636
-0.100575
-0.100254
-0.044039
-0.040475
-0.045895
-0.042449
-0.020643
-0.020891
-0.023104
-0.021151
-0.022777
-0.022925
-0.013220
-0.011269
-0.010697
-0.018375
-0.019128
-0.008196
-0.054098
-0.052005
-0.050381
-0.011003
-0.011662
-0.009592
-0.111242
-0.109286
-0.110697
-0.109347
-0.049573
-0.016233
-0.016220
-0.065151
-0.018826
-0.014044
-0.028084
-0.010583
-0.011097
-0.012014
-0.108861
-0.107549
-0.109766
-0.011590
-0.115047
-0.024888
-0.023936
-0.050571
-0.049764
-0.067066
-0.001931
-0.001937
-0.002073
-0.000707
-0.002611
-0.002847
0.005199
-0.016137
-0.008734
-0.007083
-0.008943
-0.017803
-0.103597
-0.103790
-0.064673
-0.010453
-0.065899
-0.007565
-0.013547
-0.019492
-0.017869
-0.087899
-0.086523
-0.085897
-0.085149
-0.086758
-0.024854
-0.027341
-0.027346
-0.025208
-0.066864
-0.016887
-0.079890
-0.079916
-0.048280
-0.047061
-0.049502
-0.057068
-0.054966
-0.057806
-0.058357
-0.106198
-0.054362
-0.078751
-0.079835
-0.078125
-0.050754
-0.091865
-0.092952
-0.111555
-0.023687
-0.025544
-0.025727
-0.079883
-0.077756
-0.080534
-0.079012
-0.105889
-0.002430
0.003002
-0.021260
-0.070217
-0.071268
-0.114225
-0.093933
-0.044585
-0.048478
-0.044841
-0.040849
-0.044400
-0.041027
-0.043423
-0.013529
-0.057213
-0.047502
-0.015346
-0.041424
-0.039982
-0.091176
-0.051014
-0.051508
-0.051464
-0.099144
-0.096149
-0.097750
-0.061232
-0.049804
-0.051492
-0.072567
-0.080036
-0.076021
-0.034657
-0.033775
-0.038803
-0.036885
-0.037165
-0.016835
-0.102241
-0.117503
-0.067237
-0.069227
-0.068530
-0.031804
-0.082483
-0.089085
-0.086930
0.003078
-0.101624
-0.060656
-0.059485
-0.005606
-0.074259
-0.078698
-0.074718
-0.034519
-0.032295
-0.026037
-0.075055
-0.076939
-0.111723
-0.027873
-0.025863
-0.026276
-0.024377
-0.084459
-0.083388
-0.101014
-0.103471
-0.102260
-0.101702
-0.064162
-0.062894
-0.063042
-0.041102
-0.038192
-0.072979
-0.070328
-0.069183
-0.112562
-0.111473
-0.047090
-0.051536
-0.050016
-0.055423
-0.023790
-0.023148
-0.026569
-0.030146
-0.030499
-0.028308
-0.074048
-0.076618
-0.075258
-0.075125
-0.088509
-0.091300
-0.090054
-0.089902
-0.091971
-0.009922
-0.031905
-0.031799
0.000746
-0.079829
-0.044049
-0.045607
-0.101106
-0.083141
-0.081443
-0.083690
-0.083033
-0.025171
-0.026908
-0.027656
-0.029469
-0.049857
-0.022647
-0.022699
-0.079182
-0.075450
-0.092720
-0.095664
-0.083746
-0.047738
-0.046250
-0.093863
-0.052711
-0.056964
-0.027770
-0.025877
-0.027466
-0.080649
-0.082338
-0.020965
-0.069739
-0.015240
-0.102891
-0.071869
-0.073669
-0.072836
-0.050647
-0.052678
-0.003490
-0.102789
0.006756
-0.005044
-0.117928
-0.100706
-0.084049
-0.082031
-0.059812
-0.090312
-0.092993
-0.065244
-0.060919
-0.114054
-0.083179
-0.081053
-0.032882
-0.031961
-0.034715
-0.080041
-0.059136
-0.057521
0.003988
-0.032520
-0.032599
-0.099770
-0.076725
-0.077913
-0.112935
-0.095090
-0.096217
-0.095843
-0.045705
-0.044286
0.002576
0.003275
-0.098741
-0.078970
-0.081051
-0.079099
-0.052752
-0.020963
-0.075501
-0.084971
-0.086399
-0.034357
-0.031281
-0.054149
-0.019477
-0.053820
-0.054487
-0.052786
-0.087827
-0.089024
-0.011517
-0.015657
-0.064780
-0.055914
-0.005837
-0.074015
-0.075345
-0.057532
-0.057318
-0.081421
-0.082568
-0.083309
-0.036414
-0.036663
-0.019619
-0.040380
0.008819
-0.115857
-0.110473
-0.030987
-0.029682
0.006304
-0.031123
-0.102068
-0.116937
0.005809
-0.010492
-0.013342
-0.120710
-0.008545
-0.005955
-0.030929
-0.109851
0.008424
-0.108304
-0.045707
-0.121852
-0.121891
-0.123359
-0.036759
-0.122150
0.002138
-0.020408
0.003346
-0.085192
-0.052354
-0.123921
-0.001997
-0.066392
-0.044756
-0.040945
-0.041956
-0.036157
-0.032556
-0.030752
-0.031176
-0.035366
-0.055917
-0.101195
-0.029192
-0.070759
-0.068697
-0.097836
-0.077449
-0.071113
-0.056173
-0.085234
-0.010727
-0.060395
-0.065059
-0.033802
-0.031254
-0.057862
-0.074617
-0.076202
-0.038004
-0.039756
-0.039179
-0.026280
-0.005418
-0.008122
-0.038630
-0.003584
-0.044171
-0.012019
-0.095001
-0.061463
-0.051531
-0.034722
-0.028944
-0.003744
-0.082458
0.003808
-0.088882
-0.032481
-0.004960
-0.007248
-0.004285
-0.014018
-0.105964
-0.008202
-0.112977
-0.111859
-0.078770
-0.046966
-0.105849
-0.106416
-0.030407
-0.033721
-0.013353
-0.017016
-0.003847
-0.116463
-0.039593
-0.041759
-0.051059
-0.062411
-0.028288
-0.067593
-0.067870
-0.078251
-0.108983
-0.042820
-0.063961
-0.066007
-0.006457
-0.067476
-0.069794
-0.068041
-0.043484
-0.086746
-0.093729
-0.074889
-0.002746
-0.041562
-0.022119
-0.016329
-0.104366
-0.038550
-0.040706
-0.096998
-0.035618
-0.033627
-0.034540
-0.042702
-0.043971
-0.097642
-0.098889
-0.099703
-0.039550
-0.041130
-0.041241
-0.046170
-0.045178
-0.047489
-0.083852
-0.090211
-0.058776
-0.081960
-0.099399
-0.097646
-0.066856
-0.057482
-0.085155
-0.049854
-0.059422
-0.065648
-0.086035
SCALARS UY float 1
LOOKUP_TABLE default
-0.000000
-0.000000
-0.310000
-0.310000
-0.152523
-0.220028
-0.000000
-0.000000
-0.000000
-0.000000
-0.000000
-0.000000
-0.000000
-0.000000
-0.000000
-0.000000
-0.000000
-0.000000
-0.024392
-0.045656
-0.064858
-0.082244
-0.097988
-0.112254
-0.125179
-0.136895
-0.147519
-0.157159
-0.165891
-0.173809
-0.180998
-0.187535
-0.193487
-0.198881
-0.203786
-0.208321
-0.212463
-0.216401
-0.223912
-0.228452
-0.233935
-0.240768
-0.249279
-0.259992
-0.273198
-0.289395
-0.310000
-0.310000
-0.310000
-0.310000
-0.310000
-0.310000
-0.310000
-0.310000
-0.310000
-0.310000
-0.310000
-0.310000
-0.286829
-0.266690
-0.249155
-0.233888
-0.220604
-0.209034
-0.198954
-0.190156
-0.182489
-0.175779
-0.169904
-0.164766
-0.160203
-0.156118
-0.148676
-0.144800
-0.140428
-0.135485
-0.129854
-0.123419
-0.116023
-0.107515
-0.097752
-0.086526
-0.073642
-0.058846
-0.041863
-0.022363
-0.153506
-0.154453
-0.155226
-0.155948
-0.156697
-0.157450
-0.158116
-0.158785
-0.159399
-0.160104
-0.160760
-0.161365
-0.162065
-0.162699
-0.163352
-0.163932
-0.164583
-0.165182
-0.165809
-0.166443
-0.167060
-0.167689
-0.168300
-0.168874
-0.169538
-0.170148
-0.170714
-0.171308
-0.172002
-0.172552
-0.173163
-0.173769
-0.174364
-0.175010
-0.175613
-0.176250
-0.176796
-0.177395
-0.178047
-0.178606
-0.179209
-0.179817
-0.180393
-0.181027
-0.181641
-0.182196
-0.182799
-0.183395
-0.183998
-0.184579
-0.185204
-0.185814
-0.186445
-0.186990
-0.187603
-0.188230
-0.188828
-0.189454
-0.190027
-0.190686
-0.191251
-0.191905
-0.192450
-0.193094
-0.193723
-0.194377
-0.194925
-0.195581
-0.196233
-0.196839
-0.197465
-0.198077
-0.198701
-0.199346
-0.200055
-0.200573
-0.201282
-0.201894
-0.202592
-0.203198
-0.203838
-0.204548
-0.205231
-0.205923
-0.206548
-0.207265
-0.207987
-0.208700
-0.209476
-0.210157
-0.210912
-0.211625
-0.212414
-0.213182
-0.213979
-0.214759
-0.215512
-0.216343
-0.217169
-0.218015
-0.218939
-0.187747
-0.181578
-0.184397
-0.179168
-0.237101
-0.236616
-0.229771
-0.245859
-0.288474
-0.277702
-0.273001
-0.214744
-0.214647
-0.218066
-0.242780
-0.234496
-0.243247
-0.204922
-0.205871
-0.208760
-0.186927
-0.182168
-0.186046
-0.213976
-0.208351
-0.215482
-0.184342
-0.184142
-0.187249
-0.169730
-0.168288
-0.171621
-0.200960
-0.203550
-0.204433
-0.208254
-0.177282
-0.182203
-0.179612
-0.215472
-0.217681
-0.214923
-0.210843
-0.211408