# vtk DataFile Version 2.0
Test
ASCII
DATASET POLYDATA
POINTS 1770 float
0.000000 0.000000 0.000000
1.000000 0.000000 0.000000
1.000000 1.000000 0.000000
0.000000 1.000000 0.000000
0.000000 0.500000 0.000000
1.000000 0.700000 0.000000
0.076923 0.000000 0.000000
0.153846 0.000000 0.000000
0.230769 0.000000 0.000000
0.307692 0.000000 0.000000
0.384615 0.000000 0.000000
0.461538 0.000000 0.000000
0.538462 0.000000 0.000000
0.615385 0.000000 0.000000
0.692308 0.000000 0.000000
0.769231 0.000000 0.000000
0.846154 0.000000 0.000000
0.923077 0.000000 0.000000
1.000000 0.075421 0.000000
1.000000 0.143732 0.000000
1.000000 0.205602 0.000000
1.000000 0.261640 0.000000
1.000000 0.312395 0.000000
1.000000 0.358364 0.000000
1.000000 0.400000 0.000000
1.000000 0.437711 0.000000
1.000000 0.471866 0.000000
1.000000 0.502801 0.000000
1.000000 0.530820 0.000000
1.000000 0.556197 0.000000
1.000000 0.579182 0.000000
1.000000 0.600000 0.000000
1.000000 0.618855 0.000000
1.000000 0.635933 0.000000
1.000000 0.651401 0.000000
1.000000 0.665410 0.000000
1.000000 0.678099 0.000000
1.000000 0.689591 0.000000
1.000000 0.711139 0.000000
1.000000 0.725174 0.000000
1.000000 0.742857 0.000000
1.000000 0.765136 0.000000
1.000000 0.793206 0.000000
1.000000 0.828571 0.000000
1.000000 0.873129 0.000000
1.000000 0.929269 0.000000
0.923077 1.000000 0.000000
0.846154 1.000000 0.000000
0.769231 1.000000 0.000000
0.692308 1.000000 0.000000
0.615385 1.000000 0.000000
0.538462 1.000000 0.000000
0.461538 1.000000 0.000000
0.384615 1.000000 0.000000
0.307692 1.000000 0.000000
0.230769 1.000000 0.000000
0.153846 1.000000 0.000000
0.076923 1.000000 0.000000
0.000000 0.926029 0.000000
0.000000 0.861633 0.000000
0.000000 0.805574 0.000000
0.000000 0.756771 0.000000
0.000000 0.714286 0.000000
0.000000 0.677300 0.000000
0.000000 0.645102 0.000000
0.000000 0.617073 0.000000
0.000000 0.592671 0.000000
0.000000 0.571429 0.000000
0.000000 0.552936 0.000000
0.000000 0.536837 0.000000
0.000000 0.522822 0.000000
0.000000 0.510621 0.000000
0.000000 0.489379 0.000000
0.000000 0.477178 0.000000
0.000000 0.463163 0.000000
0.000000 0.447064 0.000000
0.000000 0.428571 0.000000
0.000000 0.407329 0.000000
0.000000 0.382927 0.000000
0.000000 0.354898 0.000000
0.000000 0.322700 0.000000
0.000000 0.285714 0.000000
0.000000 0.243229 0.000000
0.000000 0.194426 0.000000
0.000000 0.138367 0.000000
0.000000 0.073971 0.000000
0.009804 0.501961 0.000000
0.019608 0.503922 0.000000
0.029412 0.505882 0.000000
0.039216 0.507843 0.000000
0.049020 0.509804 0.000000
0.058824 0.511765 0.000000
0.068627 0.513725 0.000000
0.078431 0.515686 0.000000
0.088235 0.517647 0.000000
0.098039 0.519608 0.000000
0.107843 0.521569 0.000000
0.117647 0.523529 0.000000
0.127451 0.525490 0.000000
0.137255 0.527451 0.000000
0.147059 0.529412 0.000000
0.156863 0.531373 0.000000
0.166667 0.533333 0.000000
0.176471 0.535294 0.000000
0.186275 0.537255 0.000000
0.196078 0.539216 0.000000
0.205882 0.541176 0.000000
0.215686 0.543137 0.000000
0.225490 0.545098 0.000000
0.235294 0.547059 0.000000
0.245098 0.549020 0.000000
0.254902 0.550980 0.000000
0.264706 0.552941 0.000000
0.274510 0.554902 0.000000
0.284314 0.556863 0.000000
0.294118 0.558824 0.000000
0.303922 0.560784 0.000000
0.313725 0.562745 0.000000
0.323529 0.564706 0.000000
0.333333 0.566667 0.000000
0.343137 0.568627 0.000000
0.352941 0.570588 0.000000
0.362745 0.572549 0.000000
0.372549 0.574510 0.000000
0.382353 0.576471 0.000000
0.392157 0.578431 0.000000
0.401961 0.580392 0.000000
0.411765 0.582353 0.000000
0.421569 0.584314 0.000000
0.431373 0.586275 0.000000
0.441176 0.588235 0.000000
0.450980 0.590196 0.000000
0.460784 0.592157 0.000000
0.470588 0.594118 0.000000
0.480392 0.596078 0.000000
0.490196 0.598039 0.000000
0.500000 0.600000 0.000000
0.509804 0.601961 0.000000
0.519608 0.603922 0.000000
0.529412 0.605882 0.000000
0.539216 0.607843 0.000000
0.549020 0.609804 0.000000
0.558824 0.611765 0.000000
0.568627 0.613725 0.000000
0.578431 0.615686 0.000000
0.588235 0.617647 0.000000
0.598039 0.619608 0.000000
0.607843 0.621569 0.000000
0.617647 0.623529 0.000000
0.627451 0.625490 0.000000
0.637255 0.627451 0.000000
0.647059 0.629412 0.000000
0.656863 0.631373 0.000000
0.666667 0.633333 0.000000
0.676471 0.635294 0.000000
0.686275 0.637255 0.000000
0.696078 0.639216 0.000000
0.705882 0.641176 0.000000
0.715686 0.643137 0.000000
0.725490 0.645098 0.000000
0.735294 0.647059 0.000000
0.745098 0.649020 0.000000
0.754902 0.650980 0.000000
0.764706 0.652941 0.000000
0.774510 0.654902 0.000000
0.784314 0.656863 0.000000
0.794118 0.658824 0.000000
0.803922 0.660784 0.000000
0.813725 0.662745 0.000000
0.823529 0.664706 0.000000
0.833333 0.666667 0.000000
0.843137 0.668627 0.000000
0.852941 0.670588 0.000000
0.862745 0.672549 0.000000
0.872549 0.674510 0.000000
0.882353 0.676471 0.000000
0.892157 0.678431 0.000000
0.901961 0.680392 0.000000
0.911765 0.682353 0.000000
0.921569 0.684314 0.000000
0.931373 0.686275 0.000000
0.941176 0.688235 0.000000
0.950980 0.690196 0.000000
0.960784 0.692157 0.000000
0.970588 0.694118 0.000000
0.980392 0.696078 0.000000
0.990196 0.698039 0.000000
0.113534 0.606152 0.000000
0.107142 0.586373 0.000000
0.121751 0.595256 0.000000
0.125314 0.578403 0.000000
0.608008 0.765681 0.000000
0.585349 0.764086 0.000000
0.591336 0.741952 0.000000
0.592072 0.793974 0.000000
0.550258 0.931017 0.000000
0.517159 0.896365 0.000000
0.557866 0.881366 0.000000
0.885592 0.689744 0.000000
0.900640 0.689195 0.000000
0.893881 0.699663 0.000000
0.791014 0.782870 0.000000
0.806073 0.755575 0.000000
0.814238 0.783906 0.000000
0.755950 0.661588 0.000000
0.766977 0.664624 0.000000
0.759150 0.673362 0.000000
0.237587 0.602856 0.000000
0.244276 0.587613 0.000000
0.255222 0.600052 0.000000
0.435458 0.690521 0.000000
0.445365 0.672382 0.000000
0.452783 0.695442 0.000000
0.434168 0.596027 0.000000
0.443497 0.595614 0.000000
0.440408 0.604928 0.000000
0.125631 0.548518 0.000000
0.136149 0.544058 0.000000
0.133888 0.554367 0.000000
0.684531 0.649457 0.000000
0.693022 0.657375 0.000000
0.680758 0.660164 0.000000
0.688513 0.672143 0.000000
0.209804 0.572062 0.000000
0.211391 0.587677 0.000000
0.198823 0.579466 0.000000
0.912173 0.691199 0.000000
0.919923 0.697571 0.000000
0.840788 0.691515 0.000000
0.836260 0.679067 0.000000
0.846581 0.680639 0.000000
0.610270 0.644163 0.000000
0.606363 0.631487 0.000000
0.618571 0.634947 0.000000
0.703833 0.664888 0.000000
0.705328 0.651574 0.000000
0.718551 0.657874 0.000000
0.476110 0.619965 0.000000
0.470756 0.606568 0.000000
0.483603 0.608681 0.000000
0.787587 0.718715 0.000000
0.799121 0.708516 0.000000
0.805593 0.724753 0.000000
0.545957 0.632159 0.000000
0.551865 0.620855 0.000000
0.557339 0.632078 0.000000
0.494856 0.610760 0.000000
0.503640 0.608636 0.000000
0.360926 0.590762 0.000000
0.373577 0.584863 0.000000
0.371469 0.597941 0.000000
0.331595 0.581327 0.000000
0.327955 0.573642 0.000000
0.337441 0.574864 0.000000
0.452770 0.600633 0.000000
0.450058 0.613037 0.000000
0.678157 0.643781 0.000000
0.204164 0.604889 0.000000
0.194170 0.595839 0.000000
0.640959 0.641938 0.000000
0.656321 0.640868 0.000000
0.651180 0.656559 0.000000
0.987799 0.705954 0.000000
0.990005 0.721233 0.000000
0.977245 0.712758 0.000000
0.974986 0.729512 0.000000
0.333802 0.812487 0.000000
0.361509 0.790617 0.000000
0.367317 0.828894 0.000000
0.604086 0.908536 0.000000
0.602873 0.861865 0.000000
0.486055 0.632060 0.000000
0.466853 0.635244 0.000000
0.541673 0.619743 0.000000
0.532472 0.631076 0.000000
0.541658 0.649026 0.000000
0.522313 0.819315 0.000000
0.510522 0.853722 0.000000
0.487163 0.814552 0.000000
0.308272 0.686111 0.000000
0.313305 0.664245 0.000000
0.331890 0.672844 0.000000
0.462242 0.618446 0.000000
0.459244 0.608252 0.000000
0.859980 0.693314 0.000000
0.849777 0.691819 0.000000
0.856777 0.681858 0.000000
0.942362 0.711719 0.000000
0.941048 0.728383 0.000000
0.931633 0.715819 0.000000
0.696422 0.925997 0.000000
0.743778 0.899483 0.000000
0.736714 0.951105 0.000000
0.710099 0.873175 0.000000
0.706855 0.827503 0.000000
0.748341 0.846430 0.000000
0.404569 0.612087 0.000000
0.400941 0.600304 0.000000
0.413129 0.601428 0.000000
0.739879 0.801859 0.000000
0.689244 0.763692 0.000000
0.711842 0.784429 0.000000
0.682971 0.800595 0.000000
0.849502 0.703362 0.000000
0.872437 0.693808 0.000000
0.880424 0.705421 0.000000
0.247911 0.613985 0.000000
0.230071 0.625013 0.000000
0.426705 0.605906 0.000000
0.417314 0.614950 0.000000
0.564489 0.781794 0.000000
0.542753 0.763395 0.000000
0.563888 0.747070 0.000000
0.540876 0.795125 0.000000
0.254442 0.628223 0.000000
0.675859 0.845039 0.000000
0.389585 0.604484 0.000000
0.382141 0.593934 0.000000
0.394023 0.590296 0.000000
0.210190 0.549067 0.000000
0.218913 0.550855 0.000000
0.211545 0.558654 0.000000
0.509032 0.731434 0.000000
0.480547 0.728234 0.000000
0.498097 0.707679 0.000000
0.408331 0.625772 0.000000
0.737928 0.766371 0.000000
0.713411 0.751924 0.000000
0.236129 0.559953 0.000000
0.247527 0.565947 0.000000
0.238129 0.573668 0.000000
0.277601 0.586118 0.000000
0.273407 0.573379 0.000000
0.286542 0.574133 0.000000
0.695186 0.646009 0.000000
0.128809 0.536590 0.000000
0.385032 0.584469 0.000000
0.959668 0.883416 0.000000
0.604963 0.829728 0.000000
0.627628 0.795445 0.000000
0.636557 0.838109 0.000000
0.226927 0.903063 0.000000
0.196567 0.877414 0.000000
0.253614 0.858563 0.000000
0.488755 0.686131 0.000000
0.474772 0.701653 0.000000
0.208074 0.832028 0.000000
0.596571 0.714257 0.000000
0.619682 0.736143 0.000000
0.620249 0.709238 0.000000
0.426920 0.878300 0.000000
0.456147 0.845659 0.000000
0.471012 0.891685 0.000000
0.607192 0.695818 0.000000
0.525672 0.709461 0.000000
0.509369 0.690109 0.000000
0.535964 0.736172 0.000000
0.737088 0.738406 0.000000
0.716812 0.727414 0.000000
0.735580 0.717065 0.000000
0.717714 0.708748 0.000000
0.733899 0.701419 0.000000
0.434815 0.713754 0.000000
0.456218 0.743004 0.000000
0.415116 0.743197 0.000000
0.459688 0.716033 0.000000
0.441105 0.768871 0.000000
[...]
POINT_DATA 1770
SCALARS UX float 1
LOOKUP_TABLE default
-0.500130
0.000001
0.000001
-0.640239
-0.531482
0.036344
-0.457392
-0.414370
-0.371685
-0.329852
-0.289108
-0.249085
-0.209682
-0.170552
-0.132629
-0.095176
-0.059158
-0.027424
0.026704
0.035703
0.041379
0.043575
0.045829
0.047005
0.047693
0.048262
0.049151
0.049755
0.050388
0.051062
0.051808
0.052405
0.052781
0.052703
0.052087
0.050021
0.047121
0.042195
0.030912
0.026223
0.022977
0.021451
0.021148
0.022171
0.022927
0.024237
-0.000011
-0.060990
-0.120839
-0.177650
-0.232891
-0.286194
-0.338534
-0.389512
-0.439920
-0.490617
-0.540579
-0.590310
-0.606762
-0.580298
-0.562719
-0.553784
-0.548866
-0.546427
-0.545638
-0.545412
-0.545265
-0.545177
-0.544579
-0.542909
-0.539980
-0.536013
-0.524543
-0.520521
-0.517817
-0.515985
-0.515108
-0.515203
-0.515234
-0.515465
-0.515868
-0.515833
-0.516157
-0.515586
-0.514458
-0.510487
-0.525210
-0.519155
-0.513219
-0.507407
-0.501650
-0.495963
-0.490366
-0.484767
-0.479163
-0.473591
-0.468063
-0.462564
-0.457057
-0.451582
-0.446086
-0.440612
-0.435053
-0.429481
-0.423966
-0.418504
-0.413069
-0.407617
-0.402158
-0.396684
-0.391190
-0.385684
-0.380297
-0.374830
-0.369343
-0.363922
-0.358484
-0.353060
-0.347623
-0.342193
-0.336813
-0.331454
-0.326043
-0.320632
-0.315177
-0.309742
-0.304269
-0.298808
-0.293342
-0.287868
-0.282384
-0.276906
-0.271420
-0.265939
-0.260431
-0.254931
-0.249529
-0.244104
-0.238648
-0.233201
-0.227737
-0.222260
-0.216792
-0.211313
-0.205860
-0.200376
-0.194916
-0.189396
-0.183963
-0.178501
-0.173026
-0.167535
-0.162037
-0.156534
-0.151030
-0.145541
-0.139941
-0.134418
-0.128890
-0.123335
-0.117801
-0.112244
-0.106629
-0.101015
-0.095440
-0.089866
-0.084266
-0.078656
-0.073100
-0.067574
-0.062081
-0.056507
-0.050925
-0.045353
-0.039730
-0.034114
-0.028429
-0.022727
-0.017065
-0.011406
-0.005564
0.000267
0.006122
0.012021
0.017989
0.024037
0.030077
-0.479397
-0.482380
-0.474399
-0.471518
-0.202875
-0.215687
-0.212558
-0.211526
-0.251848
-0.264545
-0.235978
-0.038445
-0.028067
-0.036141
-0.099238
-0.091489
-0.086110
-0.110710
-0.104892
-0.112797
-0.408976
-0.403718
-0.398674
-0.300101
-0.294297
-0.290408
-0.290334
-0.284198
-0.289577
-0.466662
-0.458806
-0.463056
-0.151673
-0.148960
-0.157267
-0.155265
-0.421430
-0.422837
-0.429184
-0.021106
-0.018539
-0.067444
-0.066163
-0.060133
-0.196357
-0.194802
-0.188350
-0.144329
-0.139291
-0.133229
-0.271920
-0.271256
-0.263950
-0.101804
-0.094456
-0.091728
-0.232685
-0.225342
-0.225673
-0.257630
-0.251145
-0.334496
-0.324430
-0.330084
-0.349578
-0.348903
-0.343351
-0.280342
-0.286074
-0.153559
-0.428147
-0.433370
-0.176640
-0.166529
-0.174492
0.024383
0.020691
0.014649
0.008920
-0.363012
-0.344231
-0.344974
-0.211949
-0.206420
-0.268407
-0.280075
-0.231382
-0.240578
-0.238125
-0.251610
-0.261647
-0.271990
-0.371346
-0.368290
-0.358018
-0.279960
-0.278892
-0.055823
-0.061869
-0.054004
-0.008244
-0.012216
-0.015878
-0.155355
-0.123536
-0.134079
-0.142666
-0.145337
-0.121082
-0.313283
-0.312531
-0.305349
-0.127549
-0.157176
-0.143871
-0.159809
-0.064418
-0.048065
-0.046194
-0.403662
-0.414322
-0.298297
-0.306270
-0.227329
-0.239775
-0.227959
-0.240764
-0.400652
-0.162767
-0.320789
-0.322127
-0.313585
-0.413945
-0.409075
-0.416920
-0.258897
-0.274898
-0.265042
-0.312936
-0.129655
-0.143728
-0.401902
-0.396758
-0.404891
-0.383980
-0.383222
-0.375321
-0.143533
-0.460926
-0.316966
0.002517
-0.203713
-0.191285
-0.185563
-0.451589
-0.461321
-0.419756
-0.270143
-0.278102
-0.441678
-0.209735
-0.196690
-0.196386
-0.317026
-0.293514
-0.292661
-0.203509
-0.249584
-0.258611
-0.243747
-0.130593
-0.142014
-0.131283
-0.141233
-0.131676
-0.300575
-0.288617
-0.311861
-0.286588
-0.297452
-0.485607
-0.481743
-0.476520
-0.229007
-0.222571
-0.216821
-0.481673
-0.488208
0.009126
-0.003537
-0.005448
0.009912
-0.331624
-0.332773
-0.345573
-0.342883
-0.108985
-0.100412
0.002468
-0.004729
-0.491568
-0.538361
-0.500226
-0.502896
-0.506160
-0.497478
-0.499344
-0.512354
-0.039065
-0.048288
-0.259936
-0.253896
-0.264545
-0.249187
0.011531
-0.117912
-0.107090
-0.109437
-0.254984
-0.459225
-0.228487
-0.321230
-0.355216
-0.424902
-0.535908
-0.536304
-0.324320
-0.011006
-0.013600
-0.413363
-0.374853
-0.368841
-0.390694
-0.391152
-0.330214
-0.351254
-0.015501
-0.034390
-0.017279
-0.030689
-0.159197
-0.526442
-0.514019
-0.504000
-0.499243
-0.178567
-0.526576
-0.522580
-0.512895
-0.509570
-0.529563
-0.485407
-0.509352
-0.174765
-0.174702
-0.511315
-0.164366
-0.166142
-0.246738
-0.249543
-0.533664
-0.244171
-0.531857
-0.513159
-0.022040
-0.029908
-0.031292
-0.194542
-0.498025
-0.529835
-0.416506
-0.103207
-0.022203
-0.028591
-0.494597
-0.500909
-0.056681
-0.045013
-0.076938
-0.509910
-0.017471
-0.019243
-0.264797
-0.274363
-0.482116
-0.471942
0.003277
-0.467553
-0.474844
-0.464587
-0.474211
-0.464181
-0.410328
-0.425566
-0.406533
-0.492766
-0.498750
-0.507125
-0.432889
-0.080110
-0.234085
-0.496431
-0.503027
-0.126870
-0.120542
-0.201341
-0.190710
-0.193492
-0.385328
-0.372725
-0.379884
-0.377117
-0.169897
-0.180542
-0.174812
-0.174690
-0.045505
-0.053898
-0.060864
-0.510051
-0.099787
-0.057677
-0.069013
-0.062582
-0.070772
-0.064205
-0.101663
-0.109926
-0.081287
-0.078001
-0.072062
-0.310889
-0.304509
-0.302700
-0.120326
-0.081208
-0.087564
-0.112105
-0.211025
-0.204659
-0.121228
-0.282539
-0.489463
-0.500033
-0.491512
-0.353374
-0.346310
-0.353345
-0.105139
-0.114828
-0.116841
-0.344407
-0.334636
-0.328766
-0.338277
-0.327923
-0.319771
-0.042559
-0.314224
-0.530799
-0.498406
-0.291049
-0.288693
-0.319655
-0.473919
-0.469672
-0.296122
-0.457966
-0.443793
-0.447980
-0.450726
-0.296245
-0.099687
-0.155078
-0.095707
-0.426273
-0.435756
-0.431598
-0.163506
-0.152087
-0.167921
-0.038372
-0.048850
-0.040902
-0.449569
-0.463470
-0.159791
-0.149249
-0.155508
-0.165014
-0.466550
-0.256763
-0.437855
-0.434226
-0.428581
-0.437287
-0.280390
-0.456661
-0.448861
-0.450109
-0.269041
-0.308921
-0.317550
-0.419249
-0.427124
-0.203118
-0.201908
-0.209728
-0.441998
-0.306553
-0.181736
-0.189406
-0.442870
-0.446890
-0.452495
-0.455094
-0.237323
-0.247991
-0.447359
-0.438503
-0.337019
-0.382650
-0.338489
-0.337688
-0.345185
-0.296281
-0.353797
-0.355554
-0.322669
-0.414489
-0.407847
-0.125459
-0.133419
-0.208478
-0.273617
-0.264857
-0.359249
-0.366119
-0.369366
-0.360861
-0.362317
-0.139621
-0.138091
-0.165419
-0.173657
-0.515698
-0.159386
-0.410286
-0.260903
-0.471426
-0.462332
-0.477295
-0.479193
-0.484848
-0.473491
-0.469972
-0.493290
-0.489916
-0.083092
-0.076383
-0.083453
-0.455881
-0.240832
-0.258219
-0.089798
-0.388400
-0.379570
-0.388529
-0.378352
-0.395814
-0.394467
-0.091951
-0.389146
-0.368300
-0.390214
-0.385645
-0.450712
-0.204712
-0.193044
-0.086799
-0.417425
-0.405133
-0.421081
-0.432508
-0.497269
-0.432039
-0.250489
-0.254291
-0.246440
-0.368133
-0.366349
-0.339616
-0.345910
-0.331114
-0.055764
-0.054352
-0.348552
-0.359002
-0.443824
-0.437520
-0.183996
-0.184336
-0.412894
-0.129149
-0.217846
-0.218424
-0.380287
-0.386359
-0.147578
-0.360623
-0.376241
-0.518689
-0.396829
-0.398025
-0.390958
-0.236689
-0.226731
-0.213542
-0.393019
-0.339188
-0.231568
-0.487114
-0.478744
-0.271488
-0.329328
-0.415407
-0.299307
-0.370943
-0.391924
-0.331050
-0.407972
-0.399873
-0.453820
-0.489615
-0.514588
-0.520407
-0.253727
-0.495269
-0.312481
-0.186439
-0.473850
-0.485568
-0.534624
-0.027594
-0.539879
-0.028165
-0.223430
-0.533183
-0.528714
-0.526570
-0.519497
-0.533813
-0.515194
-0.516808
-0.523230
-0.526398
-0.523864
-0.234168
-0.212194
-0.354727
-0.362925
-0.582307
-0.006561
-0.389912
-0.528894
-0.527559
-0.397341
-0.525455
-0.001772
-0.422042
0.006919
-0.463212
-0.115963
-0.534129
0.018162
0.007195
-0.362181
-0.072017
-0.080625
-0.076531
-0.456758
-0.466867
-0.282461
-0.369986
-0.375513
-0.436858
-0.447203
-0.222547
-0.293252
-0.182462
-0.188058
-0.443227
-0.472242
-0.102449
-0.484761
-0.465382
-0.240197
-0.456809
-0.469230
-0.388833
-0.182343
-0.425818
-0.306158
-0.218589
-0.048233
-0.041965
-0.438668
-0.070374
-0.360486
-0.371036
-0.212564
-0.300520
-0.099118
-0.392350
-0.349627
-0.395493
-0.326297
-0.125015
-0.375854
-0.183948
-0.231247
-0.427443
-0.435123
-0.438267
-0.425830
-0.175546
-0.184299
-0.182035
-0.182061
-0.231926
-0.232266
-0.237595
-0.233728
-0.224434
-0.256858
-0.446790
-0.441056
-0.238702
-0.504462
-0.502439
-0.002014
-0.018337
-0.004077
-0.489595
-0.492491
-0.017820
-0.270453
-0.306975
0.023914
0.017767
0.032800
0.017958
-0.027444
-0.025287
-0.033298
-0.018957
-0.348238
-0.351285
-0.341320
-0.340247
-0.241419
-0.229507
-0.240385
-0.234864
-0.445816
-0.439975
-0.434390
-0.433091
-0.415082
-0.416302
-0.272687
-0.279260
-0.269254
0.010887
-0.444888
-0.435570
-0.443592
-0.439931
-0.424816
-0.410025
-0.414927
-0.401417
-0.226996
-0.232171
-0.222704
-0.190849
-0.187302
-0.120104
-0.123954
-0.108990
-0.132158
-0.077867
-0.073639
-0.084368
-0.063926
-0.188812
-0.290863
-0.297245
-0.298922
0.002184
0.003150
-0.004397
-0.302444
-0.308490
-0.301892
-0.305949
-0.483124
-0.480055
-0.474921
-0.396876
-0.400048
-0.405584
-0.287798
-0.295777
-0.082776
-0.079327
-0.073448
-0.183289
-0.175453
-0.175590
-0.168414
-0.122046
-0.113626
-0.268696
-0.272128
-0.277997
-0.245780
-0.249314
-0.241826
-0.121690
-0.114598
-0.124057
-0.253579
-0.260528
-0.263546
-0.254410
-0.387771
-0.380025
-0.386452
-0.379482
-0.395511
-0.390111
-0.397455
-0.217310
-0.217674
-0.228497
-0.175362
-0.162228
-0.159923
-0.220974
-0.387187
-0.393815
-0.382905
-0.158342
-0.158965
-0.164762
-0.156683
-0.157052
-0.148610
-0.366193
-0.365915
-0.374840
-0.152031
-0.108224
-0.128676
-0.116432
-0.121909
-0.401487
-0.402432
-0.290229
-0.296474
-0.290349
-0.195017
-0.202732
-0.200025
-0.203615
-0.498925
-0.503381
-0.495090
-0.500540
-0.137776
-0.140826
-0.146501
-0.175967
-0.181501
0.031814
0.035935
0.040511
0.026692
-0.339861
-0.325696
-0.350808
-0.147320
0.006716
-0.006861
-0.244067
-0.236129
-0.325032
-0.316021
-0.321677
-0.143071
-0.140165
-0.151565
-0.168600
0.017172
0.012770
0.005946
0.003112
-0.314167
-0.072420
-0.065886
-0.067015
-0.160893
-0.155784
-0.163047
-0.401435
-0.394178
-0.205445
-0.213908
-0.208934
-0.253806
-0.247690
-0.256336
-0.336858
-0.324448
-0.447656
-0.455828
-0.449658
-0.459977
-0.324846
-0.328683
-0.332962
-0.142863
-0.196365
-0.197295
-0.000407
0.009442
0.007629
-0.480853
-0.466454
-0.478607
-0.465084
-0.001068
-0.004638
-0.029286
-0.054457
-0.026103
-0.045995
-0.363713
-0.364918
-0.371916
-0.357307
-0.267645
-0.204325
-0.194496
-0.205408
-0.288319
-0.249491
-0.226064
-0.217078
-0.220107
0.039760
0.044079
-0.058512
-0.053086
-0.063975
-0.047705
-0.049073
-0.079591
-0.070827
-0.297956
-0.295391
-0.319351
-0.400104
-0.391374
-0.381388
-0.432818
-0.459175
-0.459292
-0.452216
-0.465887
-0.454612
-0.435765
-0.449940
-0.420487
-0.491261
-0.491938
-0.142134
-0.150851
-0.162642
-0.126415
-0.374022
-0.364733
-0.134503
-0.345891
-0.370141
-0.493210
-0.486190
-0.189776
-0.489288
0.005462
-0.003754
-0.250203
-0.251204
-0.265110
-0.265891
-0.497665
-0.029285
-0.021863
-0.032117
-0.027627
-0.020455
-0.089020
-0.075501
-0.099155
-0.306880
-0.302742
-0.303319
-0.405737
-0.413770
-0.412334
-0.040575
-0.049561
-0.047570
-0.001479
-0.494868
-0.485210
-0.495448
0.023321
0.016253
0.009196
0.037458
-0.485497
-0.477888
-0.431915
-0.425493
-0.429206
-0.471582
-0.478197
-0.473423
-0.469450
-0.465436
0.003435
-0.472682
0.035988
0.032229
0.024756
-0.297449
-0.301978
-0.310121
-0.440908
-0.453306
-0.439100
-0.452291
-0.452950
-0.084153
-0.064214
-0.248381
-0.264511
-0.235958
-0.220448
-0.246639
-0.227590
-0.490971
0.014142
0.019795
0.011503
0.020678
-0.086987
-0.081881
-0.079257
-0.083003
-0.076998
-0.009587
-0.011612
-0.261382
-0.090823
-0.505457
-0.401322
-0.397133
-0.095459
-0.091882
-0.357868
-0.014422
-0.029249
-0.139709
-0.152999
-0.147002
-0.145719
-0.196720
-0.050630
-0.056578
-0.058785
-0.021004
-0.029521
-0.060946
-0.053336
-0.060903
-0.091657
-0.448561
-0.451697
0.024601
0.014390
0.033001
0.011749
0.003802
-0.201631
-0.006198
-0.013387
-0.014681
-0.263621
-0.257353
-0.061037
-0.054793
-0.058919
-0.176890
-0.186069
-0.207232
-0.191991
-0.009140
0.004924
-0.016145
-0.401150
-0.402405
-0.411500
-0.392925
-0.504902
-0.028444
0.012340
-0.390220
-0.100316
-0.095496
-0.103906
-0.394273
-0.417208
-0.422139
-0.368444
-0.384912
0.028066
0.021025
-0.378063
-0.387990
-0.372383
-0.052591
-0.039495
-0.057740
-0.038483
-0.359184
-0.373962
-0.387124
0.031574
0.025598
0.032347
0.041351
0.043562
-0.070781
-0.100003
-0.060065
-0.077114
-0.001952
-0.076687
-0.100801
-0.085299
0.028265
-0.095004
0.004035
0.012546
-0.096211
-0.116403
-0.112328
-0.304220
-0.318032
-0.315388
0.033746
0.024450
-0.046559
-0.471935
-0.507364
-0.064842
-0.031580
0.037755
-0.059685
0.007180
0.004575
-0.497755
-0.353685
-0.356670
-0.471170
-0.477675
0.026963
-0.066293
-0.070712
-0.277870
-0.281069
-0.291183
-0.286936
-0.482769
-0.498000
-0.025083
-0.016162
-0.023879
-0.335168
-0.340735
0.033586
-0.030123
-0.017359
-0.023739
-0.037419
-0.041665
-0.485838
-0.039610
-0.419204
-0.417003
-0.175781
-0.161655
-0.184875
-0.171084
-0.083073
-0.084349
-0.093492
-0.085749
-0.092852
-0.093089
-0.051675
-0.043188
-0.041046
-0.073612
-0.077055
-0.030232
-0.222419
-0.213427
-0.206856
-0.043892
-0.047375
-0.038994
-0.464951
-0.456393
-0.462970
-0.455667
-0.203175
-0.064121
-0.064339
-0.267307
-0.078196
-0.054961
-0.108604
-0.042540
-0.045494
-0.049159
-0.452413
-0.447047
-0.456439
-0.047704
-0.480694
-0.104021
-0.099374
-0.202995
-0.200679
-0.277082
-0.004290
-0.004754
-0.005951
0.000414
-0.009249
-0.009927
0.027853
-0.065845
-0.034146
-0.026777
-0.035877
-0.072327
-0.432723
-0.434009
-0.268290
-0.040705
-0.272367
-0.030793
-0.052595
-0.079044
-0.072015
-0.364209
-0.358581
-0.355640
-0.351882
-0.358284
-0.101620
-0.112514
-0.111878
-0.102564
-0.272779
-0.067599
-0.332284
-0.333017
-0.198884
-0.194078
-0.204483
-0.234819
-0.225761
-0.237469
-0.240064
-0.441725
-0.222849
-0.325693
-0.330414
-0.323412
-0.209323
-0.384318
-0.388699
-0.464697
-0.097352
-0.105907
-0.105966
-0.330936
-0.322102
-0.333858
-0.329697
-0.440182
-0.001946
0.022475
-0.086742
-0.290386
-0.295064
-0.476146
-0.392599
-0.181679
-0.197845
-0.182126
-0.166203
-0.181396
-0.167342
-0.177624
-0.055818
-0.235660
-0.194251
-0.060858
-0.161146
-0.153833
-0.367428
-0.208899
-0.213310
-0.212623
-0.411349
-0.398783
-0.406562
-0.252046
-0.206464
-0.213902
-0.299581
-0.330889
-0.313892
-0.138454
-0.135393
-0.156431
-0.149187
-0.148471
-0.069655
-0.427551
-0.487536
-0.278213
-0.286680
-0.283455
-0.122678
-0.339816
-0.369405
-0.360535
0.017172
-0.424800
-0.250442
-0.245834
-0.019226
-0.305114
-0.324138
-0.307605
-0.139696
-0.129782
-0.108453
-0.312776
-0.321573
-0.464816
-0.113716
-0.105071
-0.106589
-0.098647
-0.350220
-0.345932
-0.419621
-0.429944
-0.424577
-0.422747
-0.266692
-0.260817
-0.262775
-0.166768
-0.155295
-0.300990
-0.289469
-0.285136
-0.466849
-0.461555
-0.190794
-0.209143
-0.203664
-0.226325
-0.094224
-0.092134
-0.106869
-0.123580
-0.124667
-0.115256
-0.306796
-0.317666
-0.311666
-0.311791
-0.367488
-0.379292
-0.373723
-0.373898
-0.381577
-0.038046
-0.133031
-0.131728
0.013027
-0.329425
-0.180839
-0.186967
-0.422239
-0.343118
-0.338448
-0.348153
-0.344876
-0.101354
-0.108853
-0.111724
-0.119568
-0.207467
-0.090480
-0.091028
-0.327027
-0.311115
-0.384947
-0.397360
-0.346468
-0.197528
-0.191717
-0.390040
-0.215544
-0.233514
-0.116131
-0.108126
-0.113847
-0.337342
-0.344107
-0.086423
-0.286145
-0.063302
-0.426975
-0.298334
-0.306127
-0.302046
-0.212168
-0.220123
-0.012067
-0.428664
0.034143
-0.019287
-0.481183
-0.421033
-0.351034
-0.343198
-0.250424
-0.377654
-0.387647
-0.272314
-0.250345
-0.473491
-0.348008
-0.338579
-0.137542
-0.132963
-0.145302
-0.334890
-0.247373
-0.240760
0.021789
-0.133265
-0.134204
-0.417283
-0.320975
-0.324918
-0.468808
-0.396253
-0.400501
-0.398449
-0.188766
-0.183241
0.022100
0.024840
-0.410271
-0.327470
-0.336342
-0.328400
-0.219666
-0.087458
-0.315700
-0.354153
-0.360427
-0.140718
-0.127678
-0.226235
-0.076867
-0.225382
-0.228037
-0.220598
-0.366717
-0.371639
-0.043390
-0.060925
-0.266771
-0.234013
-0.021734
-0.309604
-0.315234
-0.239926
-0.238244
-0.339340
-0.344804
-0.347337
-0.152459
-0.153324
-0.076964
-0.169143
0.042546
-0.477050
-0.449682
-0.129487
-0.122963
0.030809
-0.128472
-0.414287
-0.484291
0.030246
-0.035545
-0.046234
-0.505889
-0.025692
-0.015956
-0.128032
-0.453406
0.041257
-0.444157
-0.188041
-0.511006
-0.511277
-0.517963
-0.150580
-0.511486
0.015114
-0.084900
0.017717
-0.355917
-0.219280
-0.519221
-0.000333
-0.275870
-0.185901
-0.167801
-0.172216
-0.151195
-0.136281
-0.128705
-0.118380
-0.136287
-0.231720
-0.422461
-0.120053
-0.294169
-0.285509
-0.408992
-0.321732
-0.294743
-0.234462
-0.355990
-0.040494
-0.247642
-0.267532
-0.138095
-0.127302
-0.239393
-0.312152
-0.318425
-0.155519
-0.163054
-0.160905
-0.108441
-0.019629
-0.028590
-0.150777
-0.011792
-0.181885
-0.040137
-0.388224
-0.256310
-0.214756
-0.145194
-0.110074
-0.012030
-0.340825
0.021369
-0.371624
-0.132159
-0.012281
-0.023015
-0.014070
-0.054270
-0.440161
-0.029977
-0.469458
-0.464556
-0.329681
-0.192416
-0.437249
-0.440514
-0.123167
-0.137523
-0.054003
-0.069531
-0.012973
-0.484582
-0.163007
-0.171975
-0.213342
-0.260806
-0.114892
-0.280480
-0.284021
-0.327006
-0.451800
-0.177545
-0.267231
-0.276258
-0.018389
-0.282336
-0.289587
-0.283455
-0.178718
-0.361966
-0.391044
-0.312960
-0.008269
-0.170812
-0.091521
-0.063281
-0.433310
-0.161505
-0.169853
-0.403153
-0.145567
-0.139441
-0.143325
-0.176427
-0.181395
-0.408307
-0.412224
-0.415705
-0.163661
-0.170606
-0.170423
-0.193482
-0.189214
-0.197477
-0.350436
-0.377200
-0.245771
-0.341105
-0.415556
-0.407443
-0.278838
-0.240618
-0.356262
-0.208273
-0.245905
-0.273399
-0.359937
SCALARS UY float 1
LOOKUP_TABLE default
-0.000000
-0.000001
-1.309986
-1.310000
-0.622262
-0.947789
-0.000000
-0.000000
-0.000000
-0.000000
-0.000000
-0.000000
-0.000000
-0.000000
-0.000000
-0.000000
-0.000000
-0.000000
-0.105754
-0.198011
-0.280801
-0.356950
-0.425396
-0.486992
-0.542757
-0.593296
-0.638904
-0.680577
-0.718053
-0.751871
-0.782537
-0.810478
-0.835953
-0.858953
-0.879820
-0.899162
-0.916697
-0.933014
-0.963404
-0.982137
-1.004746
-1.032864
-1.067050
-1.110149
-1.162200
-1.226919
-1.310001
-1.309999
-1.310000
-1.310000
-1.310000
-1.310000
-1.310000
-1.310000
-1.310000
-1.310000
-1.310000
-1.310000
-1.206002
-1.116272
-1.038718
-0.971964
-0.914430
-0.864529
-0.821242
-0.783221
-0.750331
-0.721506
-0.696229
-0.674172
-0.654630
-0.637289
-0.606799
-0.590300
-0.571583
-0.550520
-0.526736
-0.499928
-0.469190
-0.433838
-0.393631
-0.347336
-0.294743
-0.234623
-0.166181
-0.087936
-0.630413
-0.637394
-0.643090
-0.647980
-0.652551
-0.656767
-0.660420
-0.663852
-0.666999
-0.670209
-0.673215
-0.676022
-0.678911
-0.681613
-0.684367
-0.686845
-0.689496
-0.692072
-0.694704
-0.697297
-0.699860
-0.702473
-0.705075
-0.707590
-0.710286
-0.712919
-0.715393
-0.717942
-0.720675
-0.723110
-0.725620
-0.728146
-0.730660
-0.733259
-0.735786
-0.738389
-0.740848
-0.743390
-0.746048
-0.748532
-0.751106
-0.753705
-0.756232
-0.758860
-0.761435
-0.763900
-0.766471
-0.769039
-0.771609
-0.774139
-0.776732
-0.779315
-0.781929
-0.784364
-0.786937
-0.789555
-0.792142
-0.794784
-0.797358
-0.800064
-0.802548
-0.805219
-0.807621
-0.810249
-0.812865
-0.815511
-0.817975
-0.820670
-0.823331
-0.825910
-0.828566
-0.831220
-0.833941
-0.836673
-0.839481
-0.841874
-0.844663
-0.847299
-0.850135
-0.852815
-0.855537
-0.858450
-0.861247
-0.863986
-0.866705
-0.869761
-0.872945
-0.876300
-0.879911
-0.883491
-0.887529
-0.891707
-0.896184
-0.900725
-0.905582
-0.910477
-0.915497
-0.920958
-0.926697
-0.932835
-0.939741
-0.785318
-0.759485
-0.771431
-0.749634
-0.995077
-0.992845
-0.964154
-1.031758
-1.214165
-1.166672
-1.146721
-0.902567
-0.903953
-0.917496
-1.020576
-0.985310
-1.022470
-0.859530
-0.863631
-0.875673
-0.782225
-0.762358
-0.778675
-0.896431
-0.872988
-0.902925
-0.772295
-0.771587
-0.784355
-0.710209
-0.704316
-0.718128
-0.842825
-0.853656
-0.857407
-0.873589
-0.741722
-0.762324
-0.751492
-0.908791
-0.919079
-0.901548
-0.884272
-0.886790
-0.836140