# vtk DataFile Version 2.0
Test
ASCII
DATASET POLYDATA
POINTS 1770 float
0.000000 0.000000 0.000000
1.000000 0.000000 0.000000
1.000000 1.000000 0.000000
0.000000 1.000000 0.000000
0.000000 0.500000 0.000000
1.000000 0.700000 0.000000
0.076923 0.000000 0.000000
0.153846 0.000000 0.000000
0.230769 0.000000 0.000000
0.307692 0.000000 0.000000
0.384615 0.000000 0.000000
0.461538 0.000000 0.000000
0.538462 0.000000 0.000000
0.615385 0.000000 0.000000
0.692308 0.000000 0.000000
0.769231 0.000000 0.000000
0.846154 0.000000 0.000000
0.923077 0.000000 0.000000
1.000000 0.075421 0.000000
1.000000 0.143732 0.000000
1.000000 0.205602 0.000000
1.000000 0.261640 0.000000
1.000000 0.312395 0.000000
1.000000 0.358364 0.000000
1.000000 0.400000 0.000000
1.000000 0.437711 0.000000
1.000000 0.471866 0.000000
1.000000 0.502801 0.000000
1.000000 0.530820 0.000000
1.000000 0.556197 0.000000
1.000000 0.579182 0.000000
1.000000 0.600000 0.000000
1.000000 0.618855 0.000000
1.000000 0.635933 0.000000
1.000000 0.651401 0.000000
1.000000 0.665410 0.000000
1.000000 0.678099 0.000000
1.000000 0.689591 0.000000
1.000000 0.711139 0.000000
1.000000 0.725174 0.000000
1.000000 0.742857 0.000000
1.000000 0.765136 0.000000
1.000000 0.793206 0.000000
1.000000 0.828571 0.000000
1.000000 0.873129 0.000000
1.000000 0.929269 0.000000
0.923077 1.000000 0.000000
0.846154 1.000000 0.000000
0.769231 1.000000 0.000000
0.692308 1.000000 0.000000
0.615385 1.000000 0.000000
0.538462 1.000000 0.000000
0.461538 1.000000 0.000000
0.384615 1.000000 0.000000
0.307692 1.000000 0.000000
0.230769 1.000000 0.000000
0.153846 1.000000 0.000000
0.076923 1.000000 0.000000
0.000000 0.926029 0.000000
0.000000 0.861633 0.000000
0.000000 0.805574 0.000000
0.000000 0.756771 0.000000
0.000000 0.714286 0.000000
0.000000 0.677300 0.000000
0.000000 0.645102 0.000000
0.000000 0.617073 0.000000
0.000000 0.592671 0.000000
0.000000 0.571429 0.000000
0.000000 0.552936 0.000000
0.000000 0.536837 0.000000
0.000000 0.522822 0.000000
0.000000 0.510621 0.000000
0.000000 0.489379 0.000000
0.000000 0.477178 0.000000
0.000000 0.463163 0.000000
0.000000 0.447064 0.000000
0.000000 0.428571 0.000000
0.000000 0.407329 0.000000
0.000000 0.382927 0.000000
0.000000 0.354898 0.000000
0.000000 0.322700 0.000000
0.000000 0.285714 0.000000
0.000000 0.243229 0.000000
0.000000 0.194426 0.000000
0.000000 0.138367 0.000000
0.000000 0.073971 0.000000
0.009804 0.501961 0.000000
0.019608 0.503922 0.000000
0.029412 0.505882 0.000000
0.039216 0.507843 0.000000
0.049020 0.509804 0.000000
0.058824 0.511765 0.000000
0.068627 0.513725 0.000000
0.078431 0.515686 0.000000
0.088235 0.517647 0.000000
0.098039 0.519608 0.000000
0.107843 0.521569 0.000000
0.117647 0.523529 0.000000
0.127451 0.525490 0.000000
0.137255 0.527451 0.000000
0.147059 0.529412 0.000000
0.156863 0.531373 0.000000
0.166667 0.533333 0.000000
0.176471 0.535294 0.000000
0.186275 0.537255 0.000000
0.196078 0.539216 0.000000
0.205882 0.541176 0.000000
0.215686 0.543137 0.000000
0.225490 0.545098 0.000000
0.235294 0.547059 0.000000
0.245098 0.549020 0.000000
0.254902 0.550980 0.000000
0.264706 0.552941 0.000000
0.274510 0.554902 0.000000
0.284314 0.556863 0.000000
0.294118 0.558824 0.000000
0.303922 0.560784 0.000000
0.313725 0.562745 0.000000
0.323529 0.564706 0.000000
0.333333 0.566667 0.000000
0.343137 0.568627 0.000000
0.352941 0.570588 0.000000
0.362745 0.572549 0.000000
0.372549 0.574510 0.000000
0.382353 0.576471 0.000000
0.392157 0.578431 0.000000
0.401961 0.580392 0.000000
0.411765 0.582353 0.000000
0.421569 0.584314 0.000000
0.431373 0.586275 0.000000
0.441176 0.588235 0.000000
0.450980 0.590196 0.000000
0.460784 0.592157 0.000000
0.470588 0.594118 0.000000
0.480392 0.596078 0.000000
0.490196 0.598039 0.000000
0.500000 0.600000 0.000000
0.509804 0.601961 0.000000
0.519608 0.603922 0.000000
0.529412 0.605882 0.000000
0.539216 0.607843 0.000000
0.549020 0.609804 0.000000
0.558824 0.611765 0.000000
0.568627 0.613725 0.000000
0.578431 0.615686 0.000000
0.588235 0.617647 0.000000
0.598039 0.619608 0.000000
0.607843 0.621569 0.000000
0.617647 0.623529 0.000000
0.627451 0.625490 0.000000
0.637255 0.627451 0.000000
0.647059 0.629412 0.000000
0.656863 0.631373 0.000000
0.666667 0.633333 0.000000
0.676471 0.635294 0.000000
0.686275 0.637255 0.000000
0.696078 0.639216 0.000000
0.705882 0.641176 0.000000
0.715686 0.643137 0.000000
0.725490 0.645098 0.000000
0.735294 0.647059 0.000000
0.745098 0.649020 0.000000
0.754902 0.650980 0.000000
0.764706 0.652941 0.000000
0.774510 0.654902 0.000000
0.784314 0.656863 0.000000
0.794118 0.658824 0.000000
0.803922 0.660784 0.000000
0.813725 0.662745 0.000000
0.823529 0.664706 0.000000
0.833333 0.666667 0.000000
0.843137 0.668627 0.000000
0.852941 0.670588 0.000000
0.862745 0.672549 0.000000
0.872549 0.674510 0.000000
0.882353 0.676471 0.000000
0.892157 0.678431 0.000000
0.901961 0.680392 0.000000
0.911765 0.682353 0.000000
0.921569 0.684314 0.000000
0.931373 0.686275 0.000000
0.941176 0.688235 0.000000
0.950980 0.690196 0.000000
0.960784 0.692157 0.000000
0.970588 0.694118 0.000000
0.980392 0.696078 0.000000
0.990196 0.698039 0.000000
0.113534 0.606152 0.000000
0.107142 0.586373 0.000000
0.121751 0.595256 0.000000
0.125314 0.578403 0.000000
0.608008 0.765681 0.000000
0.585349 0.764086 0.000000
0.591336 0.741952 0.000000
0.592072 0.793974 0.000000
0.550258 0.931017 0.000000
0.517159 0.896365 0.000000
0.557866 0.881366 0.000000
0.885592 0.689744 0.000000
0.900640 0.689195 0.000000
0.893881 0.699663 0.000000
0.791014 0.782870 0.000000
0.806073 0.755575 0.000000
0.814238 0.783906 0.000000
0.755950 0.661588 0.000000
0.766977 0.664624 0.000000
0.759150 0.673362 0.000000
0.237587 0.602856 0.000000
0.244276 0.587613 0.000000
0.255222 0.600052 0.000000
0.435458 0.690521 0.000000
0.445365 0.672382 0.000000
0.452783 0.695442 0.000000
0.434168 0.596027 0.000000
0.443497 0.595614 0.000000
0.440408 0.604928 0.000000
0.125631 0.548518 0.000000
0.136149 0.544058 0.000000
0.133888 0.554367 0.000000
0.684531 0.649457 0.000000
0.693022 0.657375 0.000000
0.680758 0.660164 0.000000
0.688513 0.672143 0.000000
0.209804 0.572062 0.000000
0.211391 0.587677 0.000000
0.198823 0.579466 0.000000
0.912173 0.691199 0.000000
0.919923 0.697571 0.000000
0.840788 0.691515 0.000000
0.836260 0.679067 0.000000
0.846581 0.680639 0.000000
0.610270 0.644163 0.000000
0.606363 0.631487 0.000000
0.618571 0.634947 0.000000
0.703833 0.664888 0.000000
0.705328 0.651574 0.000000
0.718551 0.657874 0.000000
0.476110 0.619965 0.000000
0.470756 0.606568 0.000000
0.483603 0.608681 0.000000
0.787587 0.718715 0.000000
0.799121 0.708516 0.000000
0.805593 0.724753 0.000000
0.545957 0.632159 0.000000
0.551865 0.620855 0.000000
0.557339 0.632078 0.000000
0.494856 0.610760 0.000000
0.503640 0.608636 0.000000
0.360926 0.590762 0.000000
0.373577 0.584863 0.000000
0.371469 0.597941 0.000000
0.331595 0.581327 0.000000
0.327955 0.573642 0.000000
0.337441 0.574864 0.000000
0.452770 0.600633 0.000000
0.450058 0.613037 0.000000
0.678157 0.643781 0.000000
0.204164 0.604889 0.000000
0.194170 0.595839 0.000000
0.640959 0.641938 0.000000
0.656321 0.640868 0.000000
0.651180 0.656559 0.000000
0.987799 0.705954 0.000000
0.990005 0.721233 0.000000
0.977245 0.712758 0.000000
0.974986 0.729512 0.000000
0.333802 0.812487 0.000000
0.361509 0.790617 0.000000
0.367317 0.828894 0.000000
0.604086 0.908536 0.000000
0.602873 0.861865 0.000000
0.486055 0.632060 0.000000
0.466853 0.635244 0.000000
0.541673 0.619743 0.000000
0.532472 0.631076 0.000000
0.541658 0.649026 0.000000
0.522313 0.819315 0.000000
0.510522 0.853722 0.000000
0.487163 0.814552 0.000000
0.308272 0.686111 0.000000
0.313305 0.664245 0.000000
0.331890 0.672844 0.000000
0.462242 0.618446 0.000000
0.459244 0.608252 0.000000
0.859980 0.693314 0.000000
0.849777 0.691819 0.000000
0.856777 0.681858 0.000000
0.942362 0.711719 0.000000
0.941048 0.728383 0.000000
0.931633 0.715819 0.000000
0.696422 0.925997 0.000000
0.743778 0.899483 0.000000
0.736714 0.951105 0.000000
0.710099 0.873175 0.000000
0.706855 0.827503 0.000000
0.748341 0.846430 0.000000
0.404569 0.612087 0.000000
0.400941 0.600304 0.000000
0.413129 0.601428 0.000000
0.739879 0.801859 0.000000
0.689244 0.763692 0.000000
0.711842 0.784429 0.000000
0.682971 0.800595 0.000000
0.849502 0.703362 0.000000
0.872437 0.693808 0.000000
0.880424 0.705421 0.000000
0.247911 0.613985 0.000000
0.230071 0.625013 0.000000
0.426705 0.605906 0.000000
0.417314 0.614950 0.000000
0.564489 0.781794 0.000000
0.542753 0.763395 0.000000
0.563888 0.747070 0.000000
0.540876 0.795125 0.000000
0.254442 0.628223 0.000000
0.675859 0.845039 0.000000
0.389585 0.604484 0.000000
0.382141 0.593934 0.000000
0.394023 0.590296 0.000000
0.210190 0.549067 0.000000
0.218913 0.550855 0.000000
0.211545 0.558654 0.000000
0.509032 0.731434 0.000000
0.480547 0.728234 0.000000
0.498097 0.707679 0.000000
0.408331 0.625772 0.000000
0.737928 0.766371 0.000000
0.713411 0.751924 0.000000
0.236129 0.559953 0.000000
0.247527 0.565947 0.000000
0.238129 0.573668 0.000000
0.277601 0.586118 0.000000
0.273407 0.573379 0.000000
0.286542 0.574133 0.000000
0.695186 0.646009 0.000000
0.128809 0.536590 0.000000
0.385032 0.584469 0.000000
0.959668 0.883416 0.000000
0.604963 0.829728 0.000000
0.627628 0.795445 0.000000
0.636557 0.838109 0.000000
0.226927 0.903063 0.000000
0.196567 0.877414 0.000000
0.253614 0.858563 0.000000
0.488755 0.686131 0.000000
0.474772 0.701653 0.000000
0.208074 0.832028 0.000000
0.596571 0.714257 0.000000
0.619682 0.736143 0.000000
0.620249 0.709238 0.000000
0.426920 0.878300 0.000000
0.456147 0.845659 0.000000
0.471012 0.891685 0.000000
0.607192 0.695818 0.000000
0.525672 0.709461 0.000000
0.509369 0.690109 0.000000
0.535964 0.736172 0.000000
0.737088 0.738406 0.000000
0.716812 0.727414 0.000000
0.735580 0.717065 0.000000
0.717714 0.708748 0.000000
0.733899 0.701419 0.000000
0.434815 0.713754 0.000000
0.456218 0.743004 0.000000
0.415116 0.743197 0.000000
0.459688 0.716033 0.000000
0.441105 0.768871 0.000000
[...]
POINT_DATA 1770
SCALARS UX float 1
LOOKUP_TABLE default
-0.241266
0.000000
0.000000
-0.261051
-0.250176
0.014032
-0.221504
-0.201675
-0.181854
-0.162129
-0.142573
-0.123213
-0.104068
-0.085129
-0.066589
-0.048375
-0.030675
-0.014564
0.009401
0.013001
0.015073
0.016319
0.017381
0.018216
0.018904
0.019516
0.020082
0.020606
0.021090
0.021543
0.021948
0.022313
0.022597
0.022751
0.022654
0.021912
0.020651
0.017768
0.010466
0.008052
0.006738
0.006582
0.007064
0.008150
0.009466
0.010807
-0.000002
-0.025823
-0.049984
-0.072683
-0.094680
-0.116148
-0.137304
-0.158184
-0.178868
-0.199487
-0.219994
-0.240491
-0.259375
-0.258209
-0.257549
-0.257257
-0.257174
-0.257226
-0.257360
-0.257516
-0.257644
-0.257701
-0.257559
-0.256948
-0.255497
-0.253128
-0.245407
-0.243231
-0.242124
-0.241535
-0.241360
-0.241469
-0.241623
-0.241868
-0.242136
-0.242402
-0.242665
-0.242817
-0.242808
-0.242402
-0.247477
-0.244812
-0.242142
-0.239497
-0.236866
-0.234250
-0.231657
-0.229051
-0.226398
-0.223766
-0.221156
-0.218558
-0.215942
-0.213353
-0.210749
-0.208147
-0.205465
-0.202778
-0.200140
-0.197554
-0.194992
-0.192417
-0.189839
-0.187245
-0.184637
-0.182018
-0.179517
-0.176934
-0.174333
-0.171790
-0.169228
-0.166680
-0.164126
-0.161576
-0.159079
-0.156605
-0.154076
-0.151548
-0.148982
-0.146436
-0.143854
-0.141285
-0.138712
-0.136130
-0.133543
-0.130962
-0.128371
-0.125790
-0.123183
-0.120583
-0.118076
-0.115548
-0.112990
-0.110438
-0.107873
-0.105298
-0.102738
-0.100175
-0.097641
-0.095074
-0.092526
-0.089926
-0.087404
-0.084857
-0.082300
-0.079732
-0.077159
-0.074585
-0.072011
-0.069455
-0.066804
-0.064230
-0.061652
-0.059053
-0.056471
-0.053859
-0.051201
-0.048547
-0.045942
-0.043340
-0.040708
-0.038075
-0.035489
-0.032920
-0.030378
-0.027795
-0.025220
-0.022668
-0.020094
-0.017543
-0.014957
-0.012386
-0.009876
-0.007378
-0.004739
-0.002115
0.000500
0.003150
0.005818
0.008543
0.011248
-0.227282
-0.228869
-0.225036
-0.223862
-0.096290
-0.102294
-0.100947
-0.100179
-0.111345
-0.120070
-0.108860
-0.020822
-0.015819
-0.019972
-0.047936
-0.044566
-0.041864
-0.054012
-0.051388
-0.055401
-0.194191
-0.191921
-0.189399
-0.142286
-0.139690
-0.137709
-0.138086
-0.135037
-0.138047
-0.221764
-0.217875
-0.220085
-0.073224
-0.072160
-0.076083
-0.075081
-0.200378
-0.200883
-0.203964
-0.012612
-0.011784
-0.034382
-0.033485
-0.030675
-0.094391
-0.093356
-0.090390
-0.070055
-0.067350
-0.064729
-0.129851
-0.129331
-0.125887
-0.049769
-0.046588
-0.045062
-0.111445
-0.107680
-0.108136
-0.122910
-0.119591
-0.159241
-0.154155
-0.157247
-0.166243
-0.165540
-0.162861
-0.133451
-0.136519
-0.073846
-0.203161
-0.205720
-0.085003
-0.080071
-0.084176
0.007723
0.005559
0.003008
0.000303
-0.168956
-0.161542
-0.160071
-0.096312
-0.096646
-0.128130
-0.133519
-0.110567
-0.115149
-0.113788
-0.118572
-0.121689
-0.128004
-0.175809
-0.174512
-0.169615
-0.133638
-0.133002
-0.028980
-0.031783
-0.027797
-0.007394
-0.009083
-0.010829
-0.070621
-0.057750
-0.059345
-0.067371
-0.069136
-0.057677
-0.149306
-0.148896
-0.145502
-0.060941
-0.074937
-0.068652
-0.075974
-0.032923
-0.025368
-0.024598
-0.191575
-0.196447
-0.142215
-0.146001
-0.107632
-0.113561
-0.108130
-0.113791
-0.189998
-0.077094
-0.152885
-0.153331
-0.149155
-0.196102
-0.193790
-0.198111
-0.122712
-0.130244
-0.125730
-0.148951
-0.062137
-0.068781
-0.190860
-0.188552
-0.192590
-0.182703
-0.182272
-0.178495
-0.069085
-0.218654
-0.150469
-0.000239
-0.096331
-0.090714
-0.087768
-0.198387
-0.206047
-0.190613
-0.128259
-0.131898
-0.202471
-0.099795
-0.093551
-0.093606
-0.144380
-0.136324
-0.132590
-0.097059
-0.118463
-0.122822
-0.115579
-0.062785
-0.068190
-0.063349
-0.068053
-0.063768
-0.142377
-0.136585
-0.147448
-0.135806
-0.140455
-0.230586
-0.228188
-0.225930
-0.109097
-0.106357
-0.103432
-0.228833
-0.231972
0.000791
-0.005030
-0.005411
0.001578
-0.157026
-0.157305
-0.163475
-0.162440
-0.053223
-0.049448
-0.002326
-0.005265
-0.209789
-0.228462
-0.220937
-0.238831
-0.240320
-0.236251
-0.236834
-0.243184
-0.021300
-0.025270
-0.123758
-0.120753
-0.125738
-0.118792
0.001930
-0.057654
-0.052786
-0.053678
-0.121674
-0.194274
-0.107870
-0.148908
-0.160135
-0.185032
-0.253588
-0.253901
-0.152196
-0.007984
-0.009673
-0.192128
-0.176726
-0.173136
-0.183271
-0.184501
-0.155726
-0.165720
-0.009147
-0.018035
-0.010387
-0.016636
-0.076861
-0.246807
-0.242369
-0.237170
-0.235858
-0.083154
-0.248998
-0.247423
-0.242829
-0.241507
-0.249504
-0.229105
-0.241213
-0.082902
-0.083075
-0.239093
-0.079287
-0.080245
-0.117869
-0.119327
-0.252484
-0.116714
-0.251063
-0.242657
-0.013512
-0.016833
-0.017753
-0.085544
-0.231465
-0.245549
-0.198026
-0.047396
-0.013695
-0.016568
-0.234988
-0.237801
-0.027379
-0.020902
-0.036258
-0.241930
-0.011138
-0.011598
-0.126222
-0.130666
-0.228073
-0.223061
-0.001001
-0.220468
-0.225008
-0.220080
-0.224563
-0.220002
-0.192906
-0.200716
-0.192019
-0.234024
-0.236600
-0.240527
-0.202417
-0.035945
-0.100677
-0.235042
-0.238382
-0.061775
-0.059028
-0.096555
-0.091757
-0.092819
-0.182650
-0.176711
-0.179960
-0.178907
-0.081333
-0.086250
-0.083767
-0.083378
-0.023333
-0.026941
-0.030398
-0.241945
-0.047364
-0.029338
-0.034447
-0.031819
-0.034736
-0.031427
-0.048692
-0.052700
-0.040105
-0.038300
-0.036162
-0.147771
-0.144933
-0.143826
-0.058471
-0.038984
-0.042351
-0.054427
-0.101010
-0.098296
-0.058603
-0.134338
-0.232022
-0.236984
-0.233142
-0.168079
-0.164680
-0.167831
-0.050833
-0.055185
-0.056351
-0.164005
-0.159016
-0.156137
-0.160488
-0.155538
-0.151921
-0.021449
-0.149140
-0.241864
-0.226825
-0.138446
-0.137636
-0.151498
-0.224995
-0.222510
-0.140959
-0.216563
-0.209959
-0.211586
-0.213453
-0.141281
-0.049351
-0.074145
-0.047252
-0.202675
-0.207131
-0.205151
-0.078211
-0.072965
-0.080071
-0.020431
-0.025205
-0.021863
-0.211363
-0.215304
-0.076700
-0.071923
-0.074953
-0.079334
-0.221266
-0.121345
-0.208152
-0.206010
-0.203391
-0.207681
-0.132406
-0.216779
-0.213212
-0.213620
-0.127337
-0.146395
-0.150348
-0.198991
-0.202513
-0.097041
-0.096797
-0.100657
-0.210079
-0.145412
-0.086523
-0.090007
-0.210452
-0.212434
-0.215106
-0.216222
-0.112821
-0.117858
-0.212431
-0.207769
-0.146486
-0.163164
-0.160572
-0.160581
-0.164237
-0.140900
-0.167882
-0.169155
-0.153548
-0.197051
-0.193615
-0.061156
-0.064973
-0.099622
-0.130070
-0.126501
-0.170390
-0.173717
-0.175430
-0.171384
-0.172302
-0.067852
-0.066970
-0.079766
-0.083515
-0.244430
-0.076666
-0.195120
-0.124653
-0.224028
-0.219723
-0.226812
-0.227687
-0.230376
-0.225021
-0.223227
-0.233788
-0.232486
-0.041472
-0.038277
-0.041823
-0.216659
-0.114664
-0.123388
-0.044597
-0.184529
-0.180247
-0.184314
-0.179924
-0.187631
-0.186848
-0.045753
-0.180190
-0.169096
-0.176173
-0.182523
-0.213756
-0.097835
-0.092294
-0.043183
-0.197737
-0.191985
-0.199296
-0.204793
-0.235514
-0.204252
-0.119742
-0.121494
-0.117578
-0.175138
-0.173788
-0.161491
-0.164219
-0.157633
-0.028951
-0.028111
-0.165267
-0.169902
-0.210578
-0.207449
-0.088354
-0.088758
-0.196246
-0.062988
-0.104456
-0.104674
-0.180277
-0.183521
-0.071429
-0.170412
-0.177871
-0.245935
-0.188711
-0.189362
-0.186038
-0.113012
-0.108532
-0.102359
-0.186219
-0.161504
-0.110530
-0.231260
-0.227339
-0.129089
-0.156240
-0.196440
-0.140762
-0.176378
-0.186359
-0.156865
-0.193154
-0.189189
-0.215060
-0.229868
-0.244226
-0.246850
-0.120149
-0.234361
-0.147339
-0.088877
-0.221921
-0.230091
-0.252741
-0.015544
-0.237567
-0.014318
-0.106297
-0.252222
-0.249619
-0.249155
-0.245649
-0.252892
-0.243838
-0.245124
-0.247892
-0.249588
-0.248472
-0.111188
-0.101128
-0.168877
-0.172741
-0.245290
-0.003377
-0.184291
-0.250668
-0.249951
-0.172580
-0.248861
-0.004513
-0.200329
-0.000509
-0.219972
-0.056325
-0.253076
0.005083
0.001375
-0.172331
-0.036399
-0.040180
-0.038621
-0.216446
-0.220966
-0.134096
-0.176077
-0.178695
-0.207008
-0.211966
-0.105726
-0.127177
-0.087361
-0.089804
-0.210503
-0.214586
-0.049810
-0.229569
-0.220829
-0.114544
-0.216637
-0.222485
-0.184303
-0.087578
-0.201779
-0.145562
-0.104427
-0.025128
-0.022194
-0.206985
-0.035329
-0.171097
-0.175839
-0.101449
-0.142796
-0.048632
-0.186519
-0.166466
-0.187747
-0.155462
-0.060363
-0.178222
-0.088502
-0.110688
-0.201042
-0.204441
-0.206092
-0.200072
-0.082269
-0.086254
-0.085356
-0.085125
-0.108714
-0.109164
-0.111708
-0.114544
-0.109076
-0.124087
-0.209950
-0.207359
-0.115003
-0.236699
-0.235890
-0.002224
-0.009698
-0.003327
-0.230162
-0.231386
-0.009356
-0.131926
-0.149069
0.009644
0.006836
0.013499
0.006842
-0.013152
-0.011984
-0.015638
-0.009249
-0.164130
-0.165630
-0.160940
-0.160496
-0.114015
-0.108427
-0.113481
-0.110848
-0.209420
-0.206478
-0.204968
-0.204423
-0.195921
-0.196611
-0.128398
-0.131550
-0.126948
0.003816
-0.208652
-0.204280
-0.208111
-0.206419
-0.200283
-0.193371
-0.195588
-0.189247
-0.106385
-0.108992
-0.104688
-0.089237
-0.087583
-0.057370
-0.059305
-0.052276
-0.062986
-0.037445
-0.035352
-0.040358
-0.030871
-0.088428
-0.136463
-0.139231
-0.140212
0.000592
0.000927
-0.002620
-0.142045
-0.144877
-0.141516
-0.143353
-0.226515
-0.225185
-0.222753
-0.186147
-0.188144
-0.190628
-0.134818
-0.138594
-0.038785
-0.037048
-0.034296
-0.085883
-0.082035
-0.082176
-0.078757
-0.057548
-0.053325
-0.125796
-0.127646
-0.130350
-0.115298
-0.117148
-0.113739
-0.056835
-0.053516
-0.058068
-0.118694
-0.122173
-0.123439
-0.119351
-0.182021
-0.178435
-0.181218
-0.177926
-0.185598
-0.183261
-0.186659
-0.102610
-0.102702
-0.107792
-0.083076
-0.077003
-0.075827
-0.104119
-0.182062
-0.185138
-0.179963
-0.074139
-0.074710
-0.077460
-0.073712
-0.074051
-0.070069
-0.171564
-0.171841
-0.176248
-0.071860
-0.052916
-0.062465
-0.056998
-0.059050
-0.188193
-0.188830
-0.136134
-0.139167
-0.136043
-0.091431
-0.095020
-0.093959
-0.095236
-0.233771
-0.235736
-0.232031
-0.234562
-0.064687
-0.065878
-0.068663
-0.082766
-0.085464
0.013727
0.015735
0.017753
0.011453
-0.162098
-0.154935
-0.166606
-0.068897
0.001782
-0.004324
-0.114775
-0.110640
-0.152680
-0.148515
-0.150928
-0.067324
-0.066142
-0.071181
-0.079024
0.006678
0.004823
0.001656
0.000473
-0.150283
-0.033983
-0.031115
-0.031431
-0.075427
-0.072909
-0.076249
-0.188218
-0.184753
-0.096205
-0.100398
-0.097807
-0.119573
-0.116590
-0.120528
-0.162619
-0.155727
-0.210489
-0.214336
-0.211561
-0.216368
-0.152206
-0.154497
-0.156370
-0.067520
-0.091830
-0.092285
-0.000657
0.003748
0.002755
-0.226304
-0.219660
-0.225127
-0.218896
-0.001567
-0.003107
-0.016598
-0.028539
-0.015264
-0.024098
-0.171081
-0.171353
-0.174672
-0.167892
-0.128351
-0.096641
-0.091972
-0.097078
-0.138820
-0.119513
-0.106748
-0.102584
-0.104067
0.017112
0.019256
-0.028016
-0.025369
-0.030456
-0.022962
-0.023678
-0.040224
-0.035817
-0.142092
-0.140374
-0.151487
-0.188944
-0.185018
-0.180134
-0.203646
-0.215697
-0.215531
-0.212136
-0.218913
-0.213249
-0.205489
-0.212206
-0.198366
-0.231256
-0.231625
-0.069789
-0.073505
-0.079391
-0.062248
-0.177143
-0.172513
-0.065573
-0.163933
-0.175879
-0.231335
-0.228096
-0.089817
-0.229333
-0.000664
-0.005040
-0.118230
-0.118628
-0.125167
-0.125620
-0.233898
-0.014385
-0.010899
-0.015572
-0.013694
-0.010363
-0.042454
-0.036131
-0.047261
-0.143875
-0.142202
-0.142101
-0.190552
-0.194124
-0.193731
-0.019381
-0.023389
-0.022672
-0.001611
-0.232413
-0.228055
-0.232558
0.009470
0.006833
0.003762
0.015634
-0.228041
-0.224639
-0.202725
-0.199707
-0.201300
-0.221193
-0.224284
-0.222658
-0.220736
-0.218441
0.000374
-0.221892
0.014554
0.013094
0.009667
-0.140329
-0.142381
-0.146256
-0.207741
-0.213591
-0.206948
-0.213155
-0.213348
-0.043013
-0.033363
-0.118018
-0.125769
-0.112440
-0.105544
-0.117685
-0.109341
-0.230304
0.005982
0.008514
0.004579
0.008854
-0.040715
-0.038582
-0.037173
-0.039517
-0.036528
-0.005496
-0.006348
-0.123347
-0.042634
-0.237110
-0.189398
-0.187330
-0.044587
-0.042904
-0.171160
-0.008078
-0.014822
-0.066413
-0.072633
-0.069917
-0.069146
-0.093124
-0.023722
-0.026998
-0.027763
-0.010678
-0.014628
-0.028546
-0.024916
-0.031917
-0.046391
-0.210432
-0.212049
0.009383
0.004605
0.012919
0.003826
0.000076
-0.094814
-0.003237
-0.006955
-0.007288
-0.124192
-0.121369
-0.028784
-0.025955
-0.027645
-0.086466
-0.090282
-0.100416
-0.094483
-0.005925
0.000196
-0.009350
-0.188977
-0.189488
-0.193805
-0.185055
-0.236844
-0.014817
0.004747
-0.183867
-0.046951
-0.044898
-0.049355
-0.186790
-0.197272
-0.200143
-0.173953
-0.181645
0.012224
0.008893
-0.178186
-0.182897
-0.175603
-0.026797
-0.020460
-0.028788
-0.019653
-0.169490
-0.176445
-0.182575
0.013427
0.010729
0.013628
0.017479
0.018553
-0.036418
-0.050018
-0.029583
-0.037668
-0.003940
-0.037853
-0.049173
-0.042228
0.010609
-0.047068
0.000999
0.004842
-0.046728
-0.056228
-0.054068
-0.143566
-0.150032
-0.148863
0.014502
0.010389
-0.023120
-0.221407
-0.237693
-0.032717
-0.017089
0.015821
-0.028306
0.002668
0.001064
-0.233426
-0.166399
-0.167937
-0.221413
-0.224630
0.011642
-0.030971
-0.033107
-0.131189
-0.132774
-0.137452
-0.135404
-0.227205
-0.234087
-0.011952
-0.007783
-0.011785
-0.158008
-0.160556
0.014575
-0.014735
-0.008301
-0.011232
-0.017639
-0.019481
-0.228091
-0.018582
-0.196869
-0.196127
-0.085047
-0.078110
-0.088794
-0.082073
-0.039615
-0.040144
-0.044474
-0.040703
-0.043942
-0.044179
-0.024965
-0.021073
-0.019994
-0.035162
-0.036691
-0.015022
-0.105217
-0.101072
-0.097915
-0.021342
-0.022659
-0.018554
-0.218106
-0.214145
-0.217160
-0.214099
-0.096285
-0.030858
-0.030879
-0.126769
-0.036737
-0.026555
-0.053693
-0.020085
-0.021279
-0.023030
-0.213000
-0.210428
-0.214803
-0.022479
-0.225836
-0.048590
-0.046499
-0.097850
-0.096356
-0.130755
-0.002814
-0.002895
-0.003265
-0.000493
-0.004610
-0.004940
0.011419
-0.031448
-0.016341
-0.013033
-0.017310
-0.034203
-0.203274
-0.203572
-0.126247
-0.019626
-0.128495
-0.014462
-0.025534
-0.037473
-0.034248
-0.171697
-0.169007
-0.167735
-0.166193
-0.169319
-0.048037
-0.052993
-0.052909
-0.048654
-0.129971
-0.032272
-0.156173
-0.156317
-0.093942
-0.091595
-0.096418
-0.111046
-0.106879
-0.112434
-0.113554
-0.207807
-0.105645
-0.153674
-0.155831
-0.152493
-0.098815
-0.180156
-0.182194
-0.218409
-0.045831
-0.049617
-0.049853
-0.155975
-0.151806
-0.157285
-0.154620
-0.207168
-0.003260
0.007546
-0.040992
-0.136966
-0.139077
-0.223689
-0.184250
-0.086413
-0.094046
-0.086854
-0.079093
-0.086108
-0.079492
-0.084232
-0.026080
-0.111370
-0.092183
-0.029193
-0.079615
-0.076632
-0.177005
-0.099076
-0.100419
-0.100260
-0.193834
-0.187935
-0.191206
-0.119194
-0.097116
-0.100489
-0.141483
-0.156179
-0.148258
-0.066766
-0.065083
-0.074958
-0.071263
-0.071655
-0.032834
-0.200494
-0.229849
-0.131164
-0.135093
-0.133675
-0.060899
-0.160839
-0.174058
-0.169842
0.007030
-0.199345
-0.118202
-0.115953
-0.009917
-0.144638
-0.153415
-0.145604
-0.066662
-0.062229
-0.050980
-0.146785
-0.150667
-0.218672
-0.053891
-0.049903
-0.050675
-0.046945
-0.164989
-0.162912
-0.197558
-0.202397
-0.199987
-0.198940
-0.125320
-0.122752
-0.123248
-0.079537
-0.073901
-0.142256
-0.136997
-0.134796
-0.220165
-0.217913
-0.091211
-0.099922
-0.097009
-0.107632
-0.045530
-0.044331
-0.051102
-0.058409
-0.059045
-0.054699
-0.144553
-0.149618
-0.146899
-0.146735
-0.172992
-0.178492
-0.175997
-0.175802
-0.179745
-0.018513
-0.062520
-0.062276
0.003118
-0.155705
-0.085569
-0.088555
-0.198055
-0.162200
-0.159176
-0.163630
-0.162271
-0.048401
-0.051850
-0.053279
-0.056881
-0.097345
-0.043399
-0.043548
-0.154467
-0.147092
-0.181247
-0.187047
-0.163484
-0.093015
-0.090155
-0.183532
-0.102359
-0.110730
-0.054322
-0.050472
-0.053371
-0.158199
-0.161519
-0.040977
-0.135750
-0.029552
-0.201208
-0.140366
-0.143936
-0.142218
-0.099244
-0.103348
-0.006058
-0.201651
0.013830
-0.009247
-0.229686
-0.197415
-0.164876
-0.160817
-0.117254
-0.177129
-0.182385
-0.127641
-0.118531
-0.223163
-0.163042
-0.158705
-0.064258
-0.062257
-0.067943
-0.156860
-0.115995
-0.112651
0.008926
-0.063040
-0.063279
-0.195636
-0.150486
-0.152828
-0.220976
-0.186503
-0.188237
-0.187440
-0.088987
-0.086260
0.006765
0.008164
-0.193104
-0.154234
-0.158345
-0.154540
-0.103043
-0.040903
-0.147882
-0.166239
-0.169096
-0.066609
-0.060536
-0.106236
-0.037128
-0.105500
-0.106696
-0.103260
-0.171969
-0.174295
-0.021450
-0.029619
-0.126150
-0.109491
-0.011145
-0.145023
-0.147727
-0.112472
-0.111920
-0.159276
-0.161658
-0.163000
-0.071320
-0.071683
-0.037354
-0.079134
0.018398
-0.226117
-0.215034
-0.060479
-0.057694
0.012859
-0.060442
-0.198519
-0.228586
0.012585
-0.019454
-0.024857
-0.236997
-0.015329
-0.010426
-0.060567
-0.214516
0.017682
-0.211166
-0.088876
-0.239097
-0.239337
-0.242274
-0.071296
-0.239903
0.005492
-0.039659
0.006984
-0.166847
-0.102604
-0.243423
-0.002808
-0.129676
-0.087289
-0.079463
-0.081485
-0.070909
-0.063783
-0.060170
-0.059536
-0.067784
-0.109070
-0.198531
-0.056599
-0.138253
-0.134201
-0.191728
-0.151331
-0.138821
-0.109850
-0.167195
-0.019946
-0.117449
-0.126652
-0.065465
-0.060433
-0.112822
-0.146326
-0.149507
-0.073691
-0.077172
-0.076086
-0.051414
-0.009745
-0.014708
-0.074248
-0.006133
-0.085906
-0.022083
-0.185010
-0.120550
-0.100683
-0.068087
-0.055258
-0.006378
-0.160922
0.008619
-0.174167
-0.062795
-0.008228
-0.012819
-0.007404
-0.026421
-0.207286
-0.014988
-0.221096
-0.218875
-0.154430
-0.091186
-0.206750
-0.208001
-0.058671
-0.065262
-0.025978
-0.033176
-0.007202
-0.228002
-0.076957
-0.081197
-0.099864
-0.122153
-0.054607
-0.131976
-0.133173
-0.153233
-0.213140
-0.083446
-0.125479
-0.129355
-0.011173
-0.132211
-0.136283
-0.133022
-0.084507
-0.170153
-0.183842
-0.146938
-0.005033
-0.080755
-0.043254
-0.030892
-0.204127
-0.075504
-0.079838
-0.189695
-0.069009
-0.065873
-0.067671
-0.083121
-0.085565
-0.191528
-0.193971
-0.195565
-0.076992
-0.080150
-0.080268
-0.090548
-0.088619
-0.093101
-0.164248
-0.176798
-0.115048
-0.160262
-0.195005
-0.191181
-0.130758
-0.112700
-0.166960
-0.097491
-0.115881
-0.128323
-0.168657
SCALARS UY float 1
LOOKUP_TABLE default
-0.000000
-0.000000
-0.609998
-0.610000
-0.298323
-0.434564
-0.000000
-0.000000
-0.000000
-0.000000
-0.000000
-0.000000
-0.000000
-0.000000
-0.000000
-0.000000
-0.000000
-0.000000
-0.048368
-0.090427
-0.128354
-0.162737
-0.193810
-0.221950
-0.247438
-0.270537
-0.291475
-0.310486
-0.327699
-0.343301
-0.357472
-0.370374
-0.382135
-0.392784
-0.402471
-0.411459
-0.419659
-0.427439
-0.442168
-0.451121
-0.461897
-0.475294
-0.491876
-0.512753
-0.538403
-0.569948
-0.610000
-0.610000
-0.610000
-0.610000
-0.610000
-0.610000
-0.610000
-0.610000
-0.610000
-0.610000
-0.610000
-0.610000
-0.564095
-0.524239
-0.489536
-0.459325
-0.433055
-0.410176
-0.390249
-0.372833
-0.357669
-0.344387
-0.332749
-0.322564
-0.313508
-0.305415
-0.290798
-0.283124
-0.274472
-0.264720
-0.253647
-0.241036
-0.226542
-0.209868
-0.190755
-0.168772
-0.143574
-0.114659
-0.081511
-0.043486
-0.300608
-0.302724
-0.304450
-0.306027
-0.307624
-0.309199
-0.310595
-0.311976
-0.313258
-0.314685
-0.316018
-0.317258
-0.318648
-0.319922
-0.321234
-0.322394
-0.323682
-0.324884
-0.326131
-0.327375
-0.328588
-0.329824
-0.331032
-0.332169
-0.333458
-0.334663
-0.335777
-0.336944
-0.338284
-0.339376
-0.340564
-0.341750
-0.342920
-0.344172
-0.345351
-0.346587
-0.347669
-0.348837
-0.350098
-0.351200
-0.352377
-0.353568
-0.354703
-0.355934
-0.357127
-0.358218
-0.359393
-0.360559
-0.361739
-0.362880
-0.364091
-0.365283
-0.366508
-0.367582
-0.368773
-0.369991
-0.371162
-0.372379
-0.373513
-0.374788
-0.375895
-0.377165
-0.378233
-0.379483
-0.380712
-0.381978
-0.383068
-0.384346
-0.385614
-0.386801
-0.388029
-0.389232
-0.390459
-0.391726
-0.393096
-0.394140
-0.395516
-0.396729
-0.398094
-0.399305
-0.400573
-0.401979
-0.403327
-0.404680
-0.405942
-0.407377
-0.408828
-0.410285
-0.411856
-0.413268
-0.414822
-0.416329
-0.417977
-0.419595
-0.421294
-0.422963
-0.424578
-0.426354
-0.428149
-0.430014
-0.432092
-0.369147
-0.356994
-0.362584
-0.352304
-0.466134
-0.465185
-0.451723
-0.483363
-0.567386
-0.546109
-0.536819
-0.422273
-0.422236
-0.428903
-0.477332
-0.461009
-0.478240
-0.402651
-0.404532
-0.410229
-0.367655
-0.358291
-0.365918
-0.420726
-0.409668
-0.423680
-0.362414
-0.362017
-0.368128
-0.333699
-0.330883
-0.337448
-0.394892
-0.399990
-0.401754
-0.409301
-0.348662
-0.358364
-0.353262
-0.423974
-0.428409
-0.422430
-0.414360
-0.415503
-0.391862