# vtk DataFile Version 2.0
Test
ASCII
DATASET POLYDATA
POINTS 1770 float
0.000000 0.000000 0.000000
1.000000 0.000000 0.000000
1.000000 1.000000 0.000000
0.000000 1.000000 0.000000
0.000000 0.500000 0.000000
1.000000 0.700000 0.000000
0.076923 0.000000 0.000000
0.153846 0.000000 0.000000
0.230769 0.000000 0.000000
0.307692 0.000000 0.000000
0.384615 0.000000 0.000000
0.461538 0.000000 0.000000
0.538462 0.000000 0.000000
0.615385 0.000000 0.000000
0.692308 0.000000 0.000000
0.769231 0.000000 0.000000
0.846154 0.000000 0.000000
0.923077 0.000000 0.000000
1.000000 0.075421 0.000000
1.000000 0.143732 0.000000
1.000000 0.205602 0.000000
1.000000 0.261640 0.000000
1.000000 0.312395 0.000000
1.000000 0.358364 0.000000
1.000000 0.400000 0.000000
1.000000 0.437711 0.000000
1.000000 0.471866 0.000000
1.000000 0.502801 0.000000
1.000000 0.530820 0.000000
1.000000 0.556197 0.000000
1.000000 0.579182 0.000000
1.000000 0.600000 0.000000
1.000000 0.618855 0.000000
1.000000 0.635933 0.000000
1.000000 0.651401 0.000000
1.000000 0.665410 0.000000
1.000000 0.678099 0.000000
1.000000 0.689591 0.000000
1.000000 0.711139 0.000000
1.000000 0.725174 0.000000
1.000000 0.742857 0.000000
1.000000 0.765136 0.000000
1.000000 0.793206 0.000000
1.000000 0.828571 0.000000
1.000000 0.873129 0.000000
1.000000 0.929269 0.000000
0.923077 1.000000 0.000000
0.846154 1.000000 0.000000
0.769231 1.000000 0.000000
0.692308 1.000000 0.000000
0.615385 1.000000 0.000000
0.538462 1.000000 0.000000
0.461538 1.000000 0.000000
0.384615 1.000000 0.000000
0.307692 1.000000 0.000000
0.230769 1.000000 0.000000
0.153846 1.000000 0.000000
0.076923 1.000000 0.000000
0.000000 0.926029 0.000000
0.000000 0.861633 0.000000
0.000000 0.805574 0.000000
0.000000 0.756771 0.000000
0.000000 0.714286 0.000000
0.000000 0.677300 0.000000
0.000000 0.645102 0.000000
0.000000 0.617073 0.000000
0.000000 0.592671 0.000000
0.000000 0.571429 0.000000
0.000000 0.552936 0.000000
0.000000 0.536837 0.000000
0.000000 0.522822 0.000000
0.000000 0.510621 0.000000
0.000000 0.489379 0.000000
0.000000 0.477178 0.000000
0.000000 0.463163 0.000000
0.000000 0.447064 0.000000
0.000000 0.428571 0.000000
0.000000 0.407329 0.000000
0.000000 0.382927 0.000000
0.000000 0.354898 0.000000
0.000000 0.322700 0.000000
0.000000 0.285714 0.000000
0.000000 0.243229 0.000000
0.000000 0.194426 0.000000
0.000000 0.138367 0.000000
0.000000 0.073971 0.000000
0.009804 0.501961 0.000000
0.019608 0.503922 0.000000
0.029412 0.505882 0.000000
0.039216 0.507843 0.000000
0.049020 0.509804 0.000000
0.058824 0.511765 0.000000
0.068627 0.513725 0.000000
0.078431 0.515686 0.000000
0.088235 0.517647 0.000000
0.098039 0.519608 0.000000
0.107843 0.521569 0.000000
0.117647 0.523529 0.000000
0.127451 0.525490 0.000000
0.137255 0.527451 0.000000
0.147059 0.529412 0.000000
0.156863 0.531373 0.000000
0.166667 0.533333 0.000000
0.176471 0.535294 0.000000
0.186275 0.537255 0.000000
0.196078 0.539216 0.000000
0.205882 0.541176 0.000000
0.215686 0.543137 0.000000
0.225490 0.545098 0.000000
0.235294 0.547059 0.000000
0.245098 0.549020 0.000000
0.254902 0.550980 0.000000
0.264706 0.552941 0.000000
0.274510 0.554902 0.000000
0.284314 0.556863 0.000000
0.294118 0.558824 0.000000
0.303922 0.560784 0.000000
0.313725 0.562745 0.000000
0.323529 0.564706 0.000000
0.333333 0.566667 0.000000
0.343137 0.568627 0.000000
0.352941 0.570588 0.000000
0.362745 0.572549 0.000000
0.372549 0.574510 0.000000
0.382353 0.576471 0.000000
0.392157 0.578431 0.000000
0.401961 0.580392 0.000000
0.411765 0.582353 0.000000
0.421569 0.584314 0.000000
0.431373 0.586275 0.000000
0.441176 0.588235 0.000000
0.450980 0.590196 0.000000
0.460784 0.592157 0.000000
0.470588 0.594118 0.000000
0.480392 0.596078 0.000000
0.490196 0.598039 0.000000
0.500000 0.600000 0.000000
0.509804 0.601961 0.000000
0.519608 0.603922 0.000000
0.529412 0.605882 0.000000
0.539216 0.607843 0.000000
0.549020 0.609804 0.000000
0.558824 0.611765 0.000000
0.568627 0.613725 0.000000
0.578431 0.615686 0.000000
0.588235 0.617647 0.000000
0.598039 0.619608 0.000000
0.607843 0.621569 0.000000
0.617647 0.623529 0.000000
0.627451 0.625490 0.000000
0.637255 0.627451 0.000000
0.647059 0.629412 0.000000
0.656863 0.631373 0.000000
0.666667 0.633333 0.000000
0.676471 0.635294 0.000000
0.686275 0.637255 0.000000
0.696078 0.639216 0.000000
0.705882 0.641176 0.000000
0.715686 0.643137 0.000000
0.725490 0.645098 0.000000
0.735294 0.647059 0.000000
0.745098 0.649020 0.000000
0.754902 0.650980 0.000000
0.764706 0.652941 0.000000
0.774510 0.654902 0.000000
0.784314 0.656863 0.000000
0.794118 0.658824 0.000000
0.803922 0.660784 0.000000
0.813725 0.662745 0.000000
0.823529 0.664706 0.000000
0.833333 0.666667 0.000000
0.843137 0.668627 0.000000
0.852941 0.670588 0.000000
0.862745 0.672549 0.000000
0.872549 0.674510 0.000000
0.882353 0.676471 0.000000
0.892157 0.678431 0.000000
0.901961 0.680392 0.000000
0.911765 0.682353 0.000000
0.921569 0.684314 0.000000
0.931373 0.686275 0.000000
0.941176 0.688235 0.000000
0.950980 0.690196 0.000000
0.960784 0.692157 0.000000
0.970588 0.694118 0.000000
0.980392 0.696078 0.000000
0.990196 0.698039 0.000000
0.113534 0.606152 0.000000
0.107142 0.586373 0.000000
0.121751 0.595256 0.000000
0.125314 0.578403 0.000000
0.608008 0.765681 0.000000
0.585349 0.764086 0.000000
0.591336 0.741952 0.000000
0.592072 0.793974 0.000000
0.550258 0.931017 0.000000
0.517159 0.896365 0.000000
0.557866 0.881366 0.000000
0.885592 0.689744 0.000000
0.900640 0.689195 0.000000
0.893881 0.699663 0.000000
0.791014 0.782870 0.000000
0.806073 0.755575 0.000000
0.814238 0.783906 0.000000
0.755950 0.661588 0.000000
0.766977 0.664624 0.000000
0.759150 0.673362 0.000000
0.237587 0.602856 0.000000
0.244276 0.587613 0.000000
0.255222 0.600052 0.000000
0.435458 0.690521 0.000000
0.445365 0.672382 0.000000
0.452783 0.695442 0.000000
0.434168 0.596027 0.000000
0.443497 0.595614 0.000000
0.440408 0.604928 0.000000
0.125631 0.548518 0.000000
0.136149 0.544058 0.000000
0.133888 0.554367 0.000000
0.684531 0.649457 0.000000
0.693022 0.657375 0.000000
0.680758 0.660164 0.000000
0.688513 0.672143 0.000000
0.209804 0.572062 0.000000
0.211391 0.587677 0.000000
0.198823 0.579466 0.000000
0.912173 0.691199 0.000000
0.919923 0.697571 0.000000
0.840788 0.691515 0.000000
0.836260 0.679067 0.000000
0.846581 0.680639 0.000000
0.610270 0.644163 0.000000
0.606363 0.631487 0.000000
0.618571 0.634947 0.000000
0.703833 0.664888 0.000000
0.705328 0.651574 0.000000
0.718551 0.657874 0.000000
0.476110 0.619965 0.000000
0.470756 0.606568 0.000000
0.483603 0.608681 0.000000
0.787587 0.718715 0.000000
0.799121 0.708516 0.000000
0.805593 0.724753 0.000000
0.545957 0.632159 0.000000
0.551865 0.620855 0.000000
0.557339 0.632078 0.000000
0.494856 0.610760 0.000000
0.503640 0.608636 0.000000
0.360926 0.590762 0.000000
0.373577 0.584863 0.000000
0.371469 0.597941 0.000000
0.331595 0.581327 0.000000
0.327955 0.573642 0.000000
0.337441 0.574864 0.000000
0.452770 0.600633 0.000000
0.450058 0.613037 0.000000
0.678157 0.643781 0.000000
0.204164 0.604889 0.000000
0.194170 0.595839 0.000000
0.640959 0.641938 0.000000
0.656321 0.640868 0.000000
0.651180 0.656559 0.000000
0.987799 0.705954 0.000000
0.990005 0.721233 0.000000
0.977245 0.712758 0.000000
0.974986 0.729512 0.000000
0.333802 0.812487 0.000000
0.361509 0.790617 0.000000
0.367317 0.828894 0.000000
0.604086 0.908536 0.000000
0.602873 0.861865 0.000000
0.486055 0.632060 0.000000
0.466853 0.635244 0.000000
0.541673 0.619743 0.000000
0.532472 0.631076 0.000000
0.541658 0.649026 0.000000
0.522313 0.819315 0.000000
0.510522 0.853722 0.000000
0.487163 0.814552 0.000000
0.308272 0.686111 0.000000
0.313305 0.664245 0.000000
0.331890 0.672844 0.000000
0.462242 0.618446 0.000000
0.459244 0.608252 0.000000
0.859980 0.693314 0.000000
0.849777 0.691819 0.000000
0.856777 0.681858 0.000000
0.942362 0.711719 0.000000
0.941048 0.728383 0.000000
0.931633 0.715819 0.000000
0.696422 0.925997 0.000000
0.743778 0.899483 0.000000
0.736714 0.951105 0.000000
0.710099 0.873175 0.000000
0.706855 0.827503 0.000000
0.748341 0.846430 0.000000
0.404569 0.612087 0.000000
0.400941 0.600304 0.000000
0.413129 0.601428 0.000000
0.739879 0.801859 0.000000
0.689244 0.763692 0.000000
0.711842 0.784429 0.000000
0.682971 0.800595 0.000000
0.849502 0.703362 0.000000
0.872437 0.693808 0.000000
0.880424 0.705421 0.000000
0.247911 0.613985 0.000000
0.230071 0.625013 0.000000
0.426705 0.605906 0.000000
0.417314 0.614950 0.000000
0.564489 0.781794 0.000000
0.542753 0.763395 0.000000
0.563888 0.747070 0.000000
0.540876 0.795125 0.000000
0.254442 0.628223 0.000000
0.675859 0.845039 0.000000
0.389585 0.604484 0.000000
0.382141 0.593934 0.000000
0.394023 0.590296 0.000000
0.210190 0.549067 0.000000
0.218913 0.550855 0.000000
0.211545 0.558654 0.000000
0.509032 0.731434 0.000000
0.480547 0.728234 0.000000
0.498097 0.707679 0.000000
0.408331 0.625772 0.000000
0.737928 0.766371 0.000000
0.713411 0.751924 0.000000
0.236129 0.559953 0.000000
0.247527 0.565947 0.000000
0.238129 0.573668 0.000000
0.277601 0.586118 0.000000
0.273407 0.573379 0.000000
0.286542 0.574133 0.000000
0.695186 0.646009 0.000000
0.128809 0.536590 0.000000
0.385032 0.584469 0.000000
0.959668 0.883416 0.000000
0.604963 0.829728 0.000000
0.627628 0.795445 0.000000
0.636557 0.838109 0.000000
0.226927 0.903063 0.000000
0.196567 0.877414 0.000000
0.253614 0.858563 0.000000
0.488755 0.686131 0.000000
0.474772 0.701653 0.000000
0.208074 0.832028 0.000000
0.596571 0.714257 0.000000
0.619682 0.736143 0.000000
0.620249 0.709238 0.000000
0.426920 0.878300 0.000000
0.456147 0.845659 0.000000
0.471012 0.891685 0.000000
0.607192 0.695818 0.000000
0.525672 0.709461 0.000000
0.509369 0.690109 0.000000
0.535964 0.736172 0.000000
0.737088 0.738406 0.000000
0.716812 0.727414 0.000000
0.735580 0.717065 0.000000
0.717714 0.708748 0.000000
0.733899 0.701419 0.000000
0.434815 0.713754 0.000000
0.456218 0.743004 0.000000
0.415116 0.743197 0.000000
0.459688 0.716033 0.000000
0.441105 0.768871 0.000000
[...]
POINT_DATA 1770
SCALARS UX float 1
LOOKUP_TABLE default
-0.202670
0.000000
0.000000
-0.216533
-0.209344
0.011521
-0.186157
-0.169595
-0.153032
-0.136528
-0.120140
-0.103896
-0.087817
-0.071904
-0.056290
-0.040954
-0.026036
-0.012399
0.007475
0.010388
0.012053
0.013094
0.013981
0.014698
0.015301
0.015842
0.016339
0.016802
0.017228
0.017625
0.017978
0.018296
0.018548
0.018697
0.018648
0.018093
0.017100
0.014699
0.008489
0.006520
0.005504
0.005440
0.005883
0.006817
0.007941
0.009007
-0.000001
-0.021434
-0.041393
-0.060141
-0.078330
-0.096123
-0.113675
-0.131020
-0.148213
-0.165349
-0.182401
-0.199445
-0.215668
-0.215115
-0.214859
-0.214804
-0.214863
-0.214991
-0.215157
-0.215323
-0.215459
-0.215529
-0.215442
-0.214983
-0.213822
-0.211850
-0.205265
-0.203486
-0.202623
-0.202183
-0.202066
-0.202165
-0.202305
-0.202518
-0.202753
-0.202995
-0.203236
-0.203409
-0.203476
-0.203292
-0.207108
-0.204894
-0.202670
-0.200464
-0.198271
-0.196088
-0.193924
-0.191748
-0.189529
-0.187327
-0.185144
-0.182971
-0.180783
-0.178617
-0.176439
-0.174261
-0.172012
-0.169758
-0.167548
-0.165384
-0.163240
-0.161085
-0.158927
-0.156755
-0.154569
-0.152374
-0.150285
-0.148122
-0.145944
-0.143816
-0.141671
-0.139539
-0.137403
-0.135270
-0.133184
-0.131119
-0.129003
-0.126888
-0.124741
-0.122610
-0.120447
-0.118296
-0.116142
-0.113979
-0.111812
-0.109651
-0.107480
-0.105318
-0.103134
-0.100956
-0.098860
-0.096746
-0.094605
-0.092469
-0.090322
-0.088166
-0.086024
-0.083879
-0.081761
-0.079613
-0.077482
-0.075304
-0.073197
-0.071067
-0.068929
-0.066780
-0.064628
-0.062475
-0.060322
-0.058186
-0.055964
-0.053812
-0.051657
-0.049483
-0.047323
-0.045137
-0.042911
-0.040689
-0.038510
-0.036335
-0.034132
-0.031929
-0.029768
-0.027620
-0.025498
-0.023340
-0.021190
-0.019061
-0.016913
-0.014785
-0.012627
-0.010483
-0.008395
-0.006318
-0.004118
-0.001931
0.000249
0.002459
0.004682
0.006954
0.009207
-0.190127
-0.191484
-0.188268
-0.187321
-0.080439
-0.085460
-0.084345
-0.083677
-0.092628
-0.100044
-0.090783
-0.017590
-0.013404
-0.016854
-0.040029
-0.037227
-0.034959
-0.045307
-0.043118
-0.046452
-0.162486
-0.160633
-0.158490
-0.118956
-0.116805
-0.115123
-0.115657
-0.113098
-0.115615
-0.185672
-0.182434
-0.184252
-0.061374
-0.060473
-0.063734
-0.062846
-0.167749
-0.168113
-0.170711
-0.010725
-0.010042
-0.028876
-0.028163
-0.025816
-0.079057
-0.078220
-0.075740
-0.058693
-0.056460
-0.054270
-0.108724
-0.108332
-0.105450
-0.041611
-0.038986
-0.037673
-0.093325
-0.090210
-0.090566
-0.102958
-0.100171
-0.133352
-0.129107
-0.131665
-0.139224
-0.138635
-0.136388
-0.111778
-0.114315
-0.061888
-0.169975
-0.172131
-0.071231
-0.067105
-0.070495
0.006211
0.004437
0.002298
0.000113
-0.141036
-0.134914
-0.133585
-0.080244
-0.080660
-0.107238
-0.111723
-0.092627
-0.096419
-0.095210
-0.099016
-0.101539
-0.106892
-0.146995
-0.145936
-0.141830
-0.111889
-0.111392
-0.024373
-0.026711
-0.023411
-0.006354
-0.007688
-0.009193
-0.058837
-0.048175
-0.049360
-0.056234
-0.057725
-0.048146
-0.124982
-0.124685
-0.121850
-0.050883
-0.062591
-0.057332
-0.063444
-0.027616
-0.021362
-0.020677
-0.160278
-0.164328
-0.119093
-0.122213
-0.089912
-0.094879
-0.090348
-0.095048
-0.158932
-0.064367
-0.128000
-0.128404
-0.124925
-0.164208
-0.162272
-0.165903
-0.102552
-0.108853
-0.105094
-0.124636
-0.051896
-0.057454
-0.159839
-0.157899
-0.161248
-0.152947
-0.152639
-0.149481
-0.057903
-0.183093
-0.126017
-0.000213
-0.080442
-0.075766
-0.073284
-0.165111
-0.171641
-0.158900
-0.107229
-0.110258
-0.168890
-0.083401
-0.078165
-0.078233
-0.120339
-0.113752
-0.110472
-0.081135
-0.099015
-0.102678
-0.096584
-0.052454
-0.056979
-0.052949
-0.056888
-0.053327
-0.119011
-0.114142
-0.123221
-0.113514
-0.117348
-0.193064
-0.191053
-0.189173
-0.091217
-0.088965
-0.086483
-0.191591
-0.194187
0.000593
-0.004277
-0.004547
0.001283
-0.131271
-0.131468
-0.136648
-0.135820
-0.044514
-0.041390
-0.002160
-0.004603
-0.174361
-0.189860
-0.183964
-0.199893
-0.201176
-0.197784
-0.198281
-0.203510
-0.017903
-0.021170
-0.103507
-0.100966
-0.105135
-0.099365
0.001389
-0.048262
-0.044251
-0.044932
-0.101804
-0.161364
-0.090079
-0.124250
-0.133409
-0.153908
-0.212105
-0.212394
-0.127097
-0.006863
-0.008270
-0.160390
-0.147676
-0.144614
-0.153085
-0.154189
-0.130108
-0.138477
-0.007646
-0.015061
-0.008680
-0.013901
-0.064404
-0.206207
-0.202593
-0.198212
-0.197189
-0.069374
-0.208215
-0.206940
-0.203087
-0.202020
-0.208547
-0.191519
-0.201939
-0.069231
-0.069389
-0.199724
-0.066353
-0.067200
-0.098633
-0.099891
-0.211164
-0.097754
-0.209898
-0.202902
-0.011381
-0.014113
-0.014935
-0.071130
-0.193264
-0.204995
-0.165772
-0.039497
-0.011599
-0.014014
-0.196705
-0.198994
-0.022836
-0.017379
-0.030221
-0.202425
-0.009352
-0.009706
-0.105597
-0.109306
-0.190711
-0.186497
-0.000849
-0.184278
-0.188205
-0.184070
-0.187807
-0.184026
-0.161172
-0.167755
-0.160503
-0.195851
-0.197949
-0.201230
-0.169059
-0.029907
-0.083608
-0.196779
-0.199579
-0.051696
-0.049479
-0.080792
-0.076841
-0.077651
-0.152762
-0.147795
-0.150489
-0.149654
-0.067983
-0.072088
-0.070034
-0.069671
-0.019489
-0.022496
-0.025390
-0.202545
-0.039517
-0.024539
-0.028795
-0.026641
-0.029005
-0.026234
-0.040641
-0.043998
-0.033520
-0.031992
-0.030264
-0.123611
-0.121263
-0.120294
-0.048897
-0.032529
-0.035358
-0.045492
-0.084502
-0.082311
-0.048975
-0.112352
-0.194088
-0.198234
-0.195051
-0.140664
-0.137803
-0.140409
-0.042459
-0.046085
-0.047075
-0.137301
-0.133032
-0.130603
-0.134224
-0.130069
-0.127079
-0.017911
-0.124724
-0.201722
-0.189156
-0.115807
-0.115185
-0.126665
-0.188392
-0.186307
-0.117932
-0.181074
-0.175562
-0.176879
-0.178517
-0.118262
-0.041365
-0.061945
-0.039666
-0.169694
-0.173382
-0.171779
-0.065357
-0.060979
-0.066893
-0.017090
-0.021076
-0.018318
-0.176616
-0.179755
-0.064119
-0.060141
-0.062691
-0.066346
-0.185276
-0.101368
-0.174285
-0.172515
-0.170325
-0.173793
-0.110614
-0.181388
-0.178429
-0.178737
-0.106403
-0.122387
-0.125676
-0.166492
-0.169406
-0.081294
-0.081099
-0.084315
-0.175843
-0.121585
-0.072286
-0.075189
-0.176222
-0.177829
-0.180084
-0.180960
-0.094310
-0.098529
-0.177889
-0.173975
-0.121784
-0.135533
-0.134469
-0.134489
-0.137540
-0.118013
-0.140598
-0.141658
-0.128485
-0.164996
-0.162144
-0.051281
-0.054435
-0.083458
-0.108937
-0.105933
-0.142513
-0.145311
-0.146776
-0.143384
-0.144197
-0.056830
-0.056030
-0.066831
-0.069864
-0.204475
-0.064252
-0.163372
-0.104378
-0.187508
-0.183908
-0.189884
-0.190566
-0.192827
-0.188376
-0.186906
-0.195739
-0.194658
-0.034838
-0.032167
-0.035082
-0.181406
-0.095877
-0.103282
-0.037449
-0.154409
-0.150806
-0.154181
-0.150587
-0.156935
-0.156252
-0.038348
-0.150377
-0.141037
-0.146800
-0.152606
-0.178991
-0.081811
-0.077165
-0.036164
-0.165374
-0.160570
-0.166651
-0.171265
-0.196976
-0.170767
-0.100274
-0.101757
-0.098493
-0.146667
-0.145540
-0.135128
-0.137369
-0.131930
-0.024300
-0.023558
-0.138212
-0.142040
-0.176181
-0.173539
-0.073912
-0.074318
-0.164247
-0.052762
-0.087494
-0.087624
-0.150964
-0.153693
-0.059771
-0.142434
-0.148684
-0.205756
-0.157960
-0.158543
-0.155764
-0.094674
-0.090838
-0.085676
-0.155934
-0.135188
-0.092450
-0.193513
-0.190242
-0.107951
-0.130846
-0.164233
-0.117555
-0.147608
-0.155981
-0.131154
-0.161519
-0.158176
-0.180078
-0.192071
-0.204416
-0.206556
-0.100393
-0.195980
-0.123090
-0.074270
-0.185393
-0.192457
-0.211351
-0.013012
-0.197797
-0.011965
-0.088851
-0.211106
-0.208922
-0.208558
-0.205627
-0.211648
-0.204125
-0.205194
-0.207505
-0.208895
-0.207939
-0.092925
-0.084539
-0.141384
-0.144610
-0.203792
-0.002796
-0.154050
-0.209728
-0.209099
-0.143513
-0.208164
-0.003919
-0.167765
-0.000620
-0.184077
-0.047236
-0.211754
0.004021
0.001148
-0.144314
-0.030514
-0.033628
-0.032407
-0.181045
-0.184781
-0.112119
-0.147404
-0.149606
-0.173147
-0.177306
-0.088354
-0.105696
-0.073042
-0.075064
-0.176155
-0.178923
-0.041622
-0.191997
-0.184762
-0.095952
-0.181234
-0.186117
-0.154332
-0.073385
-0.168771
-0.121917
-0.087484
-0.021181
-0.018728
-0.173012
-0.029700
-0.143291
-0.147249
-0.084986
-0.119599
-0.040813
-0.156196
-0.139362
-0.157080
-0.130162
-0.050598
-0.149247
-0.074135
-0.092661
-0.168411
-0.171227
-0.172629
-0.167574
-0.068952
-0.072250
-0.071543
-0.071273
-0.090981
-0.091353
-0.093485
-0.096469
-0.091797
-0.104345
-0.175696
-0.173536
-0.096693
-0.198189
-0.197522
-0.002202
-0.008442
-0.003140
-0.192754
-0.193768
-0.008141
-0.111032
-0.125382
0.007728
0.005378
0.010923
0.005369
-0.011202
-0.010178
-0.013213
-0.007944
-0.137575
-0.138839
-0.134916
-0.134552
-0.095655
-0.090979
-0.095198
-0.092986
-0.175383
-0.172889
-0.171749
-0.171304
-0.164193
-0.164787
-0.107643
-0.110289
-0.106453
0.002873
-0.174652
-0.171016
-0.174173
-0.172753
-0.167820
-0.162045
-0.163892
-0.158592
-0.089129
-0.091342
-0.087763
-0.074714
-0.073319
-0.048304
-0.049938
-0.044055
-0.052999
-0.031621
-0.029855
-0.034038
-0.026120
-0.074087
-0.114320
-0.116575
-0.117452
0.000354
0.000660
-0.002280
-0.118869
-0.121238
-0.118438
-0.119986
-0.189563
-0.188512
-0.186459
-0.155798
-0.157471
-0.159545
-0.112890
-0.116000
-0.032495
-0.031086
-0.028777
-0.071864
-0.068696
-0.068772
-0.065964
-0.048176
-0.044634
-0.105314
-0.106815
-0.109076
-0.096606
-0.098186
-0.095350
-0.047636
-0.044853
-0.048608
-0.099384
-0.102238
-0.103321
-0.100000
-0.152455
-0.149463
-0.151747
-0.148988
-0.155436
-0.153512
-0.156346
-0.086093
-0.086156
-0.090417
-0.069780
-0.064715
-0.063714
-0.087323
-0.152530
-0.155098
-0.150764
-0.062051
-0.062518
-0.064820
-0.061846
-0.062153
-0.058819
-0.143610
-0.143824
-0.147517
-0.060344
-0.044671
-0.052657
-0.048100
-0.049783
-0.157557
-0.158137
-0.113916
-0.116457
-0.113864
-0.076624
-0.079622
-0.078771
-0.079749
-0.195609
-0.197270
-0.194209
-0.196344
-0.054272
-0.055218
-0.057577
-0.069264
-0.071529
0.011338
0.012963
0.014677
0.009442
-0.136070
-0.130030
-0.139783
-0.057725
0.001149
-0.003936
-0.096056
-0.092598
-0.127921
-0.124446
-0.126427
-0.056503
-0.055540
-0.059709
-0.066241
0.005268
0.003740
0.001086
0.000114
-0.126207
-0.028580
-0.026216
-0.026439
-0.063236
-0.061100
-0.063864
-0.157537
-0.154678
-0.080498
-0.084012
-0.081857
-0.100262
-0.097750
-0.101030
-0.136682
-0.130820
-0.176303
-0.179520
-0.177214
-0.181228
-0.127392
-0.129304
-0.130870
-0.056708
-0.076894
-0.077231
-0.000741
0.002922
0.002057
-0.189544
-0.183999
-0.188554
-0.183354
-0.001613
-0.002882
-0.014338
-0.024327
-0.013226
-0.020589
-0.143349
-0.143539
-0.146322
-0.140659
-0.107845
-0.081124
-0.077205
-0.081474
-0.116674
-0.100422
-0.089561
-0.086087
-0.087342
0.014162
0.015865
-0.023679
-0.021451
-0.025701
-0.019456
-0.020067
-0.034096
-0.030393
-0.119301
-0.117819
-0.127103
-0.158371
-0.155112
-0.151004
-0.170596
-0.180496
-0.180371
-0.177546
-0.183186
-0.178504
-0.172174
-0.177790
-0.166227
-0.193689
-0.194012
-0.058850
-0.061934
-0.066888
-0.052528
-0.148561
-0.144658
-0.055279
-0.137514
-0.147558
-0.193673
-0.190964
-0.075416
-0.191933
-0.001001
-0.004689
-0.099201
-0.099520
-0.104993
-0.105388
-0.195871
-0.012292
-0.009373
-0.013264
-0.011728
-0.008942
-0.035775
-0.030491
-0.039806
-0.120501
-0.119151
-0.118985
-0.159603
-0.162560
-0.162272
-0.016427
-0.019745
-0.019181
-0.001434
-0.194619
-0.190988
-0.194727
0.007804
0.005502
0.002991
0.012718
-0.190961
-0.188132
-0.169760
-0.167237
-0.168529
-0.185138
-0.187688
-0.186488
-0.184873
-0.182891
-0.000011
-0.185788
0.011758
0.010564
0.007696
-0.117675
-0.119379
-0.122629
-0.174044
-0.178934
-0.173386
-0.178573
-0.178726
-0.036448
-0.028328
-0.099092
-0.105591
-0.094445
-0.088705
-0.098853
-0.091918
-0.192689
0.004852
0.006970
0.003715
0.007205
-0.034188
-0.032457
-0.031245
-0.033109
-0.030605
-0.004901
-0.005598
-0.103456
-0.035820
-0.198372
-0.158735
-0.156997
-0.037390
-0.035957
-0.143709
-0.007110
-0.012729
-0.055851
-0.061051
-0.058794
-0.058122
-0.078192
-0.019912
-0.022640
-0.023276
-0.009219
-0.012517
-0.023938
-0.020927
-0.027153
-0.039281
-0.176174
-0.177442
0.007436
0.003430
0.010360
0.002826
-0.000320
-0.079351
-0.002816
-0.005894
-0.006178
-0.104129
-0.101785
-0.024257
-0.021909
-0.023276
-0.072842
-0.075998
-0.084499
-0.079629
-0.005341
-0.000263
-0.008219
-0.158352
-0.158773
-0.162386
-0.155068
-0.198303
-0.012762
0.003875
-0.154083
-0.039312
-0.037594
-0.041339
-0.156644
-0.165372
-0.167840
-0.145825
-0.152251
0.010048
0.007310
-0.149336
-0.153280
-0.147185
-0.022820
-0.017511
-0.024456
-0.016814
-0.142083
-0.147899
-0.153018
0.010940
0.008686
0.011085
0.014275
0.015183
-0.030929
-0.042304
-0.025098
-0.031866
-0.003772
-0.032049
-0.041521
-0.035732
0.008412
-0.039800
0.000570
0.003775
-0.039453
-0.047404
-0.045576
-0.120392
-0.125797
-0.124829
0.011853
0.008434
-0.019683
-0.185281
-0.198973
-0.027782
-0.014716
0.012884
-0.023884
0.002120
0.000795
-0.195294
-0.139435
-0.140739
-0.185278
-0.187975
0.009520
-0.026009
-0.027756
-0.110038
-0.111376
-0.115279
-0.113557
-0.190299
-0.196034
-0.010079
-0.006609
-0.009925
-0.132458
-0.134579
0.011957
-0.012390
-0.007080
-0.009509
-0.014918
-0.016398
-0.190849
-0.015618
-0.164885
-0.164300
-0.071583
-0.065756
-0.074682
-0.069042
-0.033391
-0.033821
-0.037449
-0.034274
-0.036969
-0.037185
-0.021155
-0.017917
-0.017001
-0.029664
-0.030928
-0.012860
-0.088317
-0.084859
-0.082207
-0.017920
-0.019011
-0.015584
-0.182567
-0.179288
-0.181742
-0.179302
-0.080857
-0.026094
-0.026096
-0.106400
-0.030780
-0.022494
-0.045357
-0.016978
-0.017921
-0.019401
-0.178430
-0.176275
-0.179930
-0.018864
-0.188972
-0.040707
-0.039020
-0.082303
-0.081022
-0.109663
-0.002617
-0.002663
-0.002940
-0.000649
-0.003981
-0.004293
0.009215
-0.026366
-0.013880
-0.011133
-0.014539
-0.028810
-0.170115
-0.170380
-0.105830
-0.016658
-0.107762
-0.012185
-0.021654
-0.031561
-0.028874
-0.143912
-0.141657
-0.140606
-0.139340
-0.141966
-0.040391
-0.044515
-0.044475
-0.040932
-0.109135
-0.027236
-0.130857
-0.130947
-0.078836
-0.076857
-0.080884
-0.093195
-0.089721
-0.094376
-0.095301
-0.174072
-0.088704
-0.128849
-0.130645
-0.127846
-0.082909
-0.150785
-0.152517
-0.182916
-0.038517
-0.041642
-0.041878
-0.130750
-0.127259
-0.131836
-0.129502
-0.173547
-0.003167
0.005825
-0.034492
-0.114853
-0.116604
-0.187322
-0.154206
-0.072622
-0.079013
-0.073013
-0.066492
-0.072348
-0.066809
-0.070764
-0.021931
-0.093454
-0.077436
-0.024676
-0.067145
-0.064699
-0.148727
-0.083206
-0.084212
-0.084102
-0.162419
-0.157489
-0.160184
-0.100022
-0.081434
-0.084238
-0.118663
-0.130952
-0.124335
-0.056235
-0.054809
-0.063072
-0.059955
-0.060339
-0.027515
-0.167814
-0.192564
-0.109982
-0.113263
-0.112092
-0.051426
-0.134897
-0.145877
-0.142344
0.005615
-0.166838
-0.099149
-0.097251
-0.008595
-0.121358
-0.128683
-0.122145
-0.056090
-0.052403
-0.042676
-0.122967
-0.126159
-0.183158
-0.045313
-0.041989
-0.042648
-0.039527
-0.138284
-0.136537
-0.165518
-0.169563
-0.167557
-0.166664
-0.105030
-0.102907
-0.103257
-0.066881
-0.062139
-0.119322
-0.114939
-0.113081
-0.184457
-0.182608
-0.076680
-0.083976
-0.081513
-0.090400
-0.038429
-0.037403
-0.043053
-0.049077
-0.049628
-0.046004
-0.121181
-0.125413
-0.123154
-0.122985
-0.144964
-0.149560
-0.147488
-0.147291
-0.150630
-0.015749
-0.052328
-0.052140
0.002119
-0.130577
-0.071849
-0.074370
-0.165832
-0.136014
-0.133384
-0.137098
-0.135983
-0.040778
-0.043652
-0.044861
-0.047861
-0.081586
-0.036607
-0.036716
-0.129530
-0.123373
-0.151876
-0.156724
-0.137058
-0.078017
-0.075604
-0.153775
-0.085970
-0.092968
-0.045484
-0.042297
-0.044789
-0.132397
-0.135177
-0.034323
-0.113925
-0.024803
-0.168585
-0.117648
-0.120623
-0.119213
-0.083072
-0.086482
-0.005272
-0.168772
0.011408
-0.007899
-0.192752
-0.165255
-0.137988
-0.134610
-0.098140
-0.148248
-0.152660
-0.106911
-0.099484
-0.186945
-0.136480
-0.132897
-0.053825
-0.052207
-0.056886
-0.131312
-0.097071
-0.094316
0.007167
-0.052963
-0.053135
-0.163750
-0.125944
-0.127910
-0.185113
-0.156107
-0.157686
-0.157039
-0.074658
-0.072356
0.005145
0.006311
-0.161787
-0.129276
-0.132709
-0.129515
-0.086350
-0.034271
-0.123818
-0.139251
-0.141624
-0.055961
-0.050889
-0.088899
-0.031374
-0.088302
-0.089332
-0.086485
-0.144007
-0.145961
-0.018269
-0.025092
-0.105847
-0.091673
-0.009405
-0.121409
-0.123647
-0.094226
-0.093806
-0.133422
-0.135375
-0.136532
-0.059700
-0.060038
-0.031582
-0.066232
0.015095
-0.189599
-0.180497
-0.050679
-0.048416
0.010627
-0.050742
-0.166684
-0.191553
0.010201
-0.016630
-0.021209
-0.198286
-0.013266
-0.009110
-0.050711
-0.179831
0.014477
-0.177131
-0.074601
-0.200077
-0.200235
-0.202675
-0.059893
-0.200703
0.004231
-0.033272
0.005733
-0.139706
-0.085882
-0.203635
-0.002691
-0.108683
-0.073184
-0.066743
-0.068424
-0.059335
-0.053384
-0.050379
-0.050333
-0.057225
-0.091453
-0.166155
-0.047542
-0.115859
-0.112469
-0.160510
-0.126820
-0.116375
-0.092018
-0.139931
-0.016995
-0.098596
-0.106282
-0.055021
-0.050819
-0.094614
-0.122469
-0.125116
-0.061912
-0.064813
-0.063889
-0.043059
-0.008388
-0.012652
-0.062613
-0.005370
-0.072101
-0.018935
-0.155259
-0.100892
-0.084364
-0.056974
-0.046718
-0.005597
-0.134925
0.006895
-0.145809
-0.052811
-0.007326
-0.011133
-0.006466
-0.022409
-0.173656
-0.012846
-0.185201
-0.183351
-0.129261
-0.076584
-0.173306
-0.174310
-0.049376
-0.054864
-0.021792
-0.027811
-0.006119
-0.190959
-0.064599
-0.068152
-0.083645
-0.102297
-0.045944
-0.110626
-0.111438
-0.128309
-0.178580
-0.069981
-0.105008
-0.108283
-0.009790
-0.110680
-0.114235
-0.111448
-0.070946
-0.142411
-0.153872
-0.122964
-0.004306
-0.067799
-0.036224
-0.026173
-0.171020
-0.063204
-0.066810
-0.158930
-0.057994
-0.055147
-0.056650
-0.069739
-0.071800
-0.160296
-0.162353
-0.163687
-0.064591
-0.067216
-0.067347
-0.075771
-0.074153
-0.077929
-0.137522
-0.148006
-0.096341
-0.134270
-0.163199
-0.160104
-0.109534
-0.094325
-0.139748
-0.081661
-0.097174
-0.107517
-0.141176
SCALARS UY float 1
LOOKUP_TABLE default
-0.000000
-0.000000
-0.509999
-0.510000
-0.250031
-0.362777
-0.000000
-0.000000
-0.000000
-0.000000
-0.000000
-0.000000
-0.000000
-0.000000
-0.000000
-0.000000
-0.000000
-0.000000
-0.040323
-0.075409
-0.107067
-0.135748
-0.161689
-0.185188
-0.206475
-0.225770
-0.243263
-0.259141
-0.273522
-0.286558
-0.298399
-0.309174
-0.318992
-0.327885
-0.335975
-0.343471
-0.350313
-0.356813
-0.369151
-0.376635
-0.385651
-0.396868
-0.410787
-0.428310
-0.449871
-0.476357
-0.510000
-0.510000
-0.510000
-0.510000
-0.510000
-0.510000
-0.510000
-0.510000
-0.510000
-0.510000
-0.510000
-0.510000
-0.471734
-0.438495
-0.409553
-0.384355
-0.362437
-0.343346
-0.326716
-0.312190
-0.299537
-0.288457
-0.278751
-0.270258
-0.262709
-0.255957
-0.243722
-0.237318
-0.230100
-0.221955
-0.212696
-0.202137
-0.190001
-0.176039
-0.160028
-0.141614
-0.120496
-0.096253
-0.068447
-0.036538
-0.251823
-0.253505
-0.254877
-0.256142
-0.257434
-0.258719
-0.259858
-0.260990
-0.262037
-0.263217
-0.264318
-0.265340
-0.266498
-0.267556
-0.268645
-0.269609
-0.270684
-0.271683
-0.272722
-0.273764
-0.274779
-0.275814
-0.276822
-0.277772
-0.278855
-0.279862
-0.280793
-0.281769
-0.282899
-0.283808
-0.284806
-0.285800
-0.286779
-0.287832
-0.288820
-0.289859
-0.290760
-0.291740
-0.292801
-0.293721
-0.294707
-0.295705
-0.296653
-0.297687
-0.298689
-0.299600
-0.300586
-0.301563
-0.302551
-0.303505
-0.304523
-0.305522
-0.306551
-0.307448
-0.308448
-0.309471
-0.310452
-0.311474
-0.312420
-0.313492
-0.314419
-0.315486
-0.316379
-0.317430
-0.318460
-0.319525
-0.320433
-0.321506
-0.322571
-0.323565
-0.324593
-0.325599
-0.326625
-0.327686
-0.328839
-0.329704
-0.330861
-0.331873
-0.333017
-0.334024
-0.335081
-0.336254
-0.337381
-0.338515
-0.339561
-0.340753
-0.341956
-0.343157
-0.344457
-0.345612
-0.346888
-0.348112
-0.349457
-0.350773
-0.352148
-0.353498
-0.354801
-0.356237
-0.357679
-0.359169
-0.360819
-0.308742
-0.298584
-0.303246
-0.294646
-0.389868
-0.389074
-0.377815
-0.404276
-0.474466
-0.456708
-0.448955
-0.353149
-0.353065
-0.358662
-0.399214
-0.385576
-0.399977
-0.336837
-0.338405
-0.343166
-0.307462
-0.299632
-0.306011
-0.351880
-0.342630
-0.354352
-0.303120
-0.302788
-0.307901
-0.279099
-0.276736
-0.282225
-0.330338
-0.334601
-0.336068
-0.342371
-0.291583
-0.299691
-0.295425
-0.354479
-0.358157
-0.353346
-0.346611
-0.347557