# vtk DataFile Version 2.0
Test
ASCII
DATASET POLYDATA
POINTS 1770 float
0.000000 0.000000 0.000000
1.000000 0.000000 0.000000
1.000000 1.000000 0.000000
0.000000 1.000000 0.000000
0.000000 0.500000 0.000000
1.000000 0.700000 0.000000
0.076923 0.000000 0.000000
0.153846 0.000000 0.000000
0.230769 0.000000 0.000000
0.307692 0.000000 0.000000
0.384615 0.000000 0.000000
0.461538 0.000000 0.000000
0.538462 0.000000 0.000000
0.615385 0.000000 0.000000
0.692308 0.000000 0.000000
0.769231 0.000000 0.000000
0.846154 0.000000 0.000000
0.923077 0.000000 0.000000
1.000000 0.075421 0.000000
1.000000 0.143732 0.000000
1.000000 0.205602 0.000000
1.000000 0.261640 0.000000
1.000000 0.312395 0.000000
1.000000 0.358364 0.000000
1.000000 0.400000 0.000000
1.000000 0.437711 0.000000
1.000000 0.471866 0.000000
1.000000 0.502801 0.000000
1.000000 0.530820 0.000000
1.000000 0.556197 0.000000
1.000000 0.579182 0.000000
1.000000 0.600000 0.000000
1.000000 0.618855 0.000000
1.000000 0.635933 0.000000
1.000000 0.651401 0.000000
1.000000 0.665410 0.000000
1.000000 0.678099 0.000000
1.000000 0.689591 0.000000
1.000000 0.711139 0.000000
1.000000 0.725174 0.000000
1.000000 0.742857 0.000000
1.000000 0.765136 0.000000
1.000000 0.793206 0.000000
1.000000 0.828571 0.000000
1.000000 0.873129 0.000000
1.000000 0.929269 0.000000
0.923077 1.000000 0.000000
0.846154 1.000000 0.000000
0.769231 1.000000 0.000000
0.692308 1.000000 0.000000
0.615385 1.000000 0.000000
0.538462 1.000000 0.000000
0.461538 1.000000 0.000000
0.384615 1.000000 0.000000
0.307692 1.000000 0.000000
0.230769 1.000000 0.000000
0.153846 1.000000 0.000000
0.076923 1.000000 0.000000
0.000000 0.926029 0.000000
0.000000 0.861633 0.000000
0.000000 0.805574 0.000000
0.000000 0.756771 0.000000
0.000000 0.714286 0.000000
0.000000 0.677300 0.000000
0.000000 0.645102 0.000000
0.000000 0.617073 0.000000
0.000000 0.592671 0.000000
0.000000 0.571429 0.000000
0.000000 0.552936 0.000000
0.000000 0.536837 0.000000
0.000000 0.522822 0.000000
0.000000 0.510621 0.000000
0.000000 0.489379 0.000000
0.000000 0.477178 0.000000
0.000000 0.463163 0.000000
0.000000 0.447064 0.000000
0.000000 0.428571 0.000000
0.000000 0.407329 0.000000
0.000000 0.382927 0.000000
0.000000 0.354898 0.000000
0.000000 0.322700 0.000000
0.000000 0.285714 0.000000
0.000000 0.243229 0.000000
0.000000 0.194426 0.000000
0.000000 0.138367 0.000000
0.000000 0.073971 0.000000
0.009804 0.501961 0.000000
0.019608 0.503922 0.000000
0.029412 0.505882 0.000000
0.039216 0.507843 0.000000
0.049020 0.509804 0.000000
0.058824 0.511765 0.000000
0.068627 0.513725 0.000000
0.078431 0.515686 0.000000
0.088235 0.517647 0.000000
0.098039 0.519608 0.000000
0.107843 0.521569 0.000000
0.117647 0.523529 0.000000
0.127451 0.525490 0.000000
0.137255 0.527451 0.000000
0.147059 0.529412 0.000000
0.156863 0.531373 0.000000
0.166667 0.533333 0.000000
0.176471 0.535294 0.000000
0.186275 0.537255 0.000000
0.196078 0.539216 0.000000
0.205882 0.541176 0.000000
0.215686 0.543137 0.000000
0.225490 0.545098 0.000000
0.235294 0.547059 0.000000
0.245098 0.549020 0.000000
0.254902 0.550980 0.000000
0.264706 0.552941 0.000000
0.274510 0.554902 0.000000
0.284314 0.556863 0.000000
0.294118 0.558824 0.000000
0.303922 0.560784 0.000000
0.313725 0.562745 0.000000
0.323529 0.564706 0.000000
0.333333 0.566667 0.000000
0.343137 0.568627 0.000000
0.352941 0.570588 0.000000
0.362745 0.572549 0.000000
0.372549 0.574510 0.000000
0.382353 0.576471 0.000000
0.392157 0.578431 0.000000
0.401961 0.580392 0.000000
0.411765 0.582353 0.000000
0.421569 0.584314 0.000000
0.431373 0.586275 0.000000
0.441176 0.588235 0.000000
0.450980 0.590196 0.000000
0.460784 0.592157 0.000000
0.470588 0.594118 0.000000
0.480392 0.596078 0.000000
0.490196 0.598039 0.000000
0.500000 0.600000 0.000000
0.509804 0.601961 0.000000
0.519608 0.603922 0.000000
0.529412 0.605882 0.000000
0.539216 0.607843 0.000000
0.549020 0.609804 0.000000
0.558824 0.611765 0.000000
0.568627 0.613725 0.000000
0.578431 0.615686 0.000000
0.588235 0.617647 0.000000
0.598039 0.619608 0.000000
0.607843 0.621569 0.000000
0.617647 0.623529 0.000000
0.627451 0.625490 0.000000
0.637255 0.627451 0.000000
0.647059 0.629412 0.000000
0.656863 0.631373 0.000000
0.666667 0.633333 0.000000
0.676471 0.635294 0.000000
0.686275 0.637255 0.000000
0.696078 0.639216 0.000000
0.705882 0.641176 0.000000
0.715686 0.643137 0.000000
0.725490 0.645098 0.000000
0.735294 0.647059 0.000000
0.745098 0.649020 0.000000
0.754902 0.650980 0.000000
0.764706 0.652941 0.000000
0.774510 0.654902 0.000000
0.784314 0.656863 0.000000
0.794118 0.658824 0.000000
0.803922 0.660784 0.000000
0.813725 0.662745 0.000000
0.823529 0.664706 0.000000
0.833333 0.666667 0.000000
0.843137 0.668627 0.000000
0.852941 0.670588 0.000000
0.862745 0.672549 0.000000
0.872549 0.674510 0.000000
0.882353 0.676471 0.000000
0.892157 0.678431 0.000000
0.901961 0.680392 0.000000
0.911765 0.682353 0.000000
0.921569 0.684314 0.000000
0.931373 0.686275 0.000000
0.941176 0.688235 0.000000
0.950980 0.690196 0.000000
0.960784 0.692157 0.000000
0.970588 0.694118 0.000000
0.980392 0.696078 0.000000
0.990196 0.698039 0.000000
0.113534 0.606152 0.000000
0.107142 0.586373 0.000000
0.121751 0.595256 0.000000
0.125314 0.578403 0.000000
0.608008 0.765681 0.000000
0.585349 0.764086 0.000000
0.591336 0.741952 0.000000
0.592072 0.793974 0.000000
0.550258 0.931017 0.000000
0.517159 0.896365 0.000000
0.557866 0.881366 0.000000
0.885592 0.689744 0.000000
0.900640 0.689195 0.000000
0.893881 0.699663 0.000000
0.791014 0.782870 0.000000
0.806073 0.755575 0.000000
0.814238 0.783906 0.000000
0.755950 0.661588 0.000000
0.766977 0.664624 0.000000
0.759150 0.673362 0.000000
0.237587 0.602856 0.000000
0.244276 0.587613 0.000000
0.255222 0.600052 0.000000
0.435458 0.690521 0.000000
0.445365 0.672382 0.000000
0.452783 0.695442 0.000000
0.434168 0.596027 0.000000
0.443497 0.595614 0.000000
0.440408 0.604928 0.000000
0.125631 0.548518 0.000000
0.136149 0.544058 0.000000
0.133888 0.554367 0.000000
0.684531 0.649457 0.000000
0.693022 0.657375 0.000000
0.680758 0.660164 0.000000
0.688513 0.672143 0.000000
0.209804 0.572062 0.000000
0.211391 0.587677 0.000000
0.198823 0.579466 0.000000
0.912173 0.691199 0.000000
0.919923 0.697571 0.000000
0.840788 0.691515 0.000000
0.836260 0.679067 0.000000
0.846581 0.680639 0.000000
0.610270 0.644163 0.000000
0.606363 0.631487 0.000000
0.618571 0.634947 0.000000
0.703833 0.664888 0.000000
0.705328 0.651574 0.000000
0.718551 0.657874 0.000000
0.476110 0.619965 0.000000
0.470756 0.606568 0.000000
0.483603 0.608681 0.000000
0.787587 0.718715 0.000000
0.799121 0.708516 0.000000
0.805593 0.724753 0.000000
0.545957 0.632159 0.000000
0.551865 0.620855 0.000000
0.557339 0.632078 0.000000
0.494856 0.610760 0.000000
0.503640 0.608636 0.000000
0.360926 0.590762 0.000000
0.373577 0.584863 0.000000
0.371469 0.597941 0.000000
0.331595 0.581327 0.000000
0.327955 0.573642 0.000000
0.337441 0.574864 0.000000
0.452770 0.600633 0.000000
0.450058 0.613037 0.000000
0.678157 0.643781 0.000000
0.204164 0.604889 0.000000
0.194170 0.595839 0.000000
0.640959 0.641938 0.000000
0.656321 0.640868 0.000000
0.651180 0.656559 0.000000
0.987799 0.705954 0.000000
0.990005 0.721233 0.000000
0.977245 0.712758 0.000000
0.974986 0.729512 0.000000
0.333802 0.812487 0.000000
0.361509 0.790617 0.000000
0.367317 0.828894 0.000000
0.604086 0.908536 0.000000
0.602873 0.861865 0.000000
0.486055 0.632060 0.000000
0.466853 0.635244 0.000000
0.541673 0.619743 0.000000
0.532472 0.631076 0.000000
0.541658 0.649026 0.000000
0.522313 0.819315 0.000000
0.510522 0.853722 0.000000
0.487163 0.814552 0.000000
0.308272 0.686111 0.000000
0.313305 0.664245 0.000000
0.331890 0.672844 0.000000
0.462242 0.618446 0.000000
0.459244 0.608252 0.000000
0.859980 0.693314 0.000000
0.849777 0.691819 0.000000
0.856777 0.681858 0.000000
0.942362 0.711719 0.000000
0.941048 0.728383 0.000000
0.931633 0.715819 0.000000
0.696422 0.925997 0.000000
0.743778 0.899483 0.000000
0.736714 0.951105 0.000000
0.710099 0.873175 0.000000
0.706855 0.827503 0.000000
0.748341 0.846430 0.000000
0.404569 0.612087 0.000000
0.400941 0.600304 0.000000
0.413129 0.601428 0.000000
0.739879 0.801859 0.000000
0.689244 0.763692 0.000000
0.711842 0.784429 0.000000
0.682971 0.800595 0.000000
0.849502 0.703362 0.000000
0.872437 0.693808 0.000000
0.880424 0.705421 0.000000
0.247911 0.613985 0.000000
0.230071 0.625013 0.000000
0.426705 0.605906 0.000000
0.417314 0.614950 0.000000
0.564489 0.781794 0.000000
0.542753 0.763395 0.000000
0.563888 0.747070 0.000000
0.540876 0.795125 0.000000
0.254442 0.628223 0.000000
0.675859 0.845039 0.000000
0.389585 0.604484 0.000000
0.382141 0.593934 0.000000
0.394023 0.590296 0.000000
0.210190 0.549067 0.000000
0.218913 0.550855 0.000000
0.211545 0.558654 0.000000
0.509032 0.731434 0.000000
0.480547 0.728234 0.000000
0.498097 0.707679 0.000000
0.408331 0.625772 0.000000
0.737928 0.766371 0.000000
0.713411 0.751924 0.000000
0.236129 0.559953 0.000000
0.247527 0.565947 0.000000
0.238129 0.573668 0.000000
0.277601 0.586118 0.000000
0.273407 0.573379 0.000000
0.286542 0.574133 0.000000
0.695186 0.646009 0.000000
0.128809 0.536590 0.000000
0.385032 0.584469 0.000000
0.959668 0.883416 0.000000
0.604963 0.829728 0.000000
0.627628 0.795445 0.000000
0.636557 0.838109 0.000000
0.226927 0.903063 0.000000
0.196567 0.877414 0.000000
0.253614 0.858563 0.000000
0.488755 0.686131 0.000000
0.474772 0.701653 0.000000
0.208074 0.832028 0.000000
0.596571 0.714257 0.000000
0.619682 0.736143 0.000000
0.620249 0.709238 0.000000
0.426920 0.878300 0.000000
0.456147 0.845659 0.000000
0.471012 0.891685 0.000000
0.607192 0.695818 0.000000
0.525672 0.709461 0.000000
0.509369 0.690109 0.000000
0.535964 0.736172 0.000000
0.737088 0.738406 0.000000
0.716812 0.727414 0.000000
0.735580 0.717065 0.000000
0.717714 0.708748 0.000000
0.733899 0.701419 0.000000
0.434815 0.713754 0.000000
0.456218 0.743004 0.000000
0.415116 0.743197 0.000000
0.459688 0.716033 0.000000
0.441105 0.768871 0.000000
[...]
POINT_DATA 1770
SCALARS UX float 1
LOOKUP_TABLE default
-0.163624
0.000000
0.000000
-0.173031
-0.168428
0.009106
-0.150354
-0.137049
-0.123739
-0.110464
-0.097266
-0.084170
-0.071194
-0.058345
-0.045712
-0.033302
-0.021220
-0.010132
0.005725
0.007991
0.009281
0.010113
0.010823
0.011410
0.011913
0.012367
0.012782
0.013171
0.013528
0.013860
0.014154
0.014418
0.014630
0.014765
0.014749
0.014351
0.013603
0.011691
0.006640
0.005105
0.004353
0.004345
0.004725
0.005489
0.006399
0.007202
-0.000000
-0.017128
-0.033022
-0.047948
-0.062446
-0.076655
-0.090685
-0.104564
-0.118329
-0.132047
-0.145702
-0.159351
-0.172645
-0.172445
-0.172410
-0.172480
-0.172606
-0.172763
-0.172932
-0.173090
-0.173219
-0.173292
-0.173245
-0.172916
-0.172029
-0.170460
-0.165098
-0.163708
-0.163063
-0.162749
-0.162676
-0.162759
-0.162880
-0.163057
-0.163253
-0.163461
-0.163671
-0.163843
-0.163952
-0.163912
-0.166644
-0.164873
-0.163091
-0.161322
-0.159563
-0.157811
-0.156075
-0.154327
-0.152542
-0.150772
-0.149017
-0.147270
-0.145509
-0.143769
-0.142017
-0.140265
-0.138452
-0.136636
-0.134856
-0.133115
-0.131391
-0.129657
-0.127921
-0.126172
-0.124412
-0.122644
-0.120966
-0.119225
-0.117471
-0.115760
-0.114034
-0.112319
-0.110600
-0.108884
-0.107209
-0.105552
-0.103850
-0.102149
-0.100420
-0.098706
-0.096965
-0.095233
-0.093499
-0.091758
-0.090012
-0.088273
-0.086524
-0.084783
-0.083025
-0.081270
-0.079586
-0.077885
-0.076163
-0.074444
-0.072716
-0.070980
-0.069257
-0.067532
-0.065829
-0.064101
-0.062387
-0.060634
-0.058941
-0.057228
-0.055509
-0.053781
-0.052050
-0.050318
-0.048586
-0.046870
-0.045081
-0.043351
-0.041618
-0.039869
-0.038133
-0.036374
-0.034582
-0.032793
-0.031042
-0.029293
-0.027520
-0.025748
-0.024012
-0.022285
-0.020581
-0.018847
-0.017120
-0.015412
-0.013688
-0.011981
-0.010248
-0.008528
-0.006857
-0.005195
-0.003430
-0.001676
0.000072
0.001845
0.003627
0.005450
0.007255
-0.152891
-0.154004
-0.151412
-0.150676
-0.064607
-0.068642
-0.067755
-0.067199
-0.074158
-0.080189
-0.072813
-0.014269
-0.010905
-0.013653
-0.032138
-0.029895
-0.028067
-0.036533
-0.034776
-0.037432
-0.130694
-0.129240
-0.127490
-0.095610
-0.093894
-0.092525
-0.093129
-0.091068
-0.093082
-0.149436
-0.146848
-0.148280
-0.049450
-0.048713
-0.051317
-0.050563
-0.134994
-0.135241
-0.137346
-0.008752
-0.008205
-0.023299
-0.022762
-0.020876
-0.063647
-0.063004
-0.061009
-0.047266
-0.045499
-0.043738
-0.087509
-0.087234
-0.084916
-0.033441
-0.031355
-0.030273
-0.075124
-0.072653
-0.072912
-0.082910
-0.080664
-0.107351
-0.103951
-0.105977
-0.112087
-0.111620
-0.109809
-0.090007
-0.092015
-0.049862
-0.136706
-0.138451
-0.057380
-0.054064
-0.056748
0.004819
0.003430
0.001701
0.000009
-0.113214
-0.108340
-0.107209
-0.064316
-0.064733
-0.086277
-0.089866
-0.074598
-0.077607
-0.076581
-0.079502
-0.081478
-0.085826
-0.118155
-0.117322
-0.114014
-0.090052
-0.089685
-0.019689
-0.021565
-0.018944
-0.005219
-0.006230
-0.007476
-0.047156
-0.038646
-0.039509
-0.045133
-0.046340
-0.038642
-0.100569
-0.100370
-0.098094
-0.040849
-0.050264
-0.046033
-0.050940
-0.022254
-0.017277
-0.016691
-0.128905
-0.132144
-0.095869
-0.098339
-0.072213
-0.076213
-0.072578
-0.076332
-0.127803
-0.051672
-0.103015
-0.103371
-0.100588
-0.132191
-0.130632
-0.133555
-0.082397
-0.087463
-0.084454
-0.100253
-0.041672
-0.046141
-0.128684
-0.127114
-0.129777
-0.123078
-0.122875
-0.120340
-0.046657
-0.147388
-0.101464
-0.000185
-0.064586
-0.060843
-0.058834
-0.132253
-0.137576
-0.127428
-0.086184
-0.088609
-0.135505
-0.067010
-0.062790
-0.062860
-0.096486
-0.091281
-0.088549
-0.065203
-0.079565
-0.082523
-0.077596
-0.042131
-0.045772
-0.042545
-0.045715
-0.042867
-0.095638
-0.091705
-0.099001
-0.091218
-0.094262
-0.155392
-0.153781
-0.152274
-0.073319
-0.071537
-0.069517
-0.154200
-0.156262
0.000446
-0.003471
-0.003658
0.001020
-0.105501
-0.105634
-0.109814
-0.109174
-0.035786
-0.033297
-0.001887
-0.003845
-0.139525
-0.151921
-0.147409
-0.160824
-0.161889
-0.159171
-0.159585
-0.163714
-0.014447
-0.017035
-0.083222
-0.081159
-0.084511
-0.079900
0.000958
-0.038830
-0.035650
-0.036147
-0.081881
-0.129061
-0.072324
-0.099704
-0.106930
-0.123225
-0.170548
-0.170800
-0.102055
-0.005653
-0.006772
-0.128761
-0.118643
-0.116142
-0.122950
-0.123887
-0.104514
-0.111250
-0.006144
-0.012090
-0.006965
-0.011159
-0.051876
-0.165654
-0.162811
-0.159268
-0.158493
-0.055659
-0.167384
-0.166388
-0.163282
-0.162451
-0.167590
-0.153920
-0.162527
-0.055587
-0.055724
-0.160423
-0.053376
-0.054092
-0.079341
-0.080381
-0.169779
-0.078705
-0.168707
-0.163104
-0.009192
-0.011359
-0.012056
-0.056924
-0.155179
-0.164582
-0.133397
-0.031659
-0.009419
-0.011374
-0.158281
-0.160071
-0.018318
-0.013902
-0.024224
-0.162814
-0.007531
-0.007797
-0.084924
-0.087900
-0.153306
-0.149903
-0.000682
-0.148086
-0.151331
-0.147998
-0.150994
-0.147978
-0.129471
-0.134798
-0.128981
-0.157556
-0.159201
-0.161838
-0.135771
-0.023943
-0.066847
-0.158381
-0.160635
-0.041581
-0.039862
-0.064983
-0.061856
-0.062447
-0.122825
-0.118831
-0.120980
-0.120343
-0.054628
-0.057924
-0.056288
-0.055971
-0.015645
-0.018059
-0.020385
-0.163002
-0.031703
-0.019722
-0.023135
-0.021432
-0.023285
-0.021057
-0.032617
-0.035318
-0.026930
-0.025689
-0.024339
-0.099401
-0.097533
-0.096722
-0.039306
-0.026101
-0.028382
-0.036552
-0.067955
-0.066254
-0.039347
-0.090331
-0.156074
-0.159404
-0.156866
-0.113163
-0.110849
-0.112924
-0.034095
-0.037001
-0.037808
-0.110494
-0.106988
-0.105020
-0.107918
-0.104566
-0.102187
-0.014381
-0.100273
-0.161837
-0.151740
-0.093123
-0.092663
-0.101811
-0.151641
-0.149968
-0.094849
-0.145550
-0.141127
-0.142156
-0.143525
-0.095159
-0.033319
-0.049756
-0.032003
-0.136578
-0.139510
-0.138266
-0.052508
-0.048994
-0.053728
-0.013733
-0.016934
-0.014740
-0.141896
-0.144322
-0.051528
-0.048343
-0.050403
-0.053336
-0.149142
-0.081415
-0.140276
-0.138880
-0.137121
-0.139803
-0.088846
-0.145900
-0.143537
-0.143761
-0.085479
-0.098364
-0.100997
-0.133910
-0.136230
-0.065472
-0.065318
-0.067890
-0.141485
-0.097735
-0.058062
-0.060388
-0.141848
-0.143096
-0.144925
-0.145582
-0.075792
-0.079188
-0.143200
-0.140049
-0.097460
-0.108399
-0.108263
-0.108282
-0.110727
-0.095026
-0.113201
-0.114040
-0.103352
-0.132807
-0.130539
-0.041332
-0.043835
-0.067215
-0.087716
-0.085275
-0.114589
-0.116850
-0.118050
-0.115317
-0.116005
-0.045750
-0.045059
-0.053824
-0.056180
-0.164433
-0.051767
-0.131493
-0.084017
-0.150861
-0.147967
-0.152811
-0.153319
-0.155146
-0.151591
-0.150438
-0.157549
-0.156680
-0.028125
-0.025978
-0.028276
-0.146009
-0.077070
-0.083104
-0.030222
-0.124205
-0.121291
-0.123987
-0.121154
-0.126185
-0.125616
-0.030885
-0.120692
-0.113144
-0.117684
-0.122663
-0.144087
-0.065766
-0.062022
-0.029104
-0.132960
-0.129103
-0.133968
-0.137689
-0.158373
-0.137256
-0.080721
-0.081928
-0.079317
-0.118072
-0.117177
-0.108692
-0.110464
-0.106142
-0.019591
-0.018964
-0.111118
-0.114160
-0.141697
-0.139555
-0.059437
-0.059814
-0.132143
-0.042479
-0.070448
-0.070509
-0.121536
-0.123737
-0.048075
-0.114454
-0.119488
-0.165479
-0.127100
-0.127599
-0.125365
-0.076246
-0.073083
-0.068934
-0.125532
-0.108778
-0.074336
-0.155658
-0.153033
-0.086785
-0.105348
-0.132003
-0.094394
-0.118749
-0.125499
-0.105421
-0.129844
-0.127138
-0.144960
-0.154309
-0.164473
-0.166149
-0.080649
-0.157551
-0.098867
-0.059668
-0.148920
-0.154751
-0.169909
-0.010458
-0.158488
-0.009618
-0.071400
-0.169866
-0.168112
-0.167832
-0.165480
-0.170279
-0.164279
-0.165124
-0.166982
-0.168072
-0.167283
-0.074663
-0.067941
-0.113783
-0.116372
-0.163041
-0.002234
-0.123801
-0.168685
-0.168157
-0.114876
-0.167387
-0.003239
-0.135061
-0.000627
-0.148074
-0.038082
-0.170324
0.003068
0.000925
-0.116176
-0.024578
-0.027047
-0.026127
-0.145577
-0.148549
-0.090122
-0.118621
-0.120402
-0.139223
-0.142577
-0.070986
-0.084560
-0.058709
-0.060320
-0.141704
-0.143513
-0.033435
-0.154364
-0.148601
-0.077272
-0.145749
-0.149670
-0.124244
-0.059114
-0.135703
-0.098167
-0.070458
-0.017153
-0.015180
-0.139034
-0.023996
-0.115369
-0.118547
-0.068446
-0.096302
-0.032924
-0.125741
-0.112153
-0.126337
-0.104758
-0.040775
-0.120155
-0.059695
-0.074566
-0.135654
-0.137900
-0.139041
-0.134964
-0.055588
-0.058212
-0.057678
-0.057400
-0.073227
-0.073516
-0.075235
-0.078073
-0.074249
-0.084338
-0.141377
-0.139644
-0.078148
-0.159570
-0.159041
-0.002055
-0.007067
-0.002821
-0.155220
-0.156030
-0.006814
-0.089803
-0.101351
0.005935
0.004044
0.008485
0.004027
-0.009193
-0.008334
-0.010759
-0.006578
-0.110884
-0.111907
-0.108752
-0.108465
-0.077170
-0.073408
-0.076795
-0.075009
-0.141235
-0.139207
-0.138375
-0.138025
-0.132307
-0.132796
-0.086780
-0.088916
-0.085839
0.002043
-0.140580
-0.137674
-0.140170
-0.139025
-0.135207
-0.130569
-0.132048
-0.127790
-0.071818
-0.073621
-0.070758
-0.060170
-0.059038
-0.039112
-0.040436
-0.035703
-0.042886
-0.025686
-0.024256
-0.027615
-0.021260
-0.059705
-0.092101
-0.093868
-0.094616
0.000150
0.000421
-0.001921
-0.095655
-0.097562
-0.095324
-0.096580
-0.152548
-0.151752
-0.150086
-0.125391
-0.126730
-0.128396
-0.090911
-0.093369
-0.026201
-0.025107
-0.023243
-0.057836
-0.055335
-0.055361
-0.053145
-0.038793
-0.035942
-0.084793
-0.085957
-0.087775
-0.077848
-0.079142
-0.076871
-0.038415
-0.036172
-0.039144
-0.080033
-0.082277
-0.083172
-0.080580
-0.122791
-0.120390
-0.122194
-0.119973
-0.125181
-0.123654
-0.125928
-0.069464
-0.069504
-0.072934
-0.056365
-0.052302
-0.051485
-0.070430
-0.122879
-0.124942
-0.121452
-0.049956
-0.050318
-0.052170
-0.049912
-0.050174
-0.047491
-0.115602
-0.115750
-0.118723
-0.048736
-0.036249
-0.042672
-0.039017
-0.040350
-0.126848
-0.127351
-0.091668
-0.093714
-0.091649
-0.061764
-0.064171
-0.063515
-0.064233
-0.157392
-0.158745
-0.156313
-0.158045
-0.043803
-0.044526
-0.046446
-0.055748
-0.057573
0.008992
0.010250
0.011652
0.007470
-0.109807
-0.104918
-0.112755
-0.046527
0.000640
-0.003434
-0.077306
-0.074533
-0.103066
-0.100278
-0.101844
-0.045614
-0.044858
-0.048179
-0.053410
0.003971
0.002759
0.000620
-0.000150
-0.101888
-0.023136
-0.021260
-0.021409
-0.050997
-0.049257
-0.051455
-0.126797
-0.124532
-0.064781
-0.067610
-0.065890
-0.080844
-0.078812
-0.081440
-0.110419
-0.105639
-0.141993
-0.144581
-0.142736
-0.145959
-0.102537
-0.104061
-0.105322
-0.045808
-0.061933
-0.062165
-0.000771
0.002160
0.001439
-0.152649
-0.148199
-0.151851
-0.147677
-0.001553
-0.002561
-0.011884
-0.019916
-0.010990
-0.016897
-0.115500
-0.115625
-0.117868
-0.113320
-0.087109
-0.065486
-0.062324
-0.065756
-0.094258
-0.081118
-0.072258
-0.069471
-0.070491
0.011260
0.012552
-0.019259
-0.017457
-0.020872
-0.015866
-0.016367
-0.027770
-0.024781
-0.096298
-0.095075
-0.102535
-0.127635
-0.125032
-0.121712
-0.137416
-0.145231
-0.145148
-0.142889
-0.147395
-0.143683
-0.138708
-0.143223
-0.133933
-0.155985
-0.156257
-0.047693
-0.050159
-0.054161
-0.042599
-0.119791
-0.116629
-0.044795
-0.110907
-0.119021
-0.155916
-0.153737
-0.060895
-0.154466
-0.001142
-0.004132
-0.080037
-0.080283
-0.084688
-0.085017
-0.157722
-0.010112
-0.007762
-0.010879
-0.009669
-0.007429
-0.029001
-0.024755
-0.032249
-0.097058
-0.096009
-0.095814
-0.128548
-0.130905
-0.130701
-0.013407
-0.016050
-0.015622
-0.001234
-0.156709
-0.153799
-0.156787
0.006177
0.004235
0.002260
0.009935
-0.153766
-0.151502
-0.136698
-0.134670
-0.135679
-0.149009
-0.151031
-0.150188
-0.148885
-0.147246
-0.000280
-0.149584
0.009125
0.008182
0.005875
-0.094886
-0.096247
-0.098868
-0.140203
-0.144133
-0.139677
-0.143845
-0.143963
-0.029663
-0.023096
-0.079996
-0.085233
-0.076271
-0.071673
-0.079830
-0.074281
-0.155023
0.003761
0.005467
0.002882
0.005615
-0.027628
-0.026275
-0.025277
-0.026684
-0.024671
-0.004199
-0.004750
-0.083441
-0.028961
-0.159584
-0.127916
-0.126514
-0.030175
-0.029000
-0.115992
-0.006011
-0.010514
-0.045169
-0.049350
-0.047544
-0.046985
-0.063135
-0.016094
-0.018269
-0.018781
-0.007661
-0.010310
-0.019324
-0.016926
-0.022180
-0.031951
-0.141830
-0.142776
0.005650
0.002422
0.007980
0.001967
-0.000569
-0.063867
-0.002373
-0.004816
-0.005053
-0.083958
-0.082084
-0.019677
-0.017803
-0.018868
-0.058973
-0.061490
-0.068343
-0.064485
-0.004609
-0.000552
-0.006932
-0.127588
-0.127921
-0.130828
-0.124944
-0.159658
-0.010566
0.003030
-0.124158
-0.031672
-0.030285
-0.033303
-0.126300
-0.133291
-0.135324
-0.117542
-0.122703
0.007922
0.005762
-0.120344
-0.123518
-0.118622
-0.018675
-0.014403
-0.019973
-0.013829
-0.114527
-0.119202
-0.123313
0.008553
0.006743
0.008654
0.011198
0.011935
-0.025230
-0.034379
-0.020475
-0.025921
-0.003402
-0.026085
-0.033704
-0.029062
0.006404
-0.032345
0.000230
0.002801
-0.032027
-0.038425
-0.036942
-0.097079
-0.101422
-0.100651
0.009298
0.006563
-0.016116
-0.149093
-0.160167
-0.022672
-0.012170
0.010076
-0.019397
0.001600
0.000555
-0.157113
-0.112353
-0.113413
-0.149076
-0.151248
0.007465
-0.021027
-0.022398
-0.088751
-0.089836
-0.092968
-0.091575
-0.153257
-0.157857
-0.008192
-0.005416
-0.008050
-0.106771
-0.108469
0.009415
-0.010030
-0.005828
-0.007763
-0.012155
-0.013297
-0.153548
-0.012645
-0.132794
-0.132349
-0.057916
-0.053215
-0.060387
-0.055839
-0.027077
-0.027413
-0.030335
-0.027766
-0.029924
-0.030110
-0.017250
-0.014659
-0.013912
-0.024079
-0.025084
-0.010595
-0.071285
-0.068511
-0.066370
-0.014478
-0.015350
-0.012604
-0.146952
-0.144342
-0.146259
-0.144390
-0.065294
-0.021229
-0.021220
-0.085867
-0.024817
-0.018334
-0.036823
-0.013821
-0.014538
-0.015740
-0.143722
-0.141987
-0.144922
-0.015242
-0.152044
-0.032815
-0.031510
-0.066546
-0.065495
-0.088440
-0.002332
-0.002353
-0.002553
-0.000731
-0.003324
-0.003606
0.007134
-0.021267
-0.011356
-0.009161
-0.011755
-0.023354
-0.136891
-0.137124
-0.085313
-0.013611
-0.086904
-0.009896
-0.017669
-0.025578
-0.023425
-0.115985
-0.114168
-0.113333
-0.112331
-0.114451
-0.032673
-0.035974
-0.035963
-0.033126
-0.088103
-0.022118
-0.105437
-0.105488
-0.063623
-0.062020
-0.065253
-0.075210
-0.072424
-0.076174
-0.076909
-0.140208
-0.071617
-0.103881
-0.105319
-0.103063
-0.066896
-0.121361
-0.122776
-0.147304
-0.031146
-0.033628
-0.033846
-0.105392
-0.102582
-0.106259
-0.104308
-0.139793
-0.002897
0.004307
-0.027924
-0.092610
-0.094008
-0.150840
-0.124105
-0.058687
-0.063831
-0.059014
-0.053751
-0.058453
-0.053995
-0.057169
-0.017758
-0.075409
-0.062550
-0.020070
-0.054412
-0.052479
-0.120114
-0.067192
-0.067916
-0.067845
-0.130861
-0.126898
-0.129038
-0.080708
-0.065672
-0.067914
-0.095697
-0.105577
-0.100262
-0.045538
-0.044379
-0.051026
-0.048503
-0.048847
-0.022188
-0.135068
-0.155120
-0.088680
-0.091315
-0.090384
-0.041727
-0.108784
-0.117559
-0.114713
0.004289
-0.134268
-0.079974
-0.078436
-0.007168
-0.097903
-0.103782
-0.098522
-0.045384
-0.042432
-0.034368
-0.099065
-0.101591
-0.147514
-0.036650
-0.033985
-0.034524
-0.032013
-0.111447
-0.110035
-0.133342
-0.136592
-0.134986
-0.134258
-0.084652
-0.082962
-0.083197
-0.054076
-0.050243
-0.096235
-0.092722
-0.091216
-0.148594
-0.147132
-0.061978
-0.067852
-0.065855
-0.073003
-0.031190
-0.030351
-0.034884
-0.039665
-0.040121
-0.037217
-0.097686
-0.101087
-0.099280
-0.099122
-0.116810
-0.120503
-0.118847
-0.118665
-0.121378
-0.012895
-0.042129
-0.041985
0.001325
-0.105291
-0.058017
-0.060062
-0.133523
-0.109666
-0.107480
-0.110458
-0.109577
-0.033043
-0.035347
-0.036328
-0.038733
-0.065766
-0.029698
-0.029775
-0.104441
-0.099498
-0.122373
-0.126269
-0.110485
-0.062933
-0.060977
-0.123892
-0.069427
-0.075052
-0.036642
-0.034109
-0.036165
-0.106551
-0.108787
-0.027658
-0.091927
-0.020043
-0.135817
-0.094823
-0.097209
-0.096093
-0.066881
-0.069596
-0.004427
-0.135819
0.009049
-0.006509
-0.155498
-0.133025
-0.111049
-0.108355
-0.079000
-0.119314
-0.122864
-0.086120
-0.080286
-0.150579
-0.109865
-0.107021
-0.043375
-0.042118
-0.045818
-0.105713
-0.078123
-0.075947
0.005513
-0.042798
-0.042918
-0.131800
-0.101362
-0.102941
-0.149103
-0.125637
-0.127019
-0.126513
-0.060239
-0.058374
0.003749
0.004679
-0.130339
-0.104195
-0.106951
-0.104375
-0.069595
-0.027633
-0.099699
-0.112169
-0.114066
-0.045219
-0.041146
-0.071541
-0.025499
-0.071082
-0.071937
-0.069669
-0.115968
-0.117545
-0.014967
-0.020447
-0.085397
-0.073823
-0.007640
-0.097748
-0.099526
-0.075921
-0.075613
-0.107478
-0.109019
-0.109976
-0.048073
-0.048374
-0.025678
-0.053321
0.011894
-0.152848
-0.145642
-0.040858
-0.039088
0.008439
-0.040978
-0.134531
-0.154342
0.007934
-0.013641
-0.017369
-0.159529
-0.011004
-0.007619
-0.040835
-0.144947
0.011383
-0.142846
-0.060219
-0.161003
-0.161092
-0.163043
-0.048389
-0.161454
0.003104
-0.026865
0.004517
-0.112495
-0.069140
-0.163803
-0.002419
-0.087596
-0.059015
-0.053912
-0.055256
-0.047756
-0.042982
-0.040581
-0.040876
-0.046417
-0.073743
-0.133712
-0.038416
-0.093369
-0.090643
-0.129219
-0.102200
-0.093813
-0.074135
-0.112614
-0.013932
-0.079584
-0.085757
-0.044475
-0.041101
-0.076301
-0.098571
-0.100684
-0.050025
-0.052349
-0.051595
-0.034685
-0.006956
-0.010466
-0.050739
-0.004530
-0.058197
-0.015580
-0.125257
-0.081200
-0.067988
-0.045858
-0.037945
-0.004729
-0.108776
0.005283
-0.117388
-0.042714
-0.006242
-0.009282
-0.005437
-0.018285
-0.139887
-0.010594
-0.149165
-0.147683
-0.104047
-0.061852
-0.139676
-0.140452
-0.039963
-0.044359
-0.017588
-0.022429
-0.005004
-0.153784
-0.052153
-0.055015
-0.067385
-0.082391
-0.037180
-0.089172
-0.089675
-0.103323
-0.143865
-0.056448
-0.084506
-0.087174
-0.008222
-0.089110
-0.092079
-0.089796
-0.057280
-0.114612
-0.123837
-0.098951
-0.003547
-0.054743
-0.029184
-0.021327
-0.137772
-0.050894
-0.053771
-0.128037
-0.046872
-0.044402
-0.045610
-0.056274
-0.057943
-0.129005
-0.130660
-0.131735
-0.052119
-0.054219
-0.054347
-0.060985
-0.059678
-0.062729
-0.110731
-0.119150
-0.077592
-0.108177
-0.131335
-0.128933
-0.088242
-0.075925
-0.112486
-0.065791
-0.078362
-0.086633
-0.113642
SCALARS UY float 1
LOOKUP_TABLE default
-0.000000
-0.000000
-0.409999
-0.410000
-0.201410
-0.291284
-0.000000
-0.000000
-0.000000
-0.000000
-0.000000
-0.000000
-0.000000
-0.000000
-0.000000
-0.000000
-0.000000
-0.000000
-0.032332
-0.060490
-0.085909
-0.108929
-0.129763
-0.148639
-0.165741
-0.181243
-0.195299
-0.208054
-0.219609
-0.230084
-0.239597
-0.248251
-0.256133
-0.263274
-0.269769
-0.275781
-0.281269
-0.286488
-0.296416
-0.302428
-0.309679
-0.318708
-0.329935
-0.344067
-0.361475
-0.382842
-0.410000
-0.410000
-0.410000
-0.410000
-0.410000
-0.410000
-0.410000
-0.410000
-0.410000
-0.410000
-0.410000
-0.410000
-0.379305
-0.352634
-0.329411
-0.309191
-0.291600
-0.276278
-0.262930
-0.251275
-0.241120
-0.232231
-0.224446
-0.217635
-0.211584
-0.206170
-0.196328
-0.191191
-0.185399
-0.178857
-0.171412
-0.162911
-0.153141
-0.141902
-0.129007
-0.114180
-0.097168
-0.077634
-0.055219
-0.029490
-0.202772
-0.204068
-0.205124
-0.206106
-0.207118
-0.208129
-0.209026
-0.209921
-0.210746
-0.211686
-0.212562
-0.213371
-0.214299
-0.215144
-0.216013
-0.216784
-0.217647
-0.218444
-0.219276
-0.220114
-0.220931
-0.221763
-0.222572
-0.223334
-0.224208
-0.225017
-0.225766
-0.226550
-0.227464
-0.228193
-0.228998
-0.229799
-0.230586
-0.231437
-0.232233
-0.233072
-0.233796
-0.234585
-0.235444
-0.236183
-0.236978
-0.237781
-0.238543
-0.239379
-0.240187
-0.240920
-0.241716
-0.242502
-0.243299
-0.244066
-0.244889
-0.245694
-0.246525
-0.247246
-0.248053
-0.248879
-0.249669
-0.250494
-0.251253
-0.252121
-0.252866
-0.253728
-0.254447
-0.255297
-0.256126
-0.256987
-0.257715
-0.258579
-0.259439
-0.260240
-0.261067
-0.261876
-0.262701
-0.263555
-0.264487
-0.265177
-0.266112
-0.266923
-0.267844
-0.268650
-0.269498
-0.270439
-0.271343
-0.272257
-0.273090
-0.274043
-0.275003
-0.275956
-0.276991
-0.277904
-0.278914
-0.279875
-0.280935
-0.281969
-0.283046
-0.284100
-0.285119
-0.286242
-0.287363
-0.288516
-0.289784
-0.248267
-0.240105
-0.243843
-0.236927
-0.313517
-0.312877
-0.303824
-0.325100
-0.381490
-0.367232
-0.361007
-0.283968
-0.283866
-0.288378
-0.321026
-0.310066
-0.321641
-0.270921
-0.272179
-0.276004
-0.247209
-0.240915
-0.246043
-0.282954
-0.275515
-0.284943
-0.243756
-0.243490
-0.247601
-0.224436
-0.222532
-0.226943
-0.265688
-0.269115
-0.270289
-0.275349
-0.234448
-0.240962
-0.237533
-0.284977
-0.287914
-0.284170
-0.278766
-0.279518