# vtk DataFile Version 2.0
Test
ASCII
DATASET POLYDATA
POINTS 1770 float
0.000000 0.000000 0.000000
1.000000 0.000000 0.000000
1.000000 1.000000 0.000000
0.000000 1.000000 0.000000
0.000000 0.500000 0.000000
1.000000 0.700000 0.000000
0.076923 0.000000 0.000000
0.153846 0.000000 0.000000
0.230769 0.000000 0.000000
0.307692 0.000000 0.000000
0.384615 0.000000 0.000000
0.461538 0.000000 0.000000
0.538462 0.000000 0.000000
0.615385 0.000000 0.000000
0.692308 0.000000 0.000000
0.769231 0.000000 0.000000
0.846154 0.000000 0.000000
0.923077 0.000000 0.000000
1.000000 0.075421 0.000000
1.000000 0.143732 0.000000
1.000000 0.205602 0.000000
1.000000 0.261640 0.000000
1.000000 0.312395 0.000000
1.000000 0.358364 0.000000
1.000000 0.400000 0.000000
1.000000 0.437711 0.000000
1.000000 0.471866 0.000000
1.000000 0.502801 0.000000
1.000000 0.530820 0.000000
1.000000 0.556197 0.000000
1.000000 0.579182 0.000000
1.000000 0.600000 0.000000
1.000000 0.618855 0.000000
1.000000 0.635933 0.000000
1.000000 0.651401 0.000000
1.000000 0.665410 0.000000
1.000000 0.678099 0.000000
1.000000 0.689591 0.000000
1.000000 0.711139 0.000000
1.000000 0.725174 0.000000
1.000000 0.742857 0.000000
1.000000 0.765136 0.000000
1.000000 0.793206 0.000000
1.000000 0.828571 0.000000
1.000000 0.873129 0.000000
1.000000 0.929269 0.000000
0.923077 1.000000 0.000000
0.846154 1.000000 0.000000
0.769231 1.000000 0.000000
0.692308 1.000000 0.000000
0.615385 1.000000 0.000000
0.538462 1.000000 0.000000
0.461538 1.000000 0.000000
0.384615 1.000000 0.000000
0.307692 1.000000 0.000000
0.230769 1.000000 0.000000
0.153846 1.000000 0.000000
0.076923 1.000000 0.000000
0.000000 0.926029 0.000000
0.000000 0.861633 0.000000
0.000000 0.805574 0.000000
0.000000 0.756771 0.000000
0.000000 0.714286 0.000000
0.000000 0.677300 0.000000
0.000000 0.645102 0.000000
0.000000 0.617073 0.000000
0.000000 0.592671 0.000000
0.000000 0.571429 0.000000
0.000000 0.552936 0.000000
0.000000 0.536837 0.000000
0.000000 0.522822 0.000000
0.000000 0.510621 0.000000
0.000000 0.489379 0.000000
0.000000 0.477178 0.000000
0.000000 0.463163 0.000000
0.000000 0.447064 0.000000
0.000000 0.428571 0.000000
0.000000 0.407329 0.000000
0.000000 0.382927 0.000000
0.000000 0.354898 0.000000
0.000000 0.322700 0.000000
0.000000 0.285714 0.000000
0.000000 0.243229 0.000000
0.000000 0.194426 0.000000
0.000000 0.138367 0.000000
0.000000 0.073971 0.000000
0.009804 0.501961 0.000000
0.019608 0.503922 0.000000
0.029412 0.505882 0.000000
0.039216 0.507843 0.000000
0.049020 0.509804 0.000000
0.058824 0.511765 0.000000
0.068627 0.513725 0.000000
0.078431 0.515686 0.000000
0.088235 0.517647 0.000000
0.098039 0.519608 0.000000
0.107843 0.521569 0.000000
0.117647 0.523529 0.000000
0.127451 0.525490 0.000000
0.137255 0.527451 0.000000
0.147059 0.529412 0.000000
0.156863 0.531373 0.000000
0.166667 0.533333 0.000000
0.176471 0.535294 0.000000
0.186275 0.537255 0.000000
0.196078 0.539216 0.000000
0.205882 0.541176 0.000000
0.215686 0.543137 0.000000
0.225490 0.545098 0.000000
0.235294 0.547059 0.000000
0.245098 0.549020 0.000000
0.254902 0.550980 0.000000
0.264706 0.552941 0.000000
0.274510 0.554902 0.000000
0.284314 0.556863 0.000000
0.294118 0.558824 0.000000
0.303922 0.560784 0.000000
0.313725 0.562745 0.000000
0.323529 0.564706 0.000000
0.333333 0.566667 0.000000
0.343137 0.568627 0.000000
0.352941 0.570588 0.000000
0.362745 0.572549 0.000000
0.372549 0.574510 0.000000
0.382353 0.576471 0.000000
0.392157 0.578431 0.000000
0.401961 0.580392 0.000000
0.411765 0.582353 0.000000
0.421569 0.584314 0.000000
0.431373 0.586275 0.000000
0.441176 0.588235 0.000000
0.450980 0.590196 0.000000
0.460784 0.592157 0.000000
0.470588 0.594118 0.000000
0.480392 0.596078 0.000000
0.490196 0.598039 0.000000
0.500000 0.600000 0.000000
0.509804 0.601961 0.000000
0.519608 0.603922 0.000000
0.529412 0.605882 0.000000
0.539216 0.607843 0.000000
0.549020 0.609804 0.000000
0.558824 0.611765 0.000000
0.568627 0.613725 0.000000
0.578431 0.615686 0.000000
0.588235 0.617647 0.000000
0.598039 0.619608 0.000000
0.607843 0.621569 0.000000
0.617647 0.623529 0.000000
0.627451 0.625490 0.000000
0.637255 0.627451 0.000000
0.647059 0.629412 0.000000
0.656863 0.631373 0.000000
0.666667 0.633333 0.000000
0.676471 0.635294 0.000000
0.686275 0.637255 0.000000
0.696078 0.639216 0.000000
0.705882 0.641176 0.000000
0.715686 0.643137 0.000000
0.725490 0.645098 0.000000
0.735294 0.647059 0.000000
0.745098 0.649020 0.000000
0.754902 0.650980 0.000000
0.764706 0.652941 0.000000
0.774510 0.654902 0.000000
0.784314 0.656863 0.000000
0.794118 0.658824 0.000000
0.803922 0.660784 0.000000
0.813725 0.662745 0.000000
0.823529 0.664706 0.000000
0.833333 0.666667 0.000000
0.843137 0.668627 0.000000
0.852941 0.670588 0.000000
0.862745 0.672549 0.000000
0.872549 0.674510 0.000000
0.882353 0.676471 0.000000
0.892157 0.678431 0.000000
0.901961 0.680392 0.000000
0.911765 0.682353 0.000000
0.921569 0.684314 0.000000
0.931373 0.686275 0.000000
0.941176 0.688235 0.000000
0.950980 0.690196 0.000000
0.960784 0.692157 0.000000
0.970588 0.694118 0.000000
0.980392 0.696078 0.000000
0.990196 0.698039 0.000000
0.113534 0.606152 0.000000
0.107142 0.586373 0.000000
0.121751 0.595256 0.000000
0.125314 0.578403 0.000000
0.608008 0.765681 0.000000
0.585349 0.764086 0.000000
0.591336 0.741952 0.000000
0.592072 0.793974 0.000000
0.550258 0.931017 0.000000
0.517159 0.896365 0.000000
0.557866 0.881366 0.000000
0.885592 0.689744 0.000000
0.900640 0.689195 0.000000
0.893881 0.699663 0.000000
0.791014 0.782870 0.000000
0.806073 0.755575 0.000000
0.814238 0.783906 0.000000
0.755950 0.661588 0.000000
0.766977 0.664624 0.000000
0.759150 0.673362 0.000000
0.237587 0.602856 0.000000
0.244276 0.587613 0.000000
0.255222 0.600052 0.000000
0.435458 0.690521 0.000000
0.445365 0.672382 0.000000
0.452783 0.695442 0.000000
0.434168 0.596027 0.000000
0.443497 0.595614 0.000000
0.440408 0.604928 0.000000
0.125631 0.548518 0.000000
0.136149 0.544058 0.000000
0.133888 0.554367 0.000000
0.684531 0.649457 0.000000
0.693022 0.657375 0.000000
0.680758 0.660164 0.000000
0.688513 0.672143 0.000000
0.209804 0.572062 0.000000
0.211391 0.587677 0.000000
0.198823 0.579466 0.000000
0.912173 0.691199 0.000000
0.919923 0.697571 0.000000
0.840788 0.691515 0.000000
0.836260 0.679067 0.000000
0.846581 0.680639 0.000000
0.610270 0.644163 0.000000
0.606363 0.631487 0.000000
0.618571 0.634947 0.000000
0.703833 0.664888 0.000000
0.705328 0.651574 0.000000
0.718551 0.657874 0.000000
0.476110 0.619965 0.000000
0.470756 0.606568 0.000000
0.483603 0.608681 0.000000
0.787587 0.718715 0.000000
0.799121 0.708516 0.000000
0.805593 0.724753 0.000000
0.545957 0.632159 0.000000
0.551865 0.620855 0.000000
0.557339 0.632078 0.000000
0.494856 0.610760 0.000000
0.503640 0.608636 0.000000
0.360926 0.590762 0.000000
0.373577 0.584863 0.000000
0.371469 0.597941 0.000000
0.331595 0.581327 0.000000
0.327955 0.573642 0.000000
0.337441 0.574864 0.000000
0.452770 0.600633 0.000000
0.450058 0.613037 0.000000
0.678157 0.643781 0.000000
0.204164 0.604889 0.000000
0.194170 0.595839 0.000000
0.640959 0.641938 0.000000
0.656321 0.640868 0.000000
0.651180 0.656559 0.000000
0.987799 0.705954 0.000000
0.990005 0.721233 0.000000
0.977245 0.712758 0.000000
0.974986 0.729512 0.000000
0.333802 0.812487 0.000000
0.361509 0.790617 0.000000
0.367317 0.828894 0.000000
0.604086 0.908536 0.000000
0.602873 0.861865 0.000000
0.486055 0.632060 0.000000
0.466853 0.635244 0.000000
0.541673 0.619743 0.000000
0.532472 0.631076 0.000000
0.541658 0.649026 0.000000
0.522313 0.819315 0.000000
0.510522 0.853722 0.000000
0.487163 0.814552 0.000000
0.308272 0.686111 0.000000
0.313305 0.664245 0.000000
0.331890 0.672844 0.000000
0.462242 0.618446 0.000000
0.459244 0.608252 0.000000
0.859980 0.693314 0.000000
0.849777 0.691819 0.000000
0.856777 0.681858 0.000000
0.942362 0.711719 0.000000
0.941048 0.728383 0.000000
0.931633 0.715819 0.000000
0.696422 0.925997 0.000000
0.743778 0.899483 0.000000
0.736714 0.951105 0.000000
0.710099 0.873175 0.000000
0.706855 0.827503 0.000000
0.748341 0.846430 0.000000
0.404569 0.612087 0.000000
0.400941 0.600304 0.000000
0.413129 0.601428 0.000000
0.739879 0.801859 0.000000
0.689244 0.763692 0.000000
0.711842 0.784429 0.000000
0.682971 0.800595 0.000000
0.849502 0.703362 0.000000
0.872437 0.693808 0.000000
0.880424 0.705421 0.000000
0.247911 0.613985 0.000000
0.230071 0.625013 0.000000
0.426705 0.605906 0.000000
0.417314 0.614950 0.000000
0.564489 0.781794 0.000000
0.542753 0.763395 0.000000
0.563888 0.747070 0.000000
0.540876 0.795125 0.000000
0.254442 0.628223 0.000000
0.675859 0.845039 0.000000
0.389585 0.604484 0.000000
0.382141 0.593934 0.000000
0.394023 0.590296 0.000000
0.210190 0.549067 0.000000
0.218913 0.550855 0.000000
0.211545 0.558654 0.000000
0.509032 0.731434 0.000000
0.480547 0.728234 0.000000
0.498097 0.707679 0.000000
0.408331 0.625772 0.000000
0.737928 0.766371 0.000000
0.713411 0.751924 0.000000
0.236129 0.559953 0.000000
0.247527 0.565947 0.000000
0.238129 0.573668 0.000000
0.277601 0.586118 0.000000
0.273407 0.573379 0.000000
0.286542 0.574133 0.000000
0.695186 0.646009 0.000000
0.128809 0.536590 0.000000
0.385032 0.584469 0.000000
0.959668 0.883416 0.000000
0.604963 0.829728 0.000000
0.627628 0.795445 0.000000
0.636557 0.838109 0.000000
0.226927 0.903063 0.000000
0.196567 0.877414 0.000000
0.253614 0.858563 0.000000
0.488755 0.686131 0.000000
0.474772 0.701653 0.000000
0.208074 0.832028 0.000000
0.596571 0.714257 0.000000
0.619682 0.736143 0.000000
0.620249 0.709238 0.000000
0.426920 0.878300 0.000000
0.456147 0.845659 0.000000
0.471012 0.891685 0.000000
0.607192 0.695818 0.000000
0.525672 0.709461 0.000000
0.509369 0.690109 0.000000
0.535964 0.736172 0.000000
0.737088 0.738406 0.000000
0.716812 0.727414 0.000000
0.735580 0.717065 0.000000
0.717714 0.708748 0.000000
0.733899 0.701419 0.000000
0.434815 0.713754 0.000000
0.456218 0.743004 0.000000
0.415116 0.743197 0.000000
0.459688 0.716033 0.000000
0.441105 0.768871 0.000000
[...]
POINT_DATA 1770
SCALARS UX float 1
LOOKUP_TABLE default
-0.044254
0.000000
0.000000
-0.046003
-0.045255
0.002359
-0.040696
-0.037130
-0.033562
-0.029998
-0.026448
-0.022919
-0.019415
-0.015939
-0.012509
-0.009135
-0.005847
-0.002806
0.001384
0.001951
0.002276
0.002493
0.002681
0.002843
0.002985
0.003114
0.003233
0.003344
0.003446
0.003540
0.003624
0.003699
0.003761
0.003803
0.003810
0.003730
0.003558
0.003061
0.001690
0.001309
0.001143
0.001160
0.001271
0.001478
0.001719
0.001897
-0.000000
-0.004548
-0.008749
-0.012692
-0.016531
-0.020306
-0.024038
-0.027737
-0.031409
-0.035068
-0.038712
-0.042355
-0.046016
-0.046053
-0.046108
-0.046171
-0.046237
-0.046301
-0.046362
-0.046415
-0.046459
-0.046486
-0.046485
-0.046419
-0.046209
-0.045803
-0.044349
-0.044004
-0.043858
-0.043794
-0.043784
-0.043809
-0.043845
-0.043895
-0.043951
-0.044013
-0.044078
-0.044141
-0.044197
-0.044236
-0.044783
-0.044313
-0.043837
-0.043364
-0.042894
-0.042426
-0.041962
-0.041494
-0.041015
-0.040540
-0.040070
-0.039601
-0.039128
-0.038662
-0.038192
-0.037722
-0.037233
-0.036744
-0.036265
-0.035798
-0.035335
-0.034869
-0.034403
-0.033933
-0.033459
-0.032983
-0.032534
-0.032066
-0.031594
-0.031135
-0.030671
-0.030210
-0.029749
-0.029288
-0.028840
-0.028397
-0.027940
-0.027483
-0.027018
-0.026558
-0.026089
-0.025623
-0.025157
-0.024688
-0.024219
-0.023751
-0.023280
-0.022812
-0.022339
-0.021866
-0.021415
-0.020958
-0.020495
-0.020033
-0.019569
-0.019102
-0.018639
-0.018175
-0.017719
-0.017255
-0.016794
-0.016323
-0.015869
-0.015410
-0.014948
-0.014485
-0.014020
-0.013555
-0.013090
-0.012630
-0.012148
-0.011685
-0.011220
-0.010750
-0.010284
-0.009812
-0.009329
-0.008848
-0.008378
-0.007909
-0.007433
-0.006957
-0.006491
-0.006028
-0.005572
-0.005107
-0.004644
-0.004188
-0.003726
-0.003270
-0.002806
-0.002346
-0.001901
-0.001459
-0.000987
-0.000518
-0.000051
0.000423
0.000898
0.001386
0.001867
-0.041023
-0.041332
-0.040633
-0.040449
-0.017297
-0.018379
-0.018145
-0.017986
-0.019757
-0.021401
-0.019450
-0.003892
-0.002992
-0.003711
-0.008598
-0.008001
-0.007509
-0.009860
-0.009389
-0.010085
-0.035083
-0.034711
-0.034228
-0.025630
-0.025177
-0.024801
-0.025062
-0.024508
-0.025038
-0.040164
-0.039482
-0.039846
-0.013324
-0.013117
-0.013805
-0.013580
-0.036273
-0.036314
-0.036886
-0.002415
-0.002267
-0.006289
-0.006169
-0.005664
-0.017118
-0.016966
-0.016430
-0.012719
-0.012265
-0.011790
-0.023523
-0.023476
-0.022853
-0.008961
-0.008413
-0.008111
-0.020198
-0.019559
-0.019609
-0.022314
-0.021711
-0.028869
-0.027969
-0.028489
-0.030149
-0.030032
-0.029545
-0.024223
-0.024738
-0.013437
-0.036691
-0.037164
-0.015453
-0.014567
-0.015258
0.001204
0.000858
0.000387
-0.000028
-0.030287
-0.028999
-0.028670
-0.017162
-0.017307
-0.023171
-0.024125
-0.020081
-0.020862
-0.020558
-0.021272
-0.021781
-0.022965
-0.031678
-0.031464
-0.030573
-0.024204
-0.024126
-0.005327
-0.005828
-0.005147
-0.001450
-0.001687
-0.002041
-0.012582
-0.010325
-0.010521
-0.012067
-0.012395
-0.010332
-0.027019
-0.026990
-0.026381
-0.010926
-0.013453
-0.012317
-0.013629
-0.005990
-0.004685
-0.004505
-0.034597
-0.035456
-0.025780
-0.026418
-0.019332
-0.020408
-0.019437
-0.020432
-0.034291
-0.013821
-0.027685
-0.027801
-0.027066
-0.035556
-0.035137
-0.035916
-0.022074
-0.023433
-0.022632
-0.026914
-0.011152
-0.012351
-0.034614
-0.034185
-0.034879
-0.033068
-0.033042
-0.032364
-0.012576
-0.039635
-0.027302
-0.000061
-0.017280
-0.016283
-0.015738
-0.035274
-0.036729
-0.034042
-0.023104
-0.023749
-0.036227
-0.017952
-0.016815
-0.016842
-0.025764
-0.024403
-0.023633
-0.017475
-0.021320
-0.022120
-0.020785
-0.011280
-0.012258
-0.011399
-0.012251
-0.011494
-0.025630
-0.024566
-0.026521
-0.024444
-0.025242
-0.041772
-0.041350
-0.040946
-0.019657
-0.019193
-0.018639
-0.041446
-0.041983
0.000113
-0.000938
-0.000976
0.000274
-0.028279
-0.028302
-0.029430
-0.029271
-0.009596
-0.008939
-0.000580
-0.001105
-0.037163
-0.040465
-0.039340
-0.043193
-0.043499
-0.042775
-0.042898
-0.043959
-0.003895
-0.004572
-0.022324
-0.021761
-0.022660
-0.021437
0.000177
-0.010427
-0.009598
-0.009705
-0.021979
-0.034349
-0.019351
-0.026656
-0.028541
-0.032843
-0.045754
-0.045832
-0.027312
-0.001586
-0.001875
-0.034453
-0.031782
-0.031094
-0.032919
-0.033191
-0.027989
-0.029799
-0.001648
-0.003233
-0.001859
-0.002981
-0.013967
-0.044375
-0.043638
-0.042678
-0.042490
-0.014874
-0.044887
-0.044634
-0.043796
-0.043586
-0.044916
-0.041257
-0.043692
-0.014873
-0.014915
-0.042963
-0.014331
-0.014542
-0.021302
-0.021596
-0.045541
-0.021172
-0.045229
-0.043735
-0.002478
-0.003046
-0.003251
-0.015155
-0.041536
-0.044048
-0.035840
-0.008447
-0.002568
-0.003101
-0.042522
-0.042975
-0.004895
-0.003696
-0.006463
-0.043702
-0.002019
-0.002083
-0.022791
-0.023587
-0.041109
-0.040189
-0.000179
-0.039687
-0.040597
-0.039699
-0.040498
-0.039701
-0.034677
-0.036121
-0.034566
-0.042306
-0.042726
-0.043432
-0.036350
-0.006375
-0.017773
-0.042582
-0.043185
-0.011161
-0.010734
-0.017444
-0.016631
-0.016757
-0.032947
-0.031876
-0.032444
-0.032290
-0.014638
-0.015520
-0.015089
-0.014991
-0.004183
-0.004830
-0.005453
-0.043808
-0.008470
-0.005283
-0.006195
-0.005751
-0.006229
-0.005632
-0.008720
-0.009446
-0.007212
-0.006874
-0.006528
-0.026672
-0.026180
-0.025947
-0.010538
-0.006975
-0.007591
-0.009792
-0.018235
-0.017811
-0.010539
-0.024230
-0.041876
-0.042768
-0.042097
-0.030389
-0.029761
-0.030307
-0.009125
-0.009900
-0.010121
-0.029692
-0.028713
-0.028178
-0.028948
-0.028044
-0.027418
-0.003850
-0.026894
-0.043267
-0.040561
-0.024985
-0.024883
-0.027295
-0.040770
-0.040328
-0.025457
-0.039025
-0.037842
-0.038105
-0.038496
-0.025564
-0.008966
-0.013323
-0.008645
-0.036709
-0.037476
-0.037170
-0.014065
-0.013125
-0.014385
-0.003675
-0.004533
-0.003954
-0.038014
-0.038625
-0.013810
-0.012961
-0.013519
-0.014303
-0.040106
-0.021796
-0.037706
-0.037352
-0.036880
-0.037535
-0.023788
-0.039165
-0.038540
-0.038588
-0.022894
-0.026367
-0.027067
-0.035943
-0.036554
-0.017628
-0.017585
-0.018265
-0.038004
-0.026206
-0.015546
-0.016166
-0.038137
-0.038443
-0.038943
-0.039093
-0.020313
-0.021226
-0.038508
-0.037666
-0.025953
-0.028844
-0.029127
-0.029130
-0.029780
-0.025573
-0.030457
-0.030670
-0.027747
-0.035702
-0.035113
-0.011143
-0.011794
-0.018097
-0.023606
-0.022930
-0.030740
-0.031352
-0.031686
-0.030950
-0.031151
-0.012301
-0.012090
-0.014489
-0.015073
-0.044122
-0.013949
-0.035344
-0.022588
-0.040517
-0.039741
-0.041064
-0.041176
-0.041671
-0.040731
-0.040441
-0.042359
-0.042123
-0.007605
-0.007030
-0.007618
-0.039248
-0.020665
-0.022324
-0.008167
-0.033345
-0.032555
-0.033269
-0.032538
-0.033851
-0.033688
-0.008308
-0.032280
-0.030240
-0.031422
-0.032886
-0.038749
-0.017636
-0.016627
-0.007818
-0.035663
-0.034631
-0.035924
-0.036928
-0.042481
-0.036796
-0.021706
-0.022039
-0.021349
-0.031752
-0.031525
-0.029179
-0.029640
-0.028507
-0.005277
-0.005094
-0.029803
-0.030602
-0.038030
-0.037447
-0.015948
-0.016076
-0.035488
-0.011423
-0.018952
-0.018944
-0.032694
-0.033284
-0.012904
-0.030669
-0.032024
-0.044411
-0.034142
-0.034293
-0.033694
-0.020525
-0.019628
-0.018516
-0.033766
-0.029222
-0.019943
-0.041787
-0.041086
-0.023275
-0.028346
-0.035387
-0.025262
-0.031888
-0.033708
-0.028264
-0.034820
-0.034084
-0.038984
-0.041339
-0.044180
-0.044604
-0.021599
-0.042251
-0.026472
-0.015983
-0.039885
-0.041515
-0.045567
-0.002798
-0.042296
-0.002583
-0.019134
-0.045643
-0.045179
-0.045106
-0.044479
-0.045736
-0.044159
-0.044371
-0.044873
-0.045146
-0.044921
-0.020003
-0.018210
-0.030577
-0.031268
-0.043419
-0.000598
-0.033180
-0.045278
-0.045125
-0.030606
-0.044909
-0.000904
-0.036327
-0.000227
-0.039754
-0.010276
-0.045723
0.000739
0.000248
-0.031241
-0.006611
-0.007257
-0.007041
-0.039055
-0.039837
-0.024163
-0.031873
-0.032357
-0.037350
-0.038253
-0.019016
-0.022507
-0.015739
-0.016164
-0.038045
-0.038353
-0.008953
-0.041404
-0.039884
-0.020801
-0.039111
-0.040160
-0.033420
-0.015920
-0.036405
-0.026417
-0.018969
-0.004667
-0.004137
-0.037261
-0.006501
-0.031040
-0.031892
-0.018429
-0.025916
-0.008893
-0.033814
-0.030138
-0.033909
-0.028156
-0.010994
-0.032323
-0.016062
-0.020035
-0.036549
-0.037143
-0.037456
-0.036356
-0.015016
-0.015706
-0.015580
-0.015473
-0.019705
-0.019774
-0.020237
-0.021219
-0.020160
-0.022868
-0.038006
-0.037542
-0.021189
-0.042955
-0.042816
-0.000720
-0.002063
-0.000931
-0.041797
-0.042012
-0.001990
-0.024378
-0.027482
0.001428
0.000919
0.002104
0.000910
-0.002588
-0.002339
-0.002981
-0.001889
-0.029914
-0.030192
-0.029345
-0.029270
-0.020863
-0.019852
-0.020758
-0.020275
-0.038035
-0.037479
-0.037296
-0.037207
-0.035672
-0.035809
-0.023427
-0.024004
-0.023183
0.000388
-0.037823
-0.037053
-0.037697
-0.037388
-0.036442
-0.035200
-0.035594
-0.034453
-0.019374
-0.019870
-0.019109
-0.016218
-0.015908
-0.010658
-0.011018
-0.009747
-0.011670
-0.007051
-0.006662
-0.007561
-0.005862
-0.016115
-0.024832
-0.025282
-0.025505
-0.000052
0.000037
-0.000578
-0.025723
-0.026235
-0.025646
-0.025990
-0.041023
-0.040838
-0.040382
-0.033729
-0.034079
-0.034526
-0.024491
-0.025125
-0.007088
-0.006819
-0.006315
-0.015565
-0.014923
-0.014908
-0.014339
-0.010454
-0.009689
-0.022835
-0.023119
-0.023607
-0.021001
-0.021360
-0.020756
-0.010392
-0.009787
-0.010554
-0.021563
-0.022132
-0.022388
-0.021736
-0.033082
-0.032440
-0.032908
-0.032310
-0.033719
-0.033320
-0.033928
-0.018786
-0.018792
-0.019714
-0.015280
-0.014195
-0.013969
-0.019034
-0.033119
-0.033671
-0.032732
-0.013457
-0.013543
-0.014040
-0.013512
-0.013590
-0.012869
-0.031111
-0.031132
-0.031929
-0.013212
-0.009915
-0.011639
-0.010661
-0.011011
-0.034147
-0.034301
-0.024652
-0.025201
-0.024662
-0.016677
-0.017321
-0.017159
-0.017316
-0.042314
-0.042689
-0.042051
-0.042525
-0.011864
-0.012039
-0.012566
-0.015002
-0.015494
0.002332
0.002640
0.003031
0.001925
-0.029687
-0.028360
-0.030461
-0.012567
0.000004
-0.001083
-0.020795
-0.020059
-0.027789
-0.027043
-0.027451
-0.012358
-0.012164
-0.013040
-0.014433
0.000907
0.000590
0.000013
-0.000188
-0.027567
-0.006314
-0.005824
-0.005848
-0.013787
-0.013308
-0.013885
-0.034112
-0.033525
-0.017430
-0.018188
-0.017738
-0.021834
-0.021282
-0.021983
-0.029907
-0.028592
-0.038247
-0.038942
-0.038451
-0.039315
-0.027590
-0.027986
-0.028327
-0.012424
-0.016697
-0.016736
-0.000322
0.000458
0.000252
-0.041111
-0.039920
-0.040896
-0.039779
-0.000572
-0.000836
-0.003386
-0.005540
-0.003144
-0.004726
-0.031139
-0.031160
-0.031765
-0.030547
-0.023593
-0.017727
-0.016873
-0.017794
-0.025535
-0.021975
-0.019539
-0.018794
-0.019073
0.002942
0.003242
-0.005306
-0.004818
-0.005732
-0.004397
-0.004536
-0.007647
-0.006842
-0.026050
-0.025708
-0.027707
-0.034423
-0.033733
-0.032834
-0.037024
-0.039039
-0.039029
-0.038432
-0.039619
-0.038659
-0.037382
-0.038592
-0.036104
-0.042008
-0.042088
-0.013002
-0.013659
-0.014741
-0.011631
-0.032339
-0.031480
-0.012214
-0.029954
-0.032149
-0.041963
-0.041377
-0.016495
-0.041546
-0.000489
-0.001304
-0.021640
-0.021701
-0.022885
-0.022979
-0.042467
-0.002856
-0.002224
-0.003054
-0.002742
-0.002141
-0.007928
-0.006790
-0.008802
-0.026155
-0.025892
-0.025808
-0.034631
-0.035253
-0.035212
-0.003725
-0.004422
-0.004320
-0.000385
-0.042191
-0.041415
-0.042208
0.001596
0.001016
0.000510
0.002497
-0.041400
-0.040798
-0.036810
-0.036266
-0.036520
-0.040084
-0.040610
-0.040449
-0.040097
-0.039635
-0.000237
-0.040267
0.002262
0.002016
0.001396
-0.025623
-0.025983
-0.026690
-0.037779
-0.038832
-0.037639
-0.038756
-0.038786
-0.008150
-0.006368
-0.021651
-0.023062
-0.020656
-0.019429
-0.021618
-0.020140
-0.041662
0.000916
0.001375
0.000702
0.001393
-0.007511
-0.007168
-0.006888
-0.007206
-0.006667
-0.001284
-0.001426
-0.022545
-0.007879
-0.042881
-0.034493
-0.034114
-0.008179
-0.007851
-0.031366
-0.001787
-0.002989
-0.012278
-0.013400
-0.012920
-0.012760
-0.017100
-0.004383
-0.004951
-0.005091
-0.002208
-0.002918
-0.005246
-0.004616
-0.006138
-0.008771
-0.038174
-0.038381
0.001329
0.000459
0.001946
0.000350
-0.000334
-0.017185
-0.000714
-0.001346
-0.001418
-0.022671
-0.022174
-0.005395
-0.004899
-0.005168
-0.016043
-0.016710
-0.018557
-0.017548
-0.001419
-0.000341
-0.002046
-0.034395
-0.034482
-0.035263
-0.033684
-0.042977
-0.003013
0.000756
-0.033476
-0.008551
-0.008173
-0.008982
-0.034091
-0.035954
-0.036523
-0.031712
-0.033094
0.002024
0.001470
-0.032454
-0.033307
-0.031995
-0.005198
-0.004050
-0.005539
-0.003891
-0.030900
-0.032154
-0.033254
0.002148
0.001663
0.002167
0.002841
0.003042
-0.006966
-0.009424
-0.005668
-0.007130
-0.001116
-0.007181
-0.009226
-0.007986
0.001518
-0.008871
-0.000080
0.000608
-0.008771
-0.010489
-0.010086
-0.026215
-0.027379
-0.027176
0.002354
0.001626
-0.004496
-0.040087
-0.043100
-0.006272
-0.003457
0.002538
-0.005330
0.000358
0.000093
-0.042221
-0.030295
-0.030586
-0.040070
-0.040652
0.001883
-0.005726
-0.006073
-0.023979
-0.024274
-0.025112
-0.024734
-0.041275
-0.042504
-0.002264
-0.001528
-0.002211
-0.028811
-0.029263
0.002402
-0.002740
-0.001657
-0.002167
-0.003369
-0.003650
-0.041267
-0.003459
-0.035770
-0.035662
-0.015741
-0.014472
-0.016395
-0.015169
-0.007408
-0.007494
-0.008280
-0.007583
-0.008157
-0.008213
-0.004778
-0.004088
-0.003883
-0.006603
-0.006867
-0.002998
-0.019291
-0.018550
-0.017971
-0.003933
-0.004167
-0.003437
-0.039537
-0.038852
-0.039334
-0.038884
-0.017687
-0.005849
-0.005841
-0.023224
-0.006714
-0.005072
-0.010077
-0.003822
-0.003992
-0.004322
-0.038720
-0.038253
-0.039039
-0.004147
-0.040865
-0.008872
-0.008551
-0.018061
-0.017771
-0.023891
-0.000767
-0.000765
-0.000807
-0.000327
-0.000978
-0.001071
0.001751
-0.005756
-0.003173
-0.002591
-0.003202
-0.006390
-0.036805
-0.036883
-0.023029
-0.003789
-0.023474
-0.002728
-0.004898
-0.006992
-0.006418
-0.031286
-0.030796
-0.030577
-0.030315
-0.030888
-0.008893
-0.009772
-0.009779
-0.009024
-0.023841
-0.006073
-0.028430
-0.028434
-0.017216
-0.016779
-0.017645
-0.020346
-0.019602
-0.020611
-0.020805
-0.037772
-0.019390
-0.028041
-0.028424
-0.027816
-0.018093
-0.032649
-0.033043
-0.039669
-0.008474
-0.009124
-0.009197
-0.028438
-0.027683
-0.028668
-0.028107
-0.037664
-0.000974
0.000948
-0.007617
-0.025008
-0.025378
-0.040615
-0.033379
-0.015921
-0.017303
-0.016014
-0.014593
-0.015852
-0.014653
-0.015502
-0.004854
-0.020395
-0.016954
-0.005529
-0.014827
-0.014325
-0.032514
-0.018201
-0.018353
-0.018342
-0.035274
-0.034212
-0.034773
-0.021826
-0.017745
-0.018341
-0.025848
-0.028499
-0.027075
-0.012403
-0.012088
-0.013873
-0.013188
-0.013295
-0.006005
-0.036336
-0.041796
-0.023947
-0.024652
-0.024407
-0.011401
-0.029376
-0.031705
-0.030939
0.001012
-0.036110
-0.021612
-0.021193
-0.002080
-0.026459
-0.028031
-0.026618
-0.012346
-0.011559
-0.009267
-0.026706
-0.027363
-0.039733
-0.009969
-0.009259
-0.009408
-0.008734
-0.030062
-0.029679
-0.035935
-0.036807
-0.036379
-0.036178
-0.022843
-0.022398
-0.022438
-0.014686
-0.013648
-0.025997
-0.025059
-0.024649
-0.040040
-0.039660
-0.016816
-0.018396
-0.017852
-0.019772
-0.008540
-0.008309
-0.009521
-0.010773
-0.010902
-0.010127
-0.026364
-0.027276
-0.026796
-0.026742
-0.031496
-0.032486
-0.032047
-0.031987
-0.032728
-0.003605
-0.011349
-0.011311
0.000147
-0.028429
-0.015717
-0.016275
-0.035949
-0.029605
-0.028984
-0.029780
-0.029550
-0.009022
-0.009636
-0.009904
-0.010545
-0.017757
-0.008128
-0.008144
-0.028197
-0.026875
-0.032992
-0.034036
-0.029815
-0.017015
-0.016483
-0.033396
-0.018806
-0.020315
-0.009889
-0.009229
-0.009808
-0.028660
-0.029258
-0.007467
-0.024855
-0.005453
-0.036604
-0.025585
-0.026222
-0.025931
-0.018013
-0.018721
-0.001310
-0.036518
0.002357
-0.001853
-0.042005
-0.035796
-0.029865
-0.029160
-0.021265
-0.032094
-0.033042
-0.023215
-0.021718
-0.040565
-0.029570
-0.028827
-0.011713
-0.011400
-0.012357
-0.028457
-0.021018
-0.020461
0.001328
-0.011618
-0.011640
-0.035459
-0.027267
-0.027685
-0.040167
-0.033786
-0.034227
-0.034097
-0.016295
-0.015788
0.000797
0.001042
-0.035128
-0.028111
-0.028848
-0.028153
-0.018783
-0.007476
-0.026850
-0.030229
-0.030732
-0.012272
-0.011182
-0.019243
-0.007006
-0.019137
-0.019383
-0.018786
-0.031235
-0.031662
-0.004183
-0.005650
-0.023086
-0.019890
-0.002102
-0.026318
-0.026782
-0.020478
-0.020410
-0.028968
-0.029366
-0.029637
-0.012956
-0.013055
-0.007059
-0.014363
0.003045
-0.041241
-0.039358
-0.011045
-0.010596
0.002199
-0.011113
-0.036374
-0.041605
0.001970
-0.003805
-0.004830
-0.042878
-0.003135
-0.002203
-0.011002
-0.039097
0.002901
-0.038566
-0.016303
-0.043297
-0.043297
-0.043815
-0.013127
-0.043380
0.000659
-0.007292
0.001153
-0.030296
-0.018618
-0.044006
-0.000786
-0.023637
-0.015948
-0.014616
-0.014973
-0.012856
-0.011583
-0.010949
-0.011185
-0.012672
-0.019919
-0.035953
-0.010430
-0.025187
-0.024455
-0.034781
-0.027566
-0.025320
-0.019993
-0.030287
-0.003900
-0.021535
-0.023188
-0.012078
-0.011176
-0.020614
-0.026521
-0.027076
-0.013572
-0.014191
-0.013983
-0.009354
-0.002000
-0.002981
-0.013828
-0.001350
-0.015754
-0.004374
-0.033843
-0.021843
-0.018348
-0.012347
-0.010386
-0.001411
-0.029359
0.001261
-0.031601
-0.011614
-0.001872
-0.002680
-0.001605
-0.005067
-0.037692
-0.003003
-0.040180
-0.039784
-0.028000
-0.016760
-0.037670
-0.037863
-0.010881
-0.012053
-0.004767
-0.006068
-0.001397
-0.041414
-0.014126
-0.014897
-0.018173
-0.022204
-0.010123
-0.024066
-0.024117
-0.027830
-0.038768
-0.015263
-0.022729
-0.023470
-0.002402
-0.023994
-0.024849
-0.024215
-0.015514
-0.030823
-0.033304
-0.026609
-0.001006
-0.014830
-0.007877
-0.005891
-0.037126
-0.013717
-0.014471
-0.034508
-0.012725
-0.011960
-0.012284
-0.015227
-0.015680
-0.034697
-0.035135
-0.035425
-0.014104
-0.014662
-0.014707
-0.016415
-0.016060
-0.016881
-0.029817
-0.032070
-0.020911
-0.029164
-0.035318
-0.034726
-0.023791
-0.020436
-0.030268
-0.017746
-0.021168
-0.023365
-0.030583
SCALARS UY float 1
LOOKUP_TABLE default
-0.000000
-0.000000
-0.110000
-0.110000
-0.054217
-0.077989
-0.000000
-0.000000
-0.000000
-0.000000
-0.000000
-0.000000
-0.000000
-0.000000
-0.000000
-0.000000
-0.000000
-0.000000
-0.008630
-0.016166
-0.022973
-0.029137
-0.034722
-0.039782
-0.044367
-0.048523
-0.052291
-0.055710
-0.058807
-0.061615
-0.064164
-0.066482
-0.068590
-0.070501
-0.072239
-0.073844
-0.075309
-0.076703
-0.079368
-0.080976
-0.082921
-0.085349
-0.088378
-0.092191
-0.096894
-0.102658
-0.110000
-0.110000
-0.110000
-0.110000
-0.110000
-0.110000
-0.110000
-0.110000
-0.110000
-0.110000
-0.110000
-0.110000
-0.101792
-0.094656
-0.088443
-0.083034
-0.078326
-0.074226
-0.070655
-0.067539
-0.064823
-0.062447
-0.060367
-0.058549
-0.056936
-0.055491
-0.052851
-0.051480
-0.049931
-0.048179
-0.046180
-0.043893
-0.041264
-0.038241
-0.034771
-0.030781
-0.026200
-0.020939
-0.014898
-0.007961
-0.054547
-0.054870
-0.055133
-0.055382
-0.055642
-0.055904
-0.056136
-0.056370
-0.056583
-0.056831
-0.057061
-0.057273
-0.057520
-0.057744
-0.057974
-0.058178
-0.058408
-0.058619
-0.058840
-0.059065
-0.059284
-0.059507
-0.059723
-0.059927
-0.060163
-0.060379
-0.060580
-0.060790
-0.061038
-0.061232
-0.061450
-0.061665
-0.061877
-0.062107
-0.062321
-0.062548
-0.062742
-0.062955
-0.063188
-0.063387
-0.063601
-0.063817
-0.064022
-0.064248
-0.064467
-0.064664
-0.064879
-0.065091
-0.065306
-0.065512
-0.065735
-0.065952
-0.066177
-0.066371
-0.066589
-0.066812
-0.067025
-0.067249
-0.067451
-0.067687
-0.067888
-0.068121
-0.068314
-0.068544
-0.068768
-0.069001
-0.069195
-0.069428
-0.069661
-0.069876
-0.070098
-0.070315
-0.070537
-0.070766
-0.071019
-0.071202
-0.071454
-0.071671
-0.071919
-0.072133
-0.072359
-0.072611
-0.072852
-0.073098
-0.073318
-0.073571
-0.073825
-0.074075
-0.074348
-0.074585
-0.074850
-0.075097
-0.075373
-0.075640
-0.075916
-0.076185
-0.076446
-0.076734
-0.077018
-0.077307
-0.077622
-0.066631
-0.064443
-0.065441
-0.063585
-0.084152
-0.083979
-0.081550
-0.087259
-0.102372
-0.098553
-0.096887
-0.076214
-0.076171
-0.077387
-0.086169
-0.083231
-0.086337
-0.072746
-0.073083
-0.074106
-0.066330
-0.064642
-0.066018
-0.075938
-0.073942
-0.076474
-0.065426
-0.065355
-0.066457
-0.060240
-0.059727
-0.060908
-0.071338
-0.072257
-0.072568
-0.073922
-0.062910
-0.064655
-0.063736
-0.076458
-0.077237
-0.076288
-0.074844
-0.075042