# vtk DataFile Version 2.0
Test
ASCII
DATASET POLYDATA
POINTS 1770 float
0.000000 0.000000 0.000000
1.000000 0.000000 0.000000
1.000000 1.000000 0.000000
0.000000 1.000000 0.000000
0.000000 0.500000 0.000000
1.000000 0.700000 0.000000
0.076923 0.000000 0.000000
0.153846 0.000000 0.000000
0.230769 0.000000 0.000000
0.307692 0.000000 0.000000
0.384615 0.000000 0.000000
0.461538 0.000000 0.000000
0.538462 0.000000 0.000000
0.615385 0.000000 0.000000
0.692308 0.000000 0.000000
0.769231 0.000000 0.000000
0.846154 0.000000 0.000000
0.923077 0.000000 0.000000
1.000000 0.075421 0.000000
1.000000 0.143732 0.000000
1.000000 0.205602 0.000000
1.000000 0.261640 0.000000
1.000000 0.312395 0.000000
1.000000 0.358364 0.000000
1.000000 0.400000 0.000000
1.000000 0.437711 0.000000
1.000000 0.471866 0.000000
1.000000 0.502801 0.000000
1.000000 0.530820 0.000000
1.000000 0.556197 0.000000
1.000000 0.579182 0.000000
1.000000 0.600000 0.000000
1.000000 0.618855 0.000000
1.000000 0.635933 0.000000
1.000000 0.651401 0.000000
1.000000 0.665410 0.000000
1.000000 0.678099 0.000000
1.000000 0.689591 0.000000
1.000000 0.711139 0.000000
1.000000 0.725174 0.000000
1.000000 0.742857 0.000000
1.000000 0.765136 0.000000
1.000000 0.793206 0.000000
1.000000 0.828571 0.000000
1.000000 0.873129 0.000000
1.000000 0.929269 0.000000
0.923077 1.000000 0.000000
0.846154 1.000000 0.000000
0.769231 1.000000 0.000000
0.692308 1.000000 0.000000
0.615385 1.000000 0.000000
0.538462 1.000000 0.000000
0.461538 1.000000 0.000000
0.384615 1.000000 0.000000
0.307692 1.000000 0.000000
0.230769 1.000000 0.000000
0.153846 1.000000 0.000000
0.076923 1.000000 0.000000
0.000000 0.926029 0.000000
0.000000 0.861633 0.000000
0.000000 0.805574 0.000000
0.000000 0.756771 0.000000
0.000000 0.714286 0.000000
0.000000 0.677300 0.000000
0.000000 0.645102 0.000000
0.000000 0.617073 0.000000
0.000000 0.592671 0.000000
0.000000 0.571429 0.000000
0.000000 0.552936 0.000000
0.000000 0.536837 0.000000
0.000000 0.522822 0.000000
0.000000 0.510621 0.000000
0.000000 0.489379 0.000000
0.000000 0.477178 0.000000
0.000000 0.463163 0.000000
0.000000 0.447064 0.000000
0.000000 0.428571 0.000000
0.000000 0.407329 0.000000
0.000000 0.382927 0.000000
0.000000 0.354898 0.000000
0.000000 0.322700 0.000000
0.000000 0.285714 0.000000
0.000000 0.243229 0.000000
0.000000 0.194426 0.000000
0.000000 0.138367 0.000000
0.000000 0.073971 0.000000
0.009804 0.501961 0.000000
0.019608 0.503922 0.000000
0.029412 0.505882 0.000000
0.039216 0.507843 0.000000
0.049020 0.509804 0.000000
0.058824 0.511765 0.000000
0.068627 0.513725 0.000000
0.078431 0.515686 0.000000
0.088235 0.517647 0.000000
0.098039 0.519608 0.000000
0.107843 0.521569 0.000000
0.117647 0.523529 0.000000
0.127451 0.525490 0.000000
0.137255 0.527451 0.000000
0.147059 0.529412 0.000000
0.156863 0.531373 0.000000
0.166667 0.533333 0.000000
0.176471 0.535294 0.000000
0.186275 0.537255 0.000000
0.196078 0.539216 0.000000
0.205882 0.541176 0.000000
0.215686 0.543137 0.000000
0.225490 0.545098 0.000000
0.235294 0.547059 0.000000
0.245098 0.549020 0.000000
0.254902 0.550980 0.000000
0.264706 0.552941 0.000000
0.274510 0.554902 0.000000
0.284314 0.556863 0.000000
0.294118 0.558824 0.000000
0.303922 0.560784 0.000000
0.313725 0.562745 0.000000
0.323529 0.564706 0.000000
0.333333 0.566667 0.000000
0.343137 0.568627 0.000000
0.352941 0.570588 0.000000
0.362745 0.572549 0.000000
0.372549 0.574510 0.000000
0.382353 0.576471 0.000000
0.392157 0.578431 0.000000
0.401961 0.580392 0.000000
0.411765 0.582353 0.000000
0.421569 0.584314 0.000000
0.431373 0.586275 0.000000
0.441176 0.588235 0.000000
0.450980 0.590196 0.000000
0.460784 0.592157 0.000000
0.470588 0.594118 0.000000
0.480392 0.596078 0.000000
0.490196 0.598039 0.000000
0.500000 0.600000 0.000000
0.509804 0.601961 0.000000
0.519608 0.603922 0.000000
0.529412 0.605882 0.000000
0.539216 0.607843 0.000000
0.549020 0.609804 0.000000
0.558824 0.611765 0.000000
0.568627 0.613725 0.000000
0.578431 0.615686 0.000000
0.588235 0.617647 0.000000
0.598039 0.619608 0.000000
0.607843 0.621569 0.000000
0.617647 0.623529 0.000000
0.627451 0.625490 0.000000
0.637255 0.627451 0.000000
0.647059 0.629412 0.000000
0.656863 0.631373 0.000000
0.666667 0.633333 0.000000
0.676471 0.635294 0.000000
0.686275 0.637255 0.000000
0.696078 0.639216 0.000000
0.705882 0.641176 0.000000
0.715686 0.643137 0.000000
0.725490 0.645098 0.000000
0.735294 0.647059 0.000000
0.745098 0.649020 0.000000
0.754902 0.650980 0.000000
0.764706 0.652941 0.000000
0.774510 0.654902 0.000000
0.784314 0.656863 0.000000
0.794118 0.658824 0.000000
0.803922 0.660784 0.000000
0.813725 0.662745 0.000000
0.823529 0.664706 0.000000
0.833333 0.666667 0.000000
0.843137 0.668627 0.000000
0.852941 0.670588 0.000000
0.862745 0.672549 0.000000
0.872549 0.674510 0.000000
0.882353 0.676471 0.000000
0.892157 0.678431 0.000000
0.901961 0.680392 0.000000
0.911765 0.682353 0.000000
0.921569 0.684314 0.000000
0.931373 0.686275 0.000000
0.941176 0.688235 0.000000
0.950980 0.690196 0.000000
0.960784 0.692157 0.000000
0.970588 0.694118 0.000000
0.980392 0.696078 0.000000
0.990196 0.698039 0.000000
0.113534 0.606152 0.000000
0.107142 0.586373 0.000000
0.121751 0.595256 0.000000
0.125314 0.578403 0.000000
0.608008 0.765681 0.000000
0.585349 0.764086 0.000000
0.591336 0.741952 0.000000
0.592072 0.793974 0.000000
0.550258 0.931017 0.000000
0.517159 0.896365 0.000000
0.557866 0.881366 0.000000
0.885592 0.689744 0.000000
0.900640 0.689195 0.000000
0.893881 0.699663 0.000000
0.791014 0.782870 0.000000
0.806073 0.755575 0.000000
0.814238 0.783906 0.000000
0.755950 0.661588 0.000000
0.766977 0.664624 0.000000
0.759150 0.673362 0.000000
0.237587 0.602856 0.000000
0.244276 0.587613 0.000000
0.255222 0.600052 0.000000
0.435458 0.690521 0.000000
0.445365 0.672382 0.000000
0.452783 0.695442 0.000000
0.434168 0.596027 0.000000
0.443497 0.595614 0.000000
0.440408 0.604928 0.000000
0.125631 0.548518 0.000000
0.136149 0.544058 0.000000
0.133888 0.554367 0.000000
0.684531 0.649457 0.000000
0.693022 0.657375 0.000000
0.680758 0.660164 0.000000
0.688513 0.672143 0.000000
0.209804 0.572062 0.000000
0.211391 0.587677 0.000000
0.198823 0.579466 0.000000
0.912173 0.691199 0.000000
0.919923 0.697571 0.000000
0.840788 0.691515 0.000000
0.836260 0.679067 0.000000
0.846581 0.680639 0.000000
0.610270 0.644163 0.000000
0.606363 0.631487 0.000000
0.618571 0.634947 0.000000
0.703833 0.664888 0.000000
0.705328 0.651574 0.000000
0.718551 0.657874 0.000000
0.476110 0.619965 0.000000
0.470756 0.606568 0.000000
0.483603 0.608681 0.000000
0.787587 0.718715 0.000000
0.799121 0.708516 0.000000
0.805593 0.724753 0.000000
0.545957 0.632159 0.000000
0.551865 0.620855 0.000000
0.557339 0.632078 0.000000
0.494856 0.610760 0.000000
0.503640 0.608636 0.000000
0.360926 0.590762 0.000000
0.373577 0.584863 0.000000
0.371469 0.597941 0.000000
0.331595 0.581327 0.000000
0.327955 0.573642 0.000000
0.337441 0.574864 0.000000
0.452770 0.600633 0.000000
0.450058 0.613037 0.000000
0.678157 0.643781 0.000000
0.204164 0.604889 0.000000
0.194170 0.595839 0.000000
0.640959 0.641938 0.000000
0.656321 0.640868 0.000000
0.651180 0.656559 0.000000
0.987799 0.705954 0.000000
0.990005 0.721233 0.000000
0.977245 0.712758 0.000000
0.974986 0.729512 0.000000
0.333802 0.812487 0.000000
0.361509 0.790617 0.000000
0.367317 0.828894 0.000000
0.604086 0.908536 0.000000
0.602873 0.861865 0.000000
0.486055 0.632060 0.000000
0.466853 0.635244 0.000000
0.541673 0.619743 0.000000
0.532472 0.631076 0.000000
0.541658 0.649026 0.000000
0.522313 0.819315 0.000000
0.510522 0.853722 0.000000
0.487163 0.814552 0.000000
0.308272 0.686111 0.000000
0.313305 0.664245 0.000000
0.331890 0.672844 0.000000
0.462242 0.618446 0.000000
0.459244 0.608252 0.000000
0.859980 0.693314 0.000000
0.849777 0.691819 0.000000
0.856777 0.681858 0.000000
0.942362 0.711719 0.000000
0.941048 0.728383 0.000000
0.931633 0.715819 0.000000
0.696422 0.925997 0.000000
0.743778 0.899483 0.000000
0.736714 0.951105 0.000000
0.710099 0.873175 0.000000
0.706855 0.827503 0.000000
0.748341 0.846430 0.000000
0.404569 0.612087 0.000000
0.400941 0.600304 0.000000
0.413129 0.601428 0.000000
0.739879 0.801859 0.000000
0.689244 0.763692 0.000000
0.711842 0.784429 0.000000
0.682971 0.800595 0.000000
0.849502 0.703362 0.000000
0.872437 0.693808 0.000000
0.880424 0.705421 0.000000
0.247911 0.613985 0.000000
0.230071 0.625013 0.000000
0.426705 0.605906 0.000000
0.417314 0.614950 0.000000
0.564489 0.781794 0.000000
0.542753 0.763395 0.000000
0.563888 0.747070 0.000000
0.540876 0.795125 0.000000
0.254442 0.628223 0.000000
0.675859 0.845039 0.000000
0.389585 0.604484 0.000000
0.382141 0.593934 0.000000
0.394023 0.590296 0.000000
0.210190 0.549067 0.000000
0.218913 0.550855 0.000000
0.211545 0.558654 0.000000
0.509032 0.731434 0.000000
0.480547 0.728234 0.000000
0.498097 0.707679 0.000000
0.408331 0.625772 0.000000
0.737928 0.766371 0.000000
0.713411 0.751924 0.000000
0.236129 0.559953 0.000000
0.247527 0.565947 0.000000
0.238129 0.573668 0.000000
0.277601 0.586118 0.000000
0.273407 0.573379 0.000000
0.286542 0.574133 0.000000
0.695186 0.646009 0.000000
0.128809 0.536590 0.000000
0.385032 0.584469 0.000000
0.959668 0.883416 0.000000
0.604963 0.829728 0.000000
0.627628 0.795445 0.000000
0.636557 0.838109 0.000000
0.226927 0.903063 0.000000
0.196567 0.877414 0.000000
0.253614 0.858563 0.000000
0.488755 0.686131 0.000000
0.474772 0.701653 0.000000
0.208074 0.832028 0.000000
0.596571 0.714257 0.000000
0.619682 0.736143 0.000000
0.620249 0.709238 0.000000
0.426920 0.878300 0.000000
0.456147 0.845659 0.000000
0.471012 0.891685 0.000000
0.607192 0.695818 0.000000
0.525672 0.709461 0.000000
0.509369 0.690109 0.000000
0.535964 0.736172 0.000000
0.737088 0.738406 0.000000
0.716812 0.727414 0.000000
0.735580 0.717065 0.000000
0.717714 0.708748 0.000000
0.733899 0.701419 0.000000
0.434815 0.713754 0.000000
0.456218 0.743004 0.000000
0.415116 0.743197 0.000000
0.459688 0.716033 0.000000
0.441105 0.768871 0.000000
[...]
POINT_DATA 1770
SCALARS UX float 1
LOOKUP_TABLE default
-0.084339
0.000000
0.000000
-0.087975
-0.086370
0.004538
-0.077543
-0.070732
-0.063918
-0.057115
-0.050341
-0.043609
-0.036928
-0.030306
-0.023775
-0.017354
-0.011096
-0.005319
0.002708
0.003807
0.004431
0.004850
0.005211
0.005517
0.005786
0.006030
0.006254
0.006464
0.006656
0.006834
0.006992
0.007133
0.007249
0.007328
0.007337
0.007173
0.006832
0.005876
0.003262
0.002521
0.002189
0.002215
0.002423
0.002819
0.003282
0.003639
-0.000000
-0.008701
-0.016745
-0.024295
-0.031642
-0.038862
-0.045999
-0.053069
-0.060086
-0.067078
-0.074042
-0.081003
-0.087960
-0.087999
-0.088082
-0.088187
-0.088301
-0.088416
-0.088526
-0.088624
-0.088704
-0.088753
-0.088747
-0.088611
-0.088198
-0.087416
-0.084642
-0.083971
-0.083681
-0.083550
-0.083528
-0.083575
-0.083642
-0.083736
-0.083842
-0.083958
-0.084079
-0.084192
-0.084290
-0.084347
-0.085466
-0.084566
-0.083657
-0.082754
-0.081856
-0.080961
-0.080074
-0.079181
-0.078267
-0.077360
-0.076461
-0.075567
-0.074664
-0.073773
-0.072876
-0.071978
-0.071046
-0.070113
-0.069199
-0.068307
-0.067424
-0.066535
-0.065645
-0.064748
-0.063845
-0.062936
-0.062078
-0.061185
-0.060285
-0.059408
-0.058523
-0.057643
-0.056763
-0.055883
-0.055027
-0.054180
-0.053307
-0.052436
-0.051549
-0.050670
-0.049776
-0.048887
-0.047997
-0.047103
-0.046208
-0.045315
-0.044417
-0.043523
-0.042620
-0.041719
-0.040857
-0.039986
-0.039102
-0.038220
-0.037334
-0.036443
-0.035559
-0.034675
-0.033803
-0.032917
-0.032039
-0.031140
-0.030273
-0.029396
-0.028515
-0.027629
-0.026742
-0.025855
-0.024967
-0.024089
-0.023170
-0.022285
-0.021397
-0.020501
-0.019611
-0.018709
-0.017789
-0.016871
-0.015974
-0.015078
-0.014169
-0.013261
-0.012372
-0.011488
-0.010616
-0.009729
-0.008845
-0.007973
-0.007092
-0.006219
-0.005333
-0.004455
-0.003604
-0.002758
-0.001857
-0.000961
-0.000069
0.000836
0.001745
0.002677
0.003596
-0.078320
-0.078906
-0.077573
-0.077215
-0.033038
-0.035104
-0.034656
-0.034356
-0.037771
-0.040902
-0.037167
-0.007406
-0.005686
-0.007067
-0.016426
-0.015284
-0.014344
-0.018800
-0.017902
-0.019237
-0.066973
-0.066255
-0.065339
-0.048942
-0.048074
-0.047359
-0.047816
-0.046759
-0.047775
-0.076652
-0.075343
-0.076047
-0.025414
-0.025023
-0.026341
-0.025921
-0.069229
-0.069318
-0.070408
-0.004585
-0.004302
-0.011992
-0.011753
-0.010789
-0.032664
-0.032365
-0.031342
-0.024267
-0.023391
-0.022486
-0.044892
-0.044789
-0.043601
-0.017114
-0.016063
-0.015490
-0.038545
-0.037314
-0.037418
-0.042572
-0.041421
-0.055088
-0.053364
-0.054368
-0.057528
-0.057301
-0.056370
-0.046214
-0.047209
-0.025628
-0.070045
-0.070946
-0.029478
-0.027784
-0.029117
0.002334
0.001661
0.000765
-0.000044
-0.057856
-0.055390
-0.054772
-0.032801
-0.033066
-0.044229
-0.046053
-0.038311
-0.039814
-0.039244
-0.040636
-0.041614
-0.043869
-0.060489
-0.060076
-0.058376
-0.046192
-0.046034
-0.010152
-0.011110
-0.009800
-0.002750
-0.003216
-0.003885
-0.024048
-0.019729
-0.020116
-0.023055
-0.023680
-0.019740
-0.051569
-0.051503
-0.050341
-0.020874
-0.025698
-0.023529
-0.026036
-0.011430
-0.008925
-0.008592
-0.066047
-0.067691
-0.049194
-0.050423
-0.036926
-0.038979
-0.037124
-0.039027
-0.065468
-0.026404
-0.052837
-0.053049
-0.051640
-0.067844
-0.067044
-0.068535
-0.042156
-0.044752
-0.043220
-0.051377
-0.021302
-0.023592
-0.066047
-0.065232
-0.066566
-0.063114
-0.063052
-0.061757
-0.023986
-0.075632
-0.052090
-0.000112
-0.033009
-0.031104
-0.030066
-0.067419
-0.070188
-0.065046
-0.044117
-0.045351
-0.069211
-0.034285
-0.032116
-0.032163
-0.049234
-0.046624
-0.045167
-0.033371
-0.040715
-0.042240
-0.039697
-0.021546
-0.023413
-0.021769
-0.023395
-0.021947
-0.048944
-0.046916
-0.050649
-0.046680
-0.048210
-0.079717
-0.078905
-0.078134
-0.037535
-0.036644
-0.035590
-0.079098
-0.080130
0.000217
-0.001791
-0.001867
0.000522
-0.054000
-0.054049
-0.056200
-0.055892
-0.018323
-0.017064
-0.001079
-0.002081
-0.071048
-0.077359
-0.075182
-0.082446
-0.083021
-0.081637
-0.081865
-0.083911
-0.007431
-0.008729
-0.042622
-0.041551
-0.043268
-0.040927
0.000370
-0.019905
-0.018312
-0.018527
-0.041957
-0.065678
-0.036966
-0.050928
-0.054545
-0.062782
-0.087354
-0.087499
-0.052171
-0.003001
-0.003558
-0.065812
-0.060696
-0.059389
-0.062874
-0.063387
-0.053456
-0.056912
-0.003146
-0.006176
-0.003554
-0.005698
-0.026646
-0.084745
-0.083329
-0.081500
-0.081134
-0.028420
-0.085706
-0.085217
-0.083620
-0.083214
-0.085771
-0.078782
-0.083378
-0.028413
-0.028490
-0.082054
-0.027356
-0.027751
-0.040663
-0.041219
-0.086950
-0.040399
-0.086364
-0.083508
-0.004729
-0.005818
-0.006203
-0.028978
-0.079336
-0.084135
-0.068405
-0.016145
-0.004889
-0.005902
-0.081160
-0.082036
-0.009352
-0.007070
-0.012354
-0.083428
-0.003857
-0.003981
-0.043510
-0.045030
-0.078493
-0.076740
-0.000344
-0.075787
-0.077510
-0.075796
-0.077324
-0.075797
-0.066228
-0.068978
-0.066008
-0.080757
-0.081567
-0.082916
-0.069428
-0.012190
-0.033992
-0.081259
-0.082411
-0.021306
-0.020478
-0.033300
-0.031738
-0.031992
-0.062905
-0.060859
-0.061947
-0.061646
-0.027954
-0.029639
-0.028813
-0.028631
-0.007992
-0.009228
-0.010418
-0.083605
-0.016185
-0.010091
-0.011833
-0.010980
-0.011900
-0.010760
-0.016661
-0.018046
-0.013774
-0.013132
-0.012466
-0.050920
-0.049978
-0.049538
-0.020123
-0.013329
-0.014502
-0.018701
-0.034813
-0.033990
-0.020129
-0.046261
-0.079947
-0.081651
-0.080367
-0.058007
-0.056810
-0.057857
-0.017430
-0.018912
-0.019332
-0.056668
-0.054815
-0.053796
-0.055270
-0.053545
-0.052345
-0.007354
-0.051349
-0.082660
-0.077492
-0.047701
-0.047497
-0.052120
-0.077801
-0.076954
-0.048599
-0.074515
-0.072256
-0.072762
-0.073500
-0.048793
-0.017108
-0.025446
-0.016481
-0.070058
-0.071530
-0.070933
-0.026861
-0.025067
-0.027476
-0.007021
-0.008660
-0.007551
-0.072596
-0.073777
-0.026372
-0.024749
-0.025813
-0.027310
-0.076531
-0.041632
-0.071958
-0.071274
-0.070373
-0.071650
-0.045435
-0.074765
-0.073568
-0.073665
-0.043725
-0.050349
-0.051688
-0.068615
-0.069786
-0.033629
-0.033548
-0.034850
-0.072539
-0.050038
-0.029694
-0.030879
-0.072777
-0.073375
-0.074325
-0.074622
-0.038790
-0.040533
-0.073481
-0.071871
-0.049621
-0.055156
-0.055574
-0.055582
-0.056825
-0.048790
-0.058112
-0.058523
-0.052967
-0.068133
-0.066999
-0.021252
-0.022503
-0.034523
-0.045036
-0.043757
-0.058690
-0.059856
-0.060488
-0.059085
-0.059463
-0.023475
-0.023082
-0.027642
-0.028778
-0.084235
-0.026605
-0.067452
-0.043105
-0.077337
-0.075856
-0.078371
-0.078596
-0.079540
-0.077739
-0.077177
-0.080832
-0.080384
-0.014496
-0.013398
-0.014532
-0.074900
-0.039459
-0.042610
-0.015569
-0.063653
-0.062149
-0.063515
-0.062108
-0.064629
-0.064323
-0.015854
-0.061667
-0.057777
-0.060046
-0.062795
-0.073940
-0.033673
-0.031750
-0.014923
-0.068091
-0.066120
-0.068593
-0.070507
-0.081108
-0.070262
-0.041421
-0.042052
-0.040731
-0.060590
-0.060150
-0.055702
-0.056586
-0.054413
-0.010068
-0.009725
-0.056904
-0.058435
-0.072601
-0.071491
-0.030447
-0.030681
-0.067739
-0.021799
-0.036161
-0.036157
-0.062381
-0.063509
-0.024634
-0.058569
-0.061152
-0.084783
-0.065167
-0.065447
-0.064304
-0.039157
-0.037466
-0.035342
-0.064428
-0.055775
-0.038075
-0.079769
-0.078429
-0.044440
-0.054082
-0.067572
-0.048255
-0.060869
-0.064340
-0.053969
-0.066484
-0.065084
-0.074389
-0.078946
-0.084326
-0.085147
-0.041252
-0.080672
-0.050562
-0.030525
-0.076173
-0.079262
-0.087003
-0.005347
-0.080832
-0.004930
-0.036540
-0.087111
-0.086221
-0.086082
-0.084884
-0.087297
-0.084272
-0.084684
-0.085640
-0.086170
-0.085747
-0.038202
-0.034774
-0.058357
-0.059678
-0.083008
-0.001141
-0.063360
-0.086436
-0.086148
-0.058510
-0.085740
-0.001714
-0.069317
-0.000412
-0.075887
-0.019594
-0.087284
0.001445
0.000473
-0.059616
-0.012616
-0.013856
-0.013431
-0.074564
-0.076063
-0.046139
-0.060833
-0.061754
-0.071309
-0.073033
-0.036317
-0.043036
-0.030054
-0.030868
-0.072625
-0.073279
-0.017101
-0.079052
-0.076140
-0.039684
-0.074668
-0.076672
-0.063768
-0.030370
-0.069505
-0.050400
-0.036188
-0.008883
-0.007873
-0.071155
-0.012385
-0.059223
-0.060851
-0.035156
-0.049445
-0.016954
-0.064525
-0.057519
-0.064733
-0.053735
-0.020966
-0.061674
-0.030646
-0.038239
-0.069710
-0.070848
-0.071443
-0.069344
-0.028623
-0.029945
-0.029698
-0.029508
-0.037594
-0.037728
-0.038612
-0.040395
-0.038389
-0.043559
-0.072526
-0.071639
-0.040361
-0.081945
-0.081678
-0.001303
-0.003868
-0.001703
-0.079730
-0.080141
-0.003730
-0.046420
-0.052345
0.002796
0.001825
0.004089
0.001810
-0.004888
-0.004419
-0.005649
-0.003552
-0.057039
-0.057568
-0.055951
-0.055809
-0.039762
-0.037834
-0.039564
-0.038644
-0.072552
-0.071496
-0.071130
-0.070958
-0.068028
-0.068288
-0.044663
-0.045764
-0.044193
0.000810
-0.072162
-0.070688
-0.071929
-0.071339
-0.069502
-0.067130
-0.067883
-0.065704
-0.036941
-0.037884
-0.036428
-0.030928
-0.030340
-0.020278
-0.020963
-0.018537
-0.022210
-0.013392
-0.012652
-0.014370
-0.011124
-0.030722
-0.047354
-0.048223
-0.048640
-0.000058
0.000104
-0.001076
-0.049082
-0.050060
-0.048929
-0.049584
-0.078275
-0.077910
-0.077043
-0.064354
-0.065027
-0.065881
-0.046712
-0.047934
-0.013506
-0.012981
-0.012021
-0.029694
-0.028455
-0.028436
-0.027339
-0.019937
-0.018477
-0.043557
-0.044111
-0.045043
-0.040044
-0.040724
-0.039568
-0.019800
-0.018647
-0.020126
-0.041126
-0.042227
-0.042708
-0.041446
-0.063097
-0.061870
-0.062771
-0.061630
-0.064316
-0.063549
-0.064710
-0.035801
-0.035814
-0.037573
-0.029104
-0.027030
-0.026603
-0.036278
-0.063163
-0.064217
-0.062426
-0.025666
-0.025836
-0.026785
-0.025743
-0.025889
-0.024513
-0.059352
-0.059401
-0.060924
-0.025165
-0.018849
-0.022140
-0.020273
-0.020943
-0.065140
-0.065427
-0.047037
-0.048086
-0.047051
-0.031791
-0.033023
-0.032706
-0.033022
-0.080744
-0.081454
-0.080231
-0.081131
-0.022601
-0.022942
-0.023943
-0.028621
-0.029559
0.004486
0.005088
0.005828
0.003709
-0.056583
-0.054055
-0.058067
-0.023955
0.000079
-0.001999
-0.039676
-0.038267
-0.052993
-0.051569
-0.052351
-0.023541
-0.023167
-0.024845
-0.027509
0.001800
0.001190
0.000090
-0.000295
-0.052533
-0.012008
-0.011066
-0.011119
-0.026275
-0.025366
-0.026472
-0.065082
-0.063953
-0.033253
-0.034702
-0.033837
-0.041622
-0.040572
-0.041910
-0.056979
-0.054484
-0.072953
-0.074279
-0.073341
-0.074990
-0.052637
-0.053399
-0.054049
-0.023661
-0.031840
-0.031925
-0.000564
0.000928
0.000539
-0.078419
-0.076144
-0.078009
-0.075875
-0.001026
-0.001532
-0.006381
-0.010494
-0.005921
-0.008942
-0.059384
-0.059429
-0.060581
-0.058255
-0.044949
-0.033776
-0.032148
-0.033906
-0.048648
-0.041865
-0.037236
-0.035814
-0.036344
0.005651
0.006244
-0.010070
-0.009139
-0.010886
-0.008334
-0.008597
-0.014517
-0.012981
-0.049643
-0.048996
-0.052814
-0.065642
-0.064322
-0.062609
-0.070617
-0.074497
-0.074473
-0.073329
-0.075605
-0.073756
-0.071295
-0.073607
-0.068854
-0.080131
-0.080280
-0.024737
-0.025992
-0.028055
-0.022121
-0.061656
-0.060019
-0.023236
-0.057104
-0.061288
-0.080055
-0.078937
-0.031424
-0.079270
-0.000857
-0.002410
-0.041243
-0.041361
-0.043621
-0.043798
-0.081009
-0.005391
-0.004184
-0.005772
-0.005172
-0.004024
-0.015072
-0.012899
-0.016740
-0.049883
-0.049374
-0.049226
-0.066053
-0.067245
-0.067161
-0.007056
-0.008392
-0.008191
-0.000712
-0.080485
-0.079000
-0.080518
0.003073
0.001992
0.001015
0.004838
-0.078975
-0.077823
-0.070215
-0.069177
-0.069670
-0.076478
-0.077489
-0.077156
-0.076485
-0.075612
-0.000384
-0.076816
0.004397
0.003925
0.002741
-0.048847
-0.049537
-0.050885
-0.072055
-0.074066
-0.071788
-0.073921
-0.073977
-0.015479
-0.012084
-0.041255
-0.043946
-0.039354
-0.037009
-0.041188
-0.038362
-0.079507
0.001789
0.002666
0.001371
0.002709
-0.014295
-0.013633
-0.013103
-0.013736
-0.012707
-0.002383
-0.002658
-0.042973
-0.014995
-0.081836
-0.065777
-0.065055
-0.015577
-0.014957
-0.059781
-0.003337
-0.005634
-0.023372
-0.025514
-0.024596
-0.024295
-0.032578
-0.008338
-0.009430
-0.009697
-0.004150
-0.005505
-0.009987
-0.008779
-0.011640
-0.016662
-0.072825
-0.073241
0.002616
0.000956
0.003796
0.000744
-0.000561
-0.032787
-0.001328
-0.002546
-0.002679
-0.043220
-0.042269
-0.010249
-0.009299
-0.009819
-0.030536
-0.031813
-0.035337
-0.033398
-0.002632
-0.000571
-0.003828
-0.065595
-0.065761
-0.067252
-0.064238
-0.081986
-0.005677
0.001468
-0.063840
-0.016301
-0.015582
-0.017128
-0.064999
-0.068559
-0.069638
-0.060468
-0.063107
0.003908
0.002839
-0.061888
-0.063515
-0.061010
-0.009844
-0.007653
-0.010498
-0.007351
-0.058918
-0.061312
-0.063414
0.004163
0.003237
0.004204
0.005493
0.005876
-0.013217
-0.017908
-0.010746
-0.013537
-0.002045
-0.013633
-0.017537
-0.015167
0.002981
-0.016856
-0.000091
0.001222
-0.016669
-0.019950
-0.019181
-0.049975
-0.052199
-0.051809
0.004554
0.003163
-0.008510
-0.076493
-0.082226
-0.011895
-0.006519
0.004915
-0.010120
0.000714
0.000202
-0.080574
-0.057772
-0.058324
-0.076466
-0.077579
0.003647
-0.010894
-0.011566
-0.045707
-0.046270
-0.047869
-0.047151
-0.078732
-0.081080
-0.004292
-0.002883
-0.004198
-0.054933
-0.055798
0.004639
-0.005209
-0.003123
-0.004099
-0.006385
-0.006931
-0.078753
-0.006574
-0.068227
-0.068017
-0.029967
-0.027548
-0.031219
-0.028881
-0.014081
-0.014246
-0.015746
-0.014419
-0.015517
-0.015621
-0.009057
-0.007738
-0.007348
-0.012545
-0.013051
-0.005657
-0.036758
-0.035343
-0.034239
-0.007487
-0.007934
-0.006537
-0.075432
-0.074118
-0.075052
-0.074171
-0.033695
-0.011100
-0.011087
-0.044259
-0.012792
-0.009617
-0.019155
-0.007247
-0.007580
-0.008206
-0.073852
-0.072962
-0.074463
-0.007892
-0.077984
-0.016907
-0.016281
-0.034395
-0.033843
-0.045541
-0.001404
-0.001403
-0.001487
-0.000568
-0.001828
-0.002000
0.003412
-0.010966
-0.006003
-0.004888
-0.006092
-0.012145
-0.070231
-0.070372
-0.043905
-0.007174
-0.044748
-0.005176
-0.009283
-0.013292
-0.012195
-0.059657
-0.058723
-0.058302
-0.057800
-0.058893
-0.016923
-0.018603
-0.018613
-0.017169
-0.045430
-0.011534
-0.054215
-0.054226
-0.032804
-0.031974
-0.033626
-0.038772
-0.037350
-0.039276
-0.039646
-0.072045
-0.036944
-0.053461
-0.054194
-0.053034
-0.034480
-0.062292
-0.063037
-0.075669
-0.016126
-0.017374
-0.017507
-0.054223
-0.052781
-0.054662
-0.053607
-0.071837
-0.001777
0.001897
-0.014487
-0.047675
-0.048383
-0.077476
-0.063688
-0.030320
-0.032959
-0.030497
-0.027787
-0.030191
-0.027904
-0.029525
-0.009227
-0.038866
-0.032294
-0.010493
-0.028211
-0.027244
-0.061953
-0.034674
-0.034981
-0.034957
-0.067273
-0.065244
-0.066320
-0.041595
-0.033824
-0.034964
-0.049274
-0.054334
-0.051615
-0.023601
-0.023000
-0.026408
-0.025104
-0.025303
-0.011441
-0.069326
-0.079719
-0.045651
-0.046998
-0.046529
-0.021680
-0.056002
-0.060458
-0.058997
0.001991
-0.068901
-0.041194
-0.040397
-0.003903
-0.050432
-0.053436
-0.050739
-0.023498
-0.021994
-0.017671
-0.050930
-0.052193
-0.075788
-0.018974
-0.017615
-0.017898
-0.016612
-0.057322
-0.056594
-0.068536
-0.070200
-0.069382
-0.069001
-0.043553
-0.042700
-0.042785
-0.027962
-0.025985
-0.049556
-0.047763
-0.046984
-0.076368
-0.075639
-0.032025
-0.035039
-0.034005
-0.037669
-0.016231
-0.015792
-0.018107
-0.020510
-0.020754
-0.019273
-0.050266
-0.052006
-0.051088
-0.050991
-0.060063
-0.061953
-0.061112
-0.061002
-0.062412
-0.006820
-0.021646
-0.021574
0.000368
-0.054199
-0.029941
-0.031003
-0.068576
-0.056443
-0.055270
-0.056790
-0.056350
-0.017156
-0.018331
-0.018841
-0.020066
-0.033851
-0.015449
-0.015482
-0.053758
-0.051231
-0.062918
-0.064911
-0.056847
-0.032427
-0.031414
-0.063689
-0.035828
-0.038709
-0.018853
-0.017583
-0.018678
-0.054683
-0.055826
-0.014234
-0.047370
-0.010376
-0.069811
-0.048783
-0.050000
-0.049442
-0.034357
-0.035719
-0.002447
-0.069684
0.004529
-0.003490
-0.080076
-0.068292
-0.056985
-0.055630
-0.040566
-0.061235
-0.063048
-0.044272
-0.041387
-0.077373
-0.056411
-0.054984
-0.022328
-0.021719
-0.023562
-0.054286
-0.040100
-0.039024
0.002600
-0.022121
-0.022169
-0.067653
-0.052025
-0.052825
-0.076614
-0.064468
-0.065279
-0.065030
-0.031052
-0.030086
0.001608
0.002078
-0.066995
-0.053600
-0.055009
-0.053684
-0.035811
-0.014244
-0.051215
-0.057652
-0.058615
-0.023368
-0.021286
-0.036716
-0.013305
-0.036505
-0.036967
-0.035823
-0.059578
-0.060391
-0.007914
-0.010717
-0.044001
-0.037936
-0.003990
-0.050203
-0.051095
-0.039047
-0.038912
-0.055245
-0.056012
-0.056523
-0.024709
-0.024889
-0.013404
-0.027394
0.005876
-0.078639
-0.075023
-0.021049
-0.020182
0.004225
-0.021164
-0.069327
-0.079347
0.003828
-0.007201
-0.009149
-0.081824
-0.005908
-0.004138
-0.020984
-0.074555
0.005604
-0.073528
-0.031062
-0.082614
-0.082623
-0.083615
-0.024999
-0.082789
0.001332
-0.013883
0.002226
-0.057788
-0.035513
-0.083986
-0.001442
-0.045067
-0.030397
-0.027839
-0.028522
-0.024525
-0.022090
-0.020875
-0.021261
-0.024101
-0.037970
-0.068605
-0.019859
-0.048026
-0.046629
-0.066352
-0.052564
-0.048275
-0.038123
-0.057789
-0.007376
-0.041035
-0.044193
-0.022997
-0.021272
-0.039293
-0.050598
-0.051664
-0.025846
-0.027030
-0.026636
-0.017836
-0.003761
-0.005618
-0.026310
-0.002519
-0.030017
-0.008269
-0.064513
-0.041675
-0.034981
-0.023553
-0.019742
-0.002632
-0.055976
0.002474
-0.060282
-0.022107
-0.003491
-0.005036
-0.003002
-0.009605
-0.071890
-0.005665
-0.076640
-0.075884
-0.053418
-0.031927
-0.071836
-0.072209
-0.020705
-0.022945
-0.009079
-0.011562
-0.002644
-0.078998
-0.026911
-0.028381
-0.034653
-0.042346
-0.019263
-0.045884
-0.046017
-0.053083
-0.073941
-0.029087
-0.043368
-0.044770
-0.004504
-0.045769
-0.047377
-0.046176
-0.029556
-0.058813
-0.063547
-0.050774
-0.001898
-0.028251
-0.015017
-0.011175
-0.070809
-0.026158
-0.027606
-0.065813
-0.024229
-0.022812
-0.023430
-0.029014
-0.029878
-0.066203
-0.067043
-0.067595
-0.026874
-0.027941
-0.028024
-0.031314
-0.030639
-0.032206
-0.056877
-0.061181
-0.039880
-0.055616
-0.067390
-0.066237
-0.045368
-0.038985
-0.057746
-0.033837
-0.040350
-0.044554
-0.058346
SCALARS UY float 1
LOOKUP_TABLE default
-0.000000
-0.000000
-0.210000
-0.210000
-0.103437
-0.148949
-0.000000
-0.000000
-0.000000
-0.000000
-0.000000
-0.000000
-0.000000
-0.000000
-0.000000
-0.000000
-0.000000
-0.000000
-0.016495
-0.030889
-0.043889
-0.055659
-0.066321
-0.075982
-0.084736
-0.092671
-0.099867
-0.106394
-0.112308
-0.117670
-0.122538
-0.126964
-0.130992
-0.134642
-0.137962
-0.141029
-0.143829
-0.146493
-0.151581
-0.154653
-0.158368
-0.163000
-0.168777
-0.176047
-0.185013
-0.196006
-0.210000
-0.210000
-0.210000
-0.210000
-0.210000
-0.210000
-0.210000
-0.210000
-0.210000
-0.210000
-0.210000
-0.210000
-0.194320
-0.180690
-0.168822
-0.158490
-0.149499
-0.141668
-0.134846
-0.128893
-0.123704
-0.119165
-0.115191
-0.111716
-0.108632
-0.105870
-0.100830
-0.098208
-0.095250
-0.091903
-0.088088
-0.083725
-0.078710
-0.072941
-0.066321
-0.058708
-0.049970
-0.039934
-0.028411
-0.015180
-0.104081
-0.104706
-0.105217
-0.105697
-0.106197
-0.106701
-0.107147
-0.107596
-0.108007
-0.108482
-0.108923
-0.109330
-0.109802
-0.110230
-0.110670
-0.111062
-0.111502
-0.111905
-0.112329
-0.112758
-0.113176
-0.113602
-0.114015
-0.114404
-0.114854
-0.115267
-0.115651
-0.116052
-0.116524
-0.116896
-0.117311
-0.117722
-0.118125
-0.118564
-0.118973
-0.119406
-0.119776
-0.120182
-0.120626
-0.121004
-0.121413
-0.121826
-0.122216
-0.122647
-0.123064
-0.123440
-0.123850
-0.124254
-0.124664
-0.125058
-0.125482
-0.125896
-0.126325
-0.126694
-0.127110
-0.127536
-0.127942
-0.128368
-0.128755
-0.129204
-0.129587
-0.130031
-0.130400
-0.130838
-0.131264
-0.131709
-0.132080
-0.132524
-0.132968
-0.133378
-0.133803
-0.134217
-0.134640
-0.135077
-0.135559
-0.135909
-0.136390
-0.136804
-0.137277
-0.137686
-0.138120
-0.138600
-0.139061
-0.139531
-0.139952
-0.140436
-0.140922
-0.141401
-0.141924
-0.142381
-0.142889
-0.143364
-0.143894
-0.144407
-0.144939
-0.145458
-0.145960
-0.146516
-0.147064
-0.147624
-0.148234
-0.127197
-0.123020
-0.124927
-0.121383
-0.160640
-0.160311
-0.155674
-0.166573
-0.195431
-0.188138
-0.184956
-0.145489
-0.145414
-0.147733
-0.164490
-0.158880
-0.164808
-0.138856
-0.139499
-0.141454
-0.126631
-0.123408
-0.126034
-0.144966
-0.141155
-0.145987
-0.124894
-0.124760
-0.126864
-0.114995
-0.114016
-0.116273
-0.136170
-0.137924
-0.138520
-0.141106
-0.120100
-0.123432
-0.121677
-0.145966
-0.147457
-0.145623
-0.142863
-0.143243