# vtk DataFile Version 2.0
Test
ASCII
DATASET POLYDATA
POINTS 1770 float
0.000000 0.000000 0.000000
1.000000 0.000000 0.000000
1.000000 1.000000 0.000000
0.000000 1.000000 0.000000
0.000000 0.500000 0.000000
1.000000 0.700000 0.000000
0.076923 0.000000 0.000000
0.153846 0.000000 0.000000
0.230769 0.000000 0.000000
0.307692 0.000000 0.000000
0.384615 0.000000 0.000000
0.461538 0.000000 0.000000
0.538462 0.000000 0.000000
0.615385 0.000000 0.000000
0.692308 0.000000 0.000000
0.769231 0.000000 0.000000
0.846154 0.000000 0.000000
0.923077 0.000000 0.000000
1.000000 0.075421 0.000000
1.000000 0.143732 0.000000
1.000000 0.205602 0.000000
1.000000 0.261640 0.000000
1.000000 0.312395 0.000000
1.000000 0.358364 0.000000
1.000000 0.400000 0.000000
1.000000 0.437711 0.000000
1.000000 0.471866 0.000000
1.000000 0.502801 0.000000
1.000000 0.530820 0.000000
1.000000 0.556197 0.000000
1.000000 0.579182 0.000000
1.000000 0.600000 0.000000
1.000000 0.618855 0.000000
1.000000 0.635933 0.000000
1.000000 0.651401 0.000000
1.000000 0.665410 0.000000
1.000000 0.678099 0.000000
1.000000 0.689591 0.000000
1.000000 0.711139 0.000000
1.000000 0.725174 0.000000
1.000000 0.742857 0.000000
1.000000 0.765136 0.000000
1.000000 0.793206 0.000000
1.000000 0.828571 0.000000
1.000000 0.873129 0.000000
1.000000 0.929269 0.000000
0.923077 1.000000 0.000000
0.846154 1.000000 0.000000
0.769231 1.000000 0.000000
0.692308 1.000000 0.000000
0.615385 1.000000 0.000000
0.538462 1.000000 0.000000
0.461538 1.000000 0.000000
0.384615 1.000000 0.000000
0.307692 1.000000 0.000000
0.230769 1.000000 0.000000
0.153846 1.000000 0.000000
0.076923 1.000000 0.000000
0.000000 0.926029 0.000000
0.000000 0.861633 0.000000
0.000000 0.805574 0.000000
0.000000 0.756771 0.000000
0.000000 0.714286 0.000000
0.000000 0.677300 0.000000
0.000000 0.645102 0.000000
0.000000 0.617073 0.000000
0.000000 0.592671 0.000000
0.000000 0.571429 0.000000
0.000000 0.552936 0.000000
0.000000 0.536837 0.000000
0.000000 0.522822 0.000000
0.000000 0.510621 0.000000
0.000000 0.489379 0.000000
0.000000 0.477178 0.000000
0.000000 0.463163 0.000000
0.000000 0.447064 0.000000
0.000000 0.428571 0.000000
0.000000 0.407329 0.000000
0.000000 0.382927 0.000000
0.000000 0.354898 0.000000
0.000000 0.322700 0.000000
0.000000 0.285714 0.000000
0.000000 0.243229 0.000000
0.000000 0.194426 0.000000
0.000000 0.138367 0.000000
0.000000 0.073971 0.000000
0.009804 0.501961 0.000000
0.019608 0.503922 0.000000
0.029412 0.505882 0.000000
0.039216 0.507843 0.000000
0.049020 0.509804 0.000000
0.058824 0.511765 0.000000
0.068627 0.513725 0.000000
0.078431 0.515686 0.000000
0.088235 0.517647 0.000000
0.098039 0.519608 0.000000
0.107843 0.521569 0.000000
0.117647 0.523529 0.000000
0.127451 0.525490 0.000000
0.137255 0.527451 0.000000
0.147059 0.529412 0.000000
0.156863 0.531373 0.000000
0.166667 0.533333 0.000000
0.176471 0.535294 0.000000
0.186275 0.537255 0.000000
0.196078 0.539216 0.000000
0.205882 0.541176 0.000000
0.215686 0.543137 0.000000
0.225490 0.545098 0.000000
0.235294 0.547059 0.000000
0.245098 0.549020 0.000000
0.254902 0.550980 0.000000
0.264706 0.552941 0.000000
0.274510 0.554902 0.000000
0.284314 0.556863 0.000000
0.294118 0.558824 0.000000
0.303922 0.560784 0.000000
0.313725 0.562745 0.000000
0.323529 0.564706 0.000000
0.333333 0.566667 0.000000
0.343137 0.568627 0.000000
0.352941 0.570588 0.000000
0.362745 0.572549 0.000000
0.372549 0.574510 0.000000
0.382353 0.576471 0.000000
0.392157 0.578431 0.000000
0.401961 0.580392 0.000000
0.411765 0.582353 0.000000
0.421569 0.584314 0.000000
0.431373 0.586275 0.000000
0.441176 0.588235 0.000000
0.450980 0.590196 0.000000
0.460784 0.592157 0.000000
0.470588 0.594118 0.000000
0.480392 0.596078 0.000000
0.490196 0.598039 0.000000
0.500000 0.600000 0.000000
0.509804 0.601961 0.000000
0.519608 0.603922 0.000000
0.529412 0.605882 0.000000
0.539216 0.607843 0.000000
0.549020 0.609804 0.000000
0.558824 0.611765 0.000000
0.568627 0.613725 0.000000
0.578431 0.615686 0.000000
0.588235 0.617647 0.000000
0.598039 0.619608 0.000000
0.607843 0.621569 0.000000
0.617647 0.623529 0.000000
0.627451 0.625490 0.000000
0.637255 0.627451 0.000000
0.647059 0.629412 0.000000
0.656863 0.631373 0.000000
0.666667 0.633333 0.000000
0.676471 0.635294 0.000000
0.686275 0.637255 0.000000
0.696078 0.639216 0.000000
0.705882 0.641176 0.000000
0.715686 0.643137 0.000000
0.725490 0.645098 0.000000
0.735294 0.647059 0.000000
0.745098 0.649020 0.000000
0.754902 0.650980 0.000000
0.764706 0.652941 0.000000
0.774510 0.654902 0.000000
0.784314 0.656863 0.000000
0.794118 0.658824 0.000000
0.803922 0.660784 0.000000
0.813725 0.662745 0.000000
0.823529 0.664706 0.000000
0.833333 0.666667 0.000000
0.843137 0.668627 0.000000
0.852941 0.670588 0.000000
0.862745 0.672549 0.000000
0.872549 0.674510 0.000000
0.882353 0.676471 0.000000
0.892157 0.678431 0.000000
0.901961 0.680392 0.000000
0.911765 0.682353 0.000000
0.921569 0.684314 0.000000
0.931373 0.686275 0.000000
0.941176 0.688235 0.000000
0.950980 0.690196 0.000000
0.960784 0.692157 0.000000
0.970588 0.694118 0.000000
0.980392 0.696078 0.000000
0.990196 0.698039 0.000000
0.113534 0.606152 0.000000
0.107142 0.586373 0.000000
0.121751 0.595256 0.000000
0.125314 0.578403 0.000000
0.608008 0.765681 0.000000
0.585349 0.764086 0.000000
0.591336 0.741952 0.000000
0.592072 0.793974 0.000000
0.550258 0.931017 0.000000
0.517159 0.896365 0.000000
0.557866 0.881366 0.000000
0.885592 0.689744 0.000000
0.900640 0.689195 0.000000
0.893881 0.699663 0.000000
0.791014 0.782870 0.000000
0.806073 0.755575 0.000000
0.814238 0.783906 0.000000
0.755950 0.661588 0.000000
0.766977 0.664624 0.000000
0.759150 0.673362 0.000000
0.237587 0.602856 0.000000
0.244276 0.587613 0.000000
0.255222 0.600052 0.000000
0.435458 0.690521 0.000000
0.445365 0.672382 0.000000
0.452783 0.695442 0.000000
0.434168 0.596027 0.000000
0.443497 0.595614 0.000000
0.440408 0.604928 0.000000
0.125631 0.548518 0.000000
0.136149 0.544058 0.000000
0.133888 0.554367 0.000000
0.684531 0.649457 0.000000
0.693022 0.657375 0.000000
0.680758 0.660164 0.000000
0.688513 0.672143 0.000000
0.209804 0.572062 0.000000
0.211391 0.587677 0.000000
0.198823 0.579466 0.000000
0.912173 0.691199 0.000000
0.919923 0.697571 0.000000
0.840788 0.691515 0.000000
0.836260 0.679067 0.000000
0.846581 0.680639 0.000000
0.610270 0.644163 0.000000
0.606363 0.631487 0.000000
0.618571 0.634947 0.000000
0.703833 0.664888 0.000000
0.705328 0.651574 0.000000
0.718551 0.657874 0.000000
0.476110 0.619965 0.000000
0.470756 0.606568 0.000000
0.483603 0.608681 0.000000
0.787587 0.718715 0.000000
0.799121 0.708516 0.000000
0.805593 0.724753 0.000000
0.545957 0.632159 0.000000
0.551865 0.620855 0.000000
0.557339 0.632078 0.000000
0.494856 0.610760 0.000000
0.503640 0.608636 0.000000
0.360926 0.590762 0.000000
0.373577 0.584863 0.000000
0.371469 0.597941 0.000000
0.331595 0.581327 0.000000
0.327955 0.573642 0.000000
0.337441 0.574864 0.000000
0.452770 0.600633 0.000000
0.450058 0.613037 0.000000
0.678157 0.643781 0.000000
0.204164 0.604889 0.000000
0.194170 0.595839 0.000000
0.640959 0.641938 0.000000
0.656321 0.640868 0.000000
0.651180 0.656559 0.000000
0.987799 0.705954 0.000000
0.990005 0.721233 0.000000
0.977245 0.712758 0.000000
0.974986 0.729512 0.000000
0.333802 0.812487 0.000000
0.361509 0.790617 0.000000
0.367317 0.828894 0.000000
0.604086 0.908536 0.000000
0.602873 0.861865 0.000000
0.486055 0.632060 0.000000
0.466853 0.635244 0.000000
0.541673 0.619743 0.000000
0.532472 0.631076 0.000000
0.541658 0.649026 0.000000
0.522313 0.819315 0.000000
0.510522 0.853722 0.000000
0.487163 0.814552 0.000000
0.308272 0.686111 0.000000
0.313305 0.664245 0.000000
0.331890 0.672844 0.000000
0.462242 0.618446 0.000000
0.459244 0.608252 0.000000
0.859980 0.693314 0.000000
0.849777 0.691819 0.000000
0.856777 0.681858 0.000000
0.942362 0.711719 0.000000
0.941048 0.728383 0.000000
0.931633 0.715819 0.000000
0.696422 0.925997 0.000000
0.743778 0.899483 0.000000
0.736714 0.951105 0.000000
0.710099 0.873175 0.000000
0.706855 0.827503 0.000000
0.748341 0.846430 0.000000
0.404569 0.612087 0.000000
0.400941 0.600304 0.000000
0.413129 0.601428 0.000000
0.739879 0.801859 0.000000
0.689244 0.763692 0.000000
0.711842 0.784429 0.000000
0.682971 0.800595 0.000000
0.849502 0.703362 0.000000
0.872437 0.693808 0.000000
0.880424 0.705421 0.000000
0.247911 0.613985 0.000000
0.230071 0.625013 0.000000
0.426705 0.605906 0.000000
0.417314 0.614950 0.000000
0.564489 0.781794 0.000000
0.542753 0.763395 0.000000
0.563888 0.747070 0.000000
0.540876 0.795125 0.000000
0.254442 0.628223 0.000000
0.675859 0.845039 0.000000
0.389585 0.604484 0.000000
0.382141 0.593934 0.000000
0.394023 0.590296 0.000000
0.210190 0.549067 0.000000
0.218913 0.550855 0.000000
0.211545 0.558654 0.000000
0.509032 0.731434 0.000000
0.480547 0.728234 0.000000
0.498097 0.707679 0.000000
0.408331 0.625772 0.000000
0.737928 0.766371 0.000000
0.713411 0.751924 0.000000
0.236129 0.559953 0.000000
0.247527 0.565947 0.000000
0.238129 0.573668 0.000000
0.277601 0.586118 0.000000
0.273407 0.573379 0.000000
0.286542 0.574133 0.000000
0.695186 0.646009 0.000000
0.128809 0.536590 0.000000
0.385032 0.584469 0.000000
0.959668 0.883416 0.000000
0.604963 0.829728 0.000000
0.627628 0.795445 0.000000
0.636557 0.838109 0.000000
0.226927 0.903063 0.000000
0.196567 0.877414 0.000000
0.253614 0.858563 0.000000
0.488755 0.686131 0.000000
0.474772 0.701653 0.000000
0.208074 0.832028 0.000000
0.596571 0.714257 0.000000
0.619682 0.736143 0.000000
0.620249 0.709238 0.000000
0.426920 0.878300 0.000000
0.456147 0.845659 0.000000
0.471012 0.891685 0.000000
0.607192 0.695818 0.000000
0.525672 0.709461 0.000000
0.509369 0.690109 0.000000
0.535964 0.736172 0.000000
0.737088 0.738406 0.000000
0.716812 0.727414 0.000000
0.735580 0.717065 0.000000
0.717714 0.708748 0.000000
0.733899 0.701419 0.000000
0.434815 0.713754 0.000000
0.456218 0.743004 0.000000
0.415116 0.743197 0.000000
0.459688 0.716033 0.000000
0.441105 0.768871 0.000000
[...]
POINT_DATA 1770
SCALARS UX float 1
LOOKUP_TABLE default
-0.571084
0.000001
0.000002
-0.789713
-0.607618
0.046701
-0.521909
-0.472322
-0.423258
-0.375357
-0.328888
-0.283296
-0.238414
-0.193752
-0.150474
-0.107642
-0.066574
-0.030672
0.032286
0.042884
0.049684
0.052036
0.054705
0.055925
0.056574
0.057135
0.058305
0.059013
0.059768
0.060615
0.061613
0.062357
0.062824
0.062722
0.062122
0.060060
0.057139
0.052377
0.041568
0.036916
0.033670
0.031931
0.031295
0.032069
0.031616
0.030877
-0.000016
-0.073549
-0.146486
-0.216142
-0.284377
-0.350369
-0.415361
-0.478423
-0.540919
-0.604215
-0.666263
-0.727900
-0.729643
-0.682007
-0.650332
-0.634889
-0.626521
-0.622455
-0.621223
-0.620914
-0.620766
-0.620788
-0.620258
-0.618590
-0.615740
-0.611940
-0.601050
-0.597159
-0.594402
-0.592485
-0.591531
-0.591699
-0.591739
-0.591982
-0.592535
-0.592352
-0.592823
-0.591973
-0.590531
-0.585159
-0.600243
-0.593175
-0.586290
-0.579571
-0.572927
-0.566377
-0.559949
-0.553527
-0.547128
-0.540763
-0.534445
-0.528161
-0.521875
-0.515619
-0.509344
-0.503094
-0.496766
-0.490424
-0.484129
-0.477874
-0.471641
-0.465388
-0.459125
-0.452846
-0.446547
-0.440235
-0.434026
-0.427751
-0.421460
-0.415231
-0.408991
-0.402763
-0.396521
-0.390286
-0.384093
-0.377915
-0.371688
-0.365459
-0.359191
-0.352938
-0.346651
-0.340375
-0.334094
-0.327804
-0.321505
-0.315210
-0.308906
-0.302608
-0.296285
-0.289970
-0.283742
-0.277493
-0.271216
-0.264946
-0.258658
-0.252355
-0.246056
-0.239743
-0.233451
-0.227133
-0.220838
-0.214490
-0.208221
-0.201926
-0.195618
-0.189297
-0.182967
-0.176632
-0.170294
-0.163966
-0.157537
-0.151170
-0.144789
-0.138382
-0.132004
-0.125614
-0.119170
-0.112726
-0.106311
-0.099896
-0.093461
-0.087016
-0.080619
-0.074256
-0.067924
-0.061506
-0.055067
-0.048627
-0.042121
-0.035602
-0.028998
-0.022358
-0.015738
-0.009114
-0.002310
0.004494
0.011349
0.018247
0.025236
0.032306
0.039366
-0.545004
-0.548493
-0.539345
-0.536160
-0.227819
-0.242566
-0.238851
-0.238021
-0.295423
-0.305977
-0.270302
-0.039247
-0.027529
-0.036070
-0.108415
-0.099337
-0.093268
-0.122885
-0.116095
-0.124541
-0.464566
-0.458713
-0.452787
-0.339444
-0.332804
-0.328306
-0.329804
-0.322939
-0.328418
-0.531260
-0.522622
-0.526982
-0.169966
-0.166450
-0.175777
-0.173102
-0.479251
-0.480554
-0.487912
-0.019478
-0.016057
-0.072144
-0.071394
-0.064476
-0.220849
-0.219750
-0.212244
-0.160860
-0.155831
-0.148546
-0.307723
-0.307600
-0.299224
-0.111171
-0.102780
-0.099545
-0.262631
-0.254918
-0.254665
-0.291966
-0.284831
-0.379929
-0.368932
-0.374607
-0.397466
-0.397212
-0.390899
-0.318237
-0.324057
-0.172480
-0.486497
-0.492520
-0.198604
-0.187258
-0.195499
0.033708
0.030399
0.022973
0.017101
-0.414797
-0.391402
-0.394724
-0.244765
-0.234098
-0.303380
-0.316671
-0.261801
-0.271657
-0.268467
-0.284599
-0.298467
-0.308128
-0.421185
-0.417698
-0.405910
-0.316917
-0.316165
-0.058855
-0.065795
-0.057471
-0.003450
-0.007518
-0.012122
-0.179180
-0.139536
-0.156836
-0.160195
-0.161975
-0.134364
-0.355046
-0.354638
-0.346450
-0.141225
-0.175161
-0.159882
-0.178463
-0.068348
-0.050004
-0.047345
-0.458414
-0.470577
-0.338254
-0.346971
-0.256122
-0.270328
-0.256599
-0.271765
-0.454889
-0.182500
-0.363793
-0.365829
-0.356356
-0.471973
-0.466392
-0.474661
-0.292157
-0.310533
-0.299177
-0.354431
-0.143407
-0.159556
-0.457673
-0.451546
-0.460379
-0.436194
-0.435831
-0.426865
-0.161023
-0.525394
-0.360570
0.007748
-0.229366
-0.214713
-0.208636
-0.533497
-0.540038
-0.486436
-0.305043
-0.314168
-0.509380
-0.235553
-0.220566
-0.220191
-0.366272
-0.335316
-0.338993
-0.228402
-0.281422
-0.291799
-0.274747
-0.144391
-0.157527
-0.145166
-0.156633
-0.145650
-0.340000
-0.326361
-0.353110
-0.323928
-0.336780
-0.553174
-0.549493
-0.543308
-0.257773
-0.250460
-0.243752
-0.548496
-0.555679
0.017627
0.002770
0.000564
0.018457
-0.375637
-0.377095
-0.391693
-0.388544
-0.119488
-0.109683
0.008425
-0.000363
-0.590429
-0.649296
-0.589755
-0.572307
-0.576405
-0.566530
-0.569126
-0.583069
-0.038928
-0.049437
-0.293405
-0.286405
-0.298636
-0.281094
0.018759
-0.129923
-0.117770
-0.120114
-0.287835
-0.553725
-0.257903
-0.367592
-0.412918
-0.504147
-0.609944
-0.610524
-0.368575
-0.007787
-0.010032
-0.473070
-0.425675
-0.419591
-0.444816
-0.444255
-0.374492
-0.398522
-0.011801
-0.033460
-0.013416
-0.028959
-0.178358
-0.600766
-0.585073
-0.574119
-0.567811
-0.203039
-0.599003
-0.594413
-0.583260
-0.579502
-0.603004
-0.552154
-0.580978
-0.195839
-0.195404
-0.584237
-0.183548
-0.185845
-0.278405
-0.281798
-0.607243
-0.276165
-0.605267
-0.583586
-0.018963
-0.028005
-0.029827
-0.228648
-0.570678
-0.608184
-0.473557
-0.117882
-0.019632
-0.027265
-0.562935
-0.569828
-0.060800
-0.049766
-0.085435
-0.580075
-0.013488
-0.015568
-0.299064
-0.310021
-0.548062
-0.536550
0.010510
-0.531924
-0.539756
-0.528020
-0.538996
-0.527606
-0.466873
-0.483716
-0.461645
-0.560575
-0.567211
-0.576789
-0.494060
-0.092623
-0.278419
-0.566334
-0.573608
-0.140200
-0.133392
-0.226110
-0.214231
-0.217007
-0.437250
-0.422817
-0.430966
-0.427910
-0.189706
-0.201961
-0.195384
-0.195227
-0.046210
-0.056116
-0.064003
-0.581204
-0.110773
-0.060269
-0.073364
-0.066005
-0.075605
-0.068355
-0.111806
-0.120974
-0.087522
-0.083792
-0.076932
-0.351968
-0.344723
-0.342520
-0.132560
-0.088602
-0.095148
-0.123055
-0.237193
-0.230266
-0.133578
-0.319344
-0.556503
-0.568588
-0.558915
-0.400929
-0.392755
-0.400732
-0.115108
-0.126368
-0.128556
-0.390876
-0.379262
-0.372469
-0.383340
-0.371423
-0.362151
-0.043380
-0.355716
-0.614944
-0.577606
-0.329166
-0.326650
-0.361887
-0.539950
-0.535692
-0.335068
-0.520500
-0.504258
-0.509201
-0.512176
-0.335453
-0.109101
-0.172655
-0.105347
-0.484980
-0.495542
-0.491231
-0.182342
-0.169179
-0.187466
-0.037828
-0.050011
-0.040822
-0.511976
-0.530991
-0.178074
-0.165944
-0.173201
-0.184136
-0.531876
-0.290086
-0.498295
-0.494883
-0.488370
-0.497075
-0.317236
-0.519170
-0.510337
-0.511663
-0.303932
-0.349571
-0.359503
-0.476316
-0.485261
-0.229556
-0.227765
-0.236374
-0.502651
-0.346869
-0.203372
-0.212281
-0.504234
-0.508329
-0.514864
-0.517499
-0.267315
-0.279597
-0.509633
-0.500049
-0.399541
-0.458705
-0.385298
-0.383929
-0.392297
-0.336624
-0.402794
-0.404164
-0.365609
-0.471602
-0.464566
-0.139495
-0.148174
-0.235654
-0.310743
-0.299754
-0.407402
-0.415312
-0.419113
-0.409353
-0.411172
-0.155229
-0.153091
-0.185503
-0.194147
-0.586586
-0.179093
-0.466656
-0.295126
-0.536231
-0.525846
-0.543296
-0.545112
-0.551650
-0.538865
-0.535256
-0.562501
-0.558308
-0.090716
-0.083095
-0.090463
-0.518979
-0.271392
-0.291732
-0.098422
-0.440983
-0.430799
-0.440994
-0.429587
-0.449285
-0.447681
-0.100092
-0.446095
-0.424027
-0.453461
-0.437560
-0.513785
-0.229829
-0.216376
-0.094027
-0.474045
-0.459955
-0.478227
-0.491318
-0.565371
-0.490835
-0.283231
-0.287782
-0.279196
-0.418545
-0.417199
-0.385056
-0.392151
-0.375414
-0.058356
-0.056542
-0.395103
-0.407057
-0.504448
-0.497172
-0.206062
-0.206770
-0.469211
-0.143118
-0.245738
-0.245993
-0.433262
-0.439812
-0.164128
-0.409051
-0.426873
-0.590121
-0.450872
-0.452460
-0.444354
-0.267980
-0.255471
-0.240305
-0.447941
-0.384759
-0.260808
-0.554002
-0.544457
-0.306633
-0.374819
-0.471724
-0.339505
-0.421053
-0.445191
-0.374961
-0.463179
-0.453875
-0.517527
-0.558258
-0.585928
-0.592281
-0.286334
-0.563085
-0.354206
-0.208750
-0.540814
-0.552015
-0.608336
-0.025280
-0.638302
-0.027991
-0.251321
-0.608224
-0.603736
-0.600719
-0.592885
-0.608310
-0.587764
-0.588862
-0.596509
-0.599651
-0.596476
-0.263695
-0.238400
-0.402752
-0.412090
-0.705662
-0.005118
-0.442539
-0.602059
-0.600357
-0.471835
-0.597815
0.004443
-0.480849
0.014122
-0.526704
-0.129111
-0.608241
0.026279
0.014472
-0.411692
-0.077087
-0.086820
-0.082481
-0.519116
-0.530615
-0.319199
-0.420197
-0.426615
-0.496356
-0.508227
-0.250316
-0.347735
-0.204197
-0.210616
-0.503876
-0.547542
-0.111939
-0.551056
-0.529083
-0.272149
-0.519241
-0.533400
-0.443072
-0.205311
-0.483709
-0.347954
-0.247240
-0.050812
-0.043616
-0.498710
-0.076384
-0.410395
-0.422737
-0.240483
-0.341619
-0.109539
-0.446402
-0.396878
-0.449053
-0.370178
-0.139696
-0.428138
-0.206712
-0.260800
-0.490398
-0.499141
-0.502773
-0.488512
-0.200803
-0.210686
-0.208292
-0.207916
-0.264760
-0.264692
-0.270787
-0.266302
-0.256303
-0.293699
-0.511170
-0.504501
-0.273181
-0.579062
-0.576730
-0.001624
-0.020556
-0.004019
-0.561818
-0.565156
-0.019890
-0.308411
-0.350370
0.028755
0.021537
0.039070
0.021686
-0.030608
-0.027884
-0.037037
-0.020812
-0.399658
-0.403209
-0.391763
-0.390574
-0.276960
-0.263264
-0.275718
-0.269333
-0.511351
-0.504578
-0.498463
-0.497035
-0.476416
-0.477842
-0.312737
-0.320317
-0.308849
0.013577
-0.509880
-0.499369
-0.508085
-0.503818
-0.487522
-0.470604
-0.476197
-0.460740
-0.259981
-0.266024
-0.255200
-0.218048
-0.213860
-0.137616
-0.142060
-0.124837
-0.151480
-0.088970
-0.084053
-0.096375
-0.072922
-0.215979
-0.333459
-0.340504
-0.342699
0.004225
0.005722
-0.002729
-0.345430
-0.352389
-0.345280
-0.350128
-0.553590
-0.550471
-0.544436
-0.454483
-0.457428
-0.463925
-0.329701
-0.338387
-0.093292
-0.089869
-0.083036
-0.208711
-0.200381
-0.200083
-0.192343
-0.137849
-0.128484
-0.307585
-0.310799
-0.317603
-0.281632
-0.285779
-0.277205
-0.138701
-0.130476
-0.140754
-0.290335
-0.297529
-0.301410
-0.291564
-0.444840
-0.435959
-0.443195
-0.435173
-0.453688
-0.447569
-0.455980
-0.249159
-0.249526
-0.261974
-0.201077
-0.186040
-0.183317
-0.253282
-0.444252
-0.451854
-0.439317
-0.180185
-0.180425
-0.187053
-0.179272
-0.179736
-0.170029
-0.419569
-0.418524
-0.428518
-0.174008
-0.123657
-0.147212
-0.132980
-0.139528
-0.460342
-0.461625
-0.331595
-0.338654
-0.332137
-0.223222
-0.232082
-0.229085
-0.232856
-0.571734
-0.577161
-0.567741
-0.574217
-0.157478
-0.160798
-0.167445
-0.199908
-0.206176
0.039376
0.043528
0.049226
0.033343
-0.389576
-0.373614
-0.402498
-0.168136
0.008572
-0.007157
-0.278219
-0.269698
-0.372802
-0.362480
-0.368878
-0.163622
-0.160330
-0.173345
-0.192826
0.020965
0.015864
0.007898
0.004629
-0.359939
-0.082216
-0.074813
-0.075962
-0.183985
-0.177984
-0.186151
-0.459883
-0.451953
-0.234292
-0.243758
-0.238504
-0.291038
-0.283978
-0.293887
-0.384975
-0.371380
-0.513514
-0.522877
-0.515835
-0.527642
-0.371845
-0.375507
-0.380608
-0.163456
-0.224482
-0.225158
0.000851
0.012273
0.010007
-0.551675
-0.535109
-0.549126
-0.533568
-0.000309
-0.004387
-0.032465
-0.061296
-0.028715
-0.051866
-0.417295
-0.418599
-0.426659
-0.409888
-0.306576
-0.234358
-0.222985
-0.235518
-0.329861
-0.285915
-0.259243
-0.248962
-0.252524
0.048951
0.052937
-0.066460
-0.060187
-0.072697
-0.054044
-0.055660
-0.090269
-0.080370
-0.341674
-0.339005
-0.366577
-0.459296
-0.449288
-0.437848
-0.496567
-0.525410
-0.525959
-0.518064
-0.533024
-0.521055
-0.500038
-0.516232
-0.482575
-0.563769
-0.564678
-0.162047
-0.172340
-0.185677
-0.144076
-0.429319
-0.418738
-0.153708
-0.397046
-0.424570
-0.565790
-0.557639
-0.217633
-0.560867
0.007790
-0.002886
-0.287168
-0.288238
-0.304244
-0.305225
-0.571147
-0.032888
-0.024318
-0.036099
-0.031020
-0.022734
-0.101645
-0.086112
-0.113364
-0.351787
-0.347194
-0.347536
-0.465484
-0.474618
-0.473061
-0.045783
-0.056019
-0.053823
0.001151
-0.567846
-0.556675
-0.568476
0.030210
0.020251
0.012336
0.044655
-0.556952
-0.548206
-0.495388
-0.488040
-0.492114
-0.540449
-0.547759
-0.543122
-0.538502
-0.533722
0.004850
-0.542089
0.042749
0.038322
0.029574
-0.341394
-0.346524
-0.355928
-0.505865
-0.520062
-0.503845
-0.518961
-0.519623
-0.095048
-0.072238
-0.285120
-0.303589
-0.270756
-0.252748
-0.282923
-0.260692
-0.562108
0.018201
0.024882
0.015701
0.025541
-0.098885
-0.093203
-0.090075
-0.092665
-0.085990
-0.010236
-0.012529
-0.299874
-0.103415
-0.578626
-0.460657
-0.455850
-0.108440
-0.104108
-0.409887
-0.016037
-0.033112
-0.160125
-0.175399
-0.168548
-0.166972
-0.225669
-0.056470
-0.062517
-0.065401
-0.023431
-0.033236
-0.068266
-0.059825
-0.068427
-0.103814
-0.514304
-0.517005
0.029409
0.017452
0.039204
0.014394
0.005146
-0.229462
-0.005270
-0.012795
-0.014703
-0.302329
-0.295170
-0.069200
-0.062081
-0.066671
-0.201839
-0.212696
-0.236906
-0.218602
-0.009925
0.006399
-0.018005
-0.460376
-0.461783
-0.472211
-0.450930
-0.579510
-0.032192
0.017134
-0.447864
-0.113433
-0.107582
-0.116644
-0.452471
-0.478838
-0.484253
-0.422990
-0.441862
0.034414
0.026761
-0.433935
-0.445346
-0.427463
-0.059632
-0.044705
-0.065756
-0.043706
-0.412348
-0.429300
-0.444380
0.037904
0.030900
0.038756
0.049320
0.051937
-0.079939
-0.113610
-0.068518
-0.088110
-0.001017
-0.087471
-0.115225
-0.097234
0.033647
-0.108250
0.005756
0.015660
-0.110059
-0.133290
-0.128666
-0.349226
-0.365063
-0.362077
0.040512
0.029666
-0.053015
-0.540485
-0.582274
-0.073649
-0.035440
0.045069
-0.067724
0.010590
0.008279
-0.569914
-0.405776
-0.409241
-0.539051
-0.546330
0.032838
-0.074890
-0.079544
-0.318948
-0.322683
-0.334257
-0.329324
-0.554040
-0.571647
-0.026934
-0.016814
-0.024893
-0.384668
-0.391002
0.040559
-0.032012
-0.018567
-0.025790
-0.041968
-0.046501
-0.556031
-0.043820
-0.480905
-0.478448
-0.201128
-0.185060
-0.211885
-0.196134
-0.094755
-0.096170
-0.106711
-0.097738
-0.105881
-0.106190
-0.058706
-0.049041
-0.046485
-0.083859
-0.087763
-0.034128
-0.255247
-0.244950
-0.237356
-0.047629
-0.051991
-0.042672
-0.532919
-0.523321
-0.530377
-0.522640
-0.233170
-0.073087
-0.073255
-0.306902
-0.087870
-0.062546
-0.123730
-0.047924
-0.051065
-0.055371
-0.519030
-0.512881
-0.523625
-0.052865
-0.549990
-0.118029
-0.113128
-0.232395
-0.229976
-0.317972
-0.003941
-0.004407
-0.005687
0.001625
-0.008992
-0.010077
0.033450
-0.073036
-0.038378
-0.029933
-0.038752
-0.082255
-0.495155
-0.497181
-0.307661
-0.045980
-0.312496
-0.033787
-0.059884
-0.090009
-0.081947
-0.418044
-0.411551
-0.408246
-0.403993
-0.411347
-0.115966
-0.128470
-0.127796
-0.117108
-0.312943
-0.076902
-0.381155
-0.381925
-0.227952
-0.222379
-0.234328
-0.269509
-0.259140
-0.272619
-0.275566
-0.506748
-0.255823
-0.373883
-0.379257
-0.371180
-0.239943
-0.440180
-0.445466
-0.533018
-0.110993
-0.120703
-0.120899
-0.379770
-0.369610
-0.383077
-0.378040
-0.505016
-0.001392
0.027120
-0.098837
-0.333226
-0.338527
-0.546159
-0.449369
-0.208477
-0.227074
-0.208970
-0.190667
-0.208131
-0.191954
-0.203753
-0.062925
-0.270411
-0.222931
-0.069201
-0.183369
-0.174778
-0.420056
-0.239780
-0.244442
-0.243697
-0.472076
-0.457693
-0.466485
-0.289350
-0.236542
-0.245052
-0.343955
-0.379876
-0.360397
-0.158583
-0.155158
-0.179360
-0.171092
-0.170032
-0.077902
-0.489903
-0.559566
-0.319156
-0.328866
-0.325220
-0.139533
-0.390139
-0.423962
-0.413737
0.021093
-0.486427
-0.287283
-0.281922
-0.021441
-0.350288
-0.372157
-0.353189
-0.160172
-0.148756
-0.122436
-0.358676
-0.368565
-0.533229
-0.129950
-0.120037
-0.121850
-0.112701
-0.401878
-0.396913
-0.481495
-0.493309
-0.487180
-0.485049
-0.305777
-0.299072
-0.301167
-0.191314
-0.178110
-0.345600
-0.332382
-0.327394
-0.535773
-0.529677
-0.218852
-0.239911
-0.233731
-0.259787
-0.107832
-0.105426
-0.122371
-0.141268
-0.142561
-0.131778
-0.351991
-0.364458
-0.357626
-0.357679
-0.421665
-0.435215
-0.428868
-0.428986
-0.437919
-0.042983
-0.150696
-0.148786
0.016158
-0.378232
-0.207282
-0.214456
-0.484238
-0.393945
-0.388263
-0.399382
-0.395661
-0.115978
-0.124564
-0.127923
-0.136900
-0.237593
-0.103496
-0.104082
-0.375471
-0.357226
-0.441748
-0.455981
-0.397746
-0.226292
-0.219564
-0.447556
-0.247428
-0.268091
-0.131760
-0.122954
-0.129884
-0.385937
-0.393514
-0.096753
-0.328507
-0.071309
-0.489960
-0.342202
-0.351132
-0.346499
-0.242444
-0.250864
-0.012798
-0.490209
0.043363
-0.020982
-0.551012
-0.482593
-0.401346
-0.393026
-0.286327
-0.432334
-0.443123
-0.312035
-0.287432
-0.543347
-0.398654
-0.388137
-0.156784
-0.151834
-0.165462
-0.383673
-0.282447
-0.275540
0.026394
-0.152429
-0.153461
-0.478166
-0.367183
-0.371062
-0.537887
-0.452921
-0.459515
-0.457196
-0.216231
-0.209837
0.026986
0.030047
-0.470774
-0.375718
-0.385883
-0.376748
-0.251607
-0.098815
-0.361752
-0.406201
-0.413354
-0.161040
-0.146079
-0.257872
-0.087844
-0.257511
-0.260888
-0.252506
-0.420492
-0.426194
-0.049360
-0.069512
-0.306291
-0.267784
-0.022028
-0.354604
-0.360786
-0.274853
-0.273037
-0.389180
-0.395302
-0.398346
-0.173573
-0.174928
-0.087968
-0.192724
0.050832
-0.547107
-0.514753
-0.147645
-0.140420
0.038908
-0.146830
-0.474083
-0.555845
0.036269
-0.039481
-0.051600
-0.579615
-0.027960
-0.016906
-0.144500
-0.520232
0.049243
-0.509093
-0.215495
-0.586192
-0.585982
-0.593796
-0.172417
-0.585536
0.018296
-0.096293
0.023623
-0.408009
-0.250576
-0.594463
0.000935
-0.316341
-0.212816
-0.192307
-0.197322
-0.171685
-0.154811
-0.146326
-0.134207
-0.154869
-0.265609
-0.483326
-0.137174
-0.337370
-0.327418
-0.468916
-0.369074
-0.338115
-0.268515
-0.407065
-0.046015
-0.284321
-0.307185
-0.158094
-0.145724
-0.274469
-0.357123
-0.363876
-0.178178
-0.186776
-0.184248
-0.121939
-0.021673
-0.032343
-0.171775
-0.012592
-0.208360
-0.044676
-0.444941
-0.292270
-0.245921
-0.164799
-0.124848
-0.012931
-0.391298
0.025886
-0.425936
-0.151390
-0.013186
-0.025749
-0.015320
-0.061851
-0.505004
-0.033915
-0.538634
-0.533052
-0.377524
-0.220776
-0.501758
-0.505547
-0.141106
-0.157509
-0.059336
-0.077271
-0.011820
-0.556049
-0.186610
-0.196937
-0.244170
-0.298721
-0.131444
-0.321674
-0.324527
-0.374813
-0.518430
-0.203238
-0.305026
-0.316180
-0.020189
-0.323229
-0.332155
-0.324970
-0.204773
-0.413756
-0.447187
-0.357585
-0.006378
-0.195652
-0.102740
-0.072226
-0.497177
-0.184082
-0.192929
-0.462603
-0.166727
-0.157675
-0.162164
-0.202017
-0.207760
-0.467574
-0.471316
-0.475376
-0.187295
-0.195234
-0.195100
-0.220640
-0.215594
-0.224430
-0.401657
-0.432276
-0.281410
-0.391264
-0.475752
-0.467378
-0.319599
-0.274951
-0.407993
-0.238349
-0.281957
-0.313401
-0.412324
SCALARS UY float 1
LOOKUP_TABLE default
-0.000001
-0.000001
-1.509981
-1.509999
-0.708523
-1.097228
-0.000001
-0.000001
-0.000001
-0.000001
-0.000001
-0.000001
-0.000001
-0.000001
-0.000001
-0.000001
-0.000001
-0.000001
-0.122242
-0.229066
-0.324836
-0.413413
-0.492971
-0.564404
-0.629098
-0.687767
-0.740643
-0.789127
-0.832600
-0.871757
-0.907235
-0.939559
-0.969009
-0.995562
-1.019609
-1.041816
-1.061903
-1.080461
-1.114904
-1.136194
-1.161960
-1.194067
-1.232965
-1.282059
-1.341060
-1.414680
-1.510002
-1.509999
-1.510000
-1.509999
-1.509999
-1.509999
-1.509999
-1.509999
-1.509999
-1.509999
-1.509999
-1.509999
-1.386437
-1.280168
-1.188904
-1.111160
-1.044535
-0.986927
-0.937080
-0.893238
-0.855399
-0.822247
-0.793183
-0.767873
-0.745493
-0.725665
-0.691039
-0.672136
-0.650639
-0.626429
-0.599092
-0.568337
-0.533112
-0.492607
-0.446687
-0.393776
-0.333881
-0.265487
-0.187814
-0.099077
-0.719081
-0.727983
-0.735223
-0.741350
-0.746977
-0.752079
-0.756452
-0.760495
-0.764161
-0.767837
-0.771274
-0.774483
-0.777726
-0.780770
-0.783858
-0.786671
-0.789660
-0.792595
-0.795606
-0.798611
-0.801605
-0.804663
-0.807724
-0.810720
-0.813888
-0.817009
-0.819970
-0.822979
-0.826137
-0.828998
-0.831907
-0.834829
-0.837740
-0.840728
-0.843663
-0.846680
-0.849588
-0.852573
-0.855667
-0.858613
-0.861636
-0.864677
-0.867653
-0.870719
-0.873739
-0.876667
-0.879689
-0.882703
-0.885708
-0.888675
-0.891691
-0.894703
-0.897743
-0.900629
-0.903654
-0.906733
-0.909801
-0.912926
-0.915992
-0.919164
-0.922120
-0.925235
-0.928093
-0.931149
-0.934191
-0.937256
-0.940163
-0.943281
-0.946368
-0.949395
-0.952510
-0.955650
-0.958914
-0.962142
-0.965396
-0.968214
-0.971397
-0.974456
-0.977700
-0.980808
-0.983933
-0.987221
-0.990376
-0.993447
-0.996512
-0.999935
-1.003542
-1.007403
-1.011594
-1.015875
-1.020779
-1.025911
-1.031405
-1.037027
-1.043058
-1.049184
-1.055618
-1.062622
-1.070033
-1.077994
-1.086921
-0.899006
-0.869479
-0.883106
-0.858185
-1.143127
-1.140386
-1.107437
-1.185217
-1.396799
-1.340761
-1.317939
-1.037717
-1.039834
-1.055107
-1.173648
-1.132957
-1.175797
-0.988303
-0.993054
-1.006765
-0.895803
-0.873144
-0.891966
-1.028227
-1.001412
-1.035851
-0.885991
-0.885286
-0.899782
-0.813221
-0.806488
-0.822203
-0.968634
-0.981066
-0.985270
-1.003854
-0.849187
-0.872732
-0.860254
-1.045804
-1.057918
-1.036225
-1.016478
-1.019315
-0.960499
-0.940898