# vtk DataFile Version 2.0
Test
ASCII
DATASET POLYDATA
POINTS 1770 float
0.000000 0.000000 0.000000
1.000000 0.000000 0.000000
1.000000 1.000000 0.000000
0.000000 1.000000 0.000000
0.000000 0.500000 0.000000
1.000000 0.700000 0.000000
0.076923 0.000000 0.000000
0.153846 0.000000 0.000000
0.230769 0.000000 0.000000
0.307692 0.000000 0.000000
0.384615 0.000000 0.000000
0.461538 0.000000 0.000000
0.538462 0.000000 0.000000
0.615385 0.000000 0.000000
0.692308 0.000000 0.000000
0.769231 0.000000 0.000000
0.846154 0.000000 0.000000
0.923077 0.000000 0.000000
1.000000 0.075421 0.000000
1.000000 0.143732 0.000000
1.000000 0.205602 0.000000
1.000000 0.261640 0.000000
1.000000 0.312395 0.000000
1.000000 0.358364 0.000000
1.000000 0.400000 0.000000
1.000000 0.437711 0.000000
1.000000 0.471866 0.000000
1.000000 0.502801 0.000000
1.000000 0.530820 0.000000
1.000000 0.556197 0.000000
1.000000 0.579182 0.000000
1.000000 0.600000 0.000000
1.000000 0.618855 0.000000
1.000000 0.635933 0.000000
1.000000 0.651401 0.000000
1.000000 0.665410 0.000000
1.000000 0.678099 0.000000
1.000000 0.689591 0.000000
1.000000 0.711139 0.000000
1.000000 0.725174 0.000000
1.000000 0.742857 0.000000
1.000000 0.765136 0.000000
1.000000 0.793206 0.000000
1.000000 0.828571 0.000000
1.000000 0.873129 0.000000
1.000000 0.929269 0.000000
0.923077 1.000000 0.000000
0.846154 1.000000 0.000000
0.769231 1.000000 0.000000
0.692308 1.000000 0.000000
0.615385 1.000000 0.000000
0.538462 1.000000 0.000000
0.461538 1.000000 0.000000
0.384615 1.000000 0.000000
0.307692 1.000000 0.000000
0.230769 1.000000 0.000000
0.153846 1.000000 0.000000
0.076923 1.000000 0.000000
0.000000 0.926029 0.000000
0.000000 0.861633 0.000000
0.000000 0.805574 0.000000
0.000000 0.756771 0.000000
0.000000 0.714286 0.000000
0.000000 0.677300 0.000000
0.000000 0.645102 0.000000
0.000000 0.617073 0.000000
0.000000 0.592671 0.000000
0.000000 0.571429 0.000000
0.000000 0.552936 0.000000
0.000000 0.536837 0.000000
0.000000 0.522822 0.000000
0.000000 0.510621 0.000000
0.000000 0.489379 0.000000
0.000000 0.477178 0.000000
0.000000 0.463163 0.000000
0.000000 0.447064 0.000000
0.000000 0.428571 0.000000
0.000000 0.407329 0.000000
0.000000 0.382927 0.000000
0.000000 0.354898 0.000000
0.000000 0.322700 0.000000
0.000000 0.285714 0.000000
0.000000 0.243229 0.000000
0.000000 0.194426 0.000000
0.000000 0.138367 0.000000
0.000000 0.073971 0.000000
0.009804 0.501961 0.000000
0.019608 0.503922 0.000000
0.029412 0.505882 0.000000
0.039216 0.507843 0.000000
0.049020 0.509804 0.000000
0.058824 0.511765 0.000000
0.068627 0.513725 0.000000
0.078431 0.515686 0.000000
0.088235 0.517647 0.000000
0.098039 0.519608 0.000000
0.107843 0.521569 0.000000
0.117647 0.523529 0.000000
0.127451 0.525490 0.000000
0.137255 0.527451 0.000000
0.147059 0.529412 0.000000
0.156863 0.531373 0.000000
0.166667 0.533333 0.000000
0.176471 0.535294 0.000000
0.186275 0.537255 0.000000
0.196078 0.539216 0.000000
0.205882 0.541176 0.000000
0.215686 0.543137 0.000000
0.225490 0.545098 0.000000
0.235294 0.547059 0.000000
0.245098 0.549020 0.000000
0.254902 0.550980 0.000000
0.264706 0.552941 0.000000
0.274510 0.554902 0.000000
0.284314 0.556863 0.000000
0.294118 0.558824 0.000000
0.303922 0.560784 0.000000
0.313725 0.562745 0.000000
0.323529 0.564706 0.000000
0.333333 0.566667 0.000000
0.343137 0.568627 0.000000
0.352941 0.570588 0.000000
0.362745 0.572549 0.000000
0.372549 0.574510 0.000000
0.382353 0.576471 0.000000
0.392157 0.578431 0.000000
0.401961 0.580392 0.000000
0.411765 0.582353 0.000000
0.421569 0.584314 0.000000
0.431373 0.586275 0.000000
0.441176 0.588235 0.000000
0.450980 0.590196 0.000000
0.460784 0.592157 0.000000
0.470588 0.594118 0.000000
0.480392 0.596078 0.000000
0.490196 0.598039 0.000000
0.500000 0.600000 0.000000
0.509804 0.601961 0.000000
0.519608 0.603922 0.000000
0.529412 0.605882 0.000000
0.539216 0.607843 0.000000
0.549020 0.609804 0.000000
0.558824 0.611765 0.000000
0.568627 0.613725 0.000000
0.578431 0.615686 0.000000
0.588235 0.617647 0.000000
0.598039 0.619608 0.000000
0.607843 0.621569 0.000000
0.617647 0.623529 0.000000
0.627451 0.625490 0.000000
0.637255 0.627451 0.000000
0.647059 0.629412 0.000000
0.656863 0.631373 0.000000
0.666667 0.633333 0.000000
0.676471 0.635294 0.000000
0.686275 0.637255 0.000000
0.696078 0.639216 0.000000
0.705882 0.641176 0.000000
0.715686 0.643137 0.000000
0.725490 0.645098 0.000000
0.735294 0.647059 0.000000
0.745098 0.649020 0.000000
0.754902 0.650980 0.000000
0.764706 0.652941 0.000000
0.774510 0.654902 0.000000
0.784314 0.656863 0.000000
0.794118 0.658824 0.000000
0.803922 0.660784 0.000000
0.813725 0.662745 0.000000
0.823529 0.664706 0.000000
0.833333 0.666667 0.000000
0.843137 0.668627 0.000000
0.852941 0.670588 0.000000
0.862745 0.672549 0.000000
0.872549 0.674510 0.000000
0.882353 0.676471 0.000000
0.892157 0.678431 0.000000
0.901961 0.680392 0.000000
0.911765 0.682353 0.000000
0.921569 0.684314 0.000000
0.931373 0.686275 0.000000
0.941176 0.688235 0.000000
0.950980 0.690196 0.000000
0.960784 0.692157 0.000000
0.970588 0.694118 0.000000
0.980392 0.696078 0.000000
0.990196 0.698039 0.000000
0.113534 0.606152 0.000000
0.107142 0.586373 0.000000
0.121751 0.595256 0.000000
0.125314 0.578403 0.000000
0.608008 0.765681 0.000000
0.585349 0.764086 0.000000
0.591336 0.741952 0.000000
0.592072 0.793974 0.000000
0.550258 0.931017 0.000000
0.517159 0.896365 0.000000
0.557866 0.881366 0.000000
0.885592 0.689744 0.000000
0.900640 0.689195 0.000000
0.893881 0.699663 0.000000
0.791014 0.782870 0.000000
0.806073 0.755575 0.000000
0.814238 0.783906 0.000000
0.755950 0.661588 0.000000
0.766977 0.664624 0.000000
0.759150 0.673362 0.000000
0.237587 0.602856 0.000000
0.244276 0.587613 0.000000
0.255222 0.600052 0.000000
0.435458 0.690521 0.000000
0.445365 0.672382 0.000000
0.452783 0.695442 0.000000
0.434168 0.596027 0.000000
0.443497 0.595614 0.000000
0.440408 0.604928 0.000000
0.125631 0.548518 0.000000
0.136149 0.544058 0.000000
0.133888 0.554367 0.000000
0.684531 0.649457 0.000000
0.693022 0.657375 0.000000
0.680758 0.660164 0.000000
0.688513 0.672143 0.000000
0.209804 0.572062 0.000000
0.211391 0.587677 0.000000
0.198823 0.579466 0.000000
0.912173 0.691199 0.000000
0.919923 0.697571 0.000000
0.840788 0.691515 0.000000
0.836260 0.679067 0.000000
0.846581 0.680639 0.000000
0.610270 0.644163 0.000000
0.606363 0.631487 0.000000
0.618571 0.634947 0.000000
0.703833 0.664888 0.000000
0.705328 0.651574 0.000000
0.718551 0.657874 0.000000
0.476110 0.619965 0.000000
0.470756 0.606568 0.000000
0.483603 0.608681 0.000000
0.787587 0.718715 0.000000
0.799121 0.708516 0.000000
0.805593 0.724753 0.000000
0.545957 0.632159 0.000000
0.551865 0.620855 0.000000
0.557339 0.632078 0.000000
0.494856 0.610760 0.000000
0.503640 0.608636 0.000000
0.360926 0.590762 0.000000
0.373577 0.584863 0.000000
0.371469 0.597941 0.000000
0.331595 0.581327 0.000000
0.327955 0.573642 0.000000
0.337441 0.574864 0.000000
0.452770 0.600633 0.000000
0.450058 0.613037 0.000000
0.678157 0.643781 0.000000
0.204164 0.604889 0.000000
0.194170 0.595839 0.000000
0.640959 0.641938 0.000000
0.656321 0.640868 0.000000
0.651180 0.656559 0.000000
0.987799 0.705954 0.000000
0.990005 0.721233 0.000000
0.977245 0.712758 0.000000
0.974986 0.729512 0.000000
0.333802 0.812487 0.000000
0.361509 0.790617 0.000000
0.367317 0.828894 0.000000
0.604086 0.908536 0.000000
0.602873 0.861865 0.000000
0.486055 0.632060 0.000000
0.466853 0.635244 0.000000
0.541673 0.619743 0.000000
0.532472 0.631076 0.000000
0.541658 0.649026 0.000000
0.522313 0.819315 0.000000
0.510522 0.853722 0.000000
0.487163 0.814552 0.000000
0.308272 0.686111 0.000000
0.313305 0.664245 0.000000
0.331890 0.672844 0.000000
0.462242 0.618446 0.000000
0.459244 0.608252 0.000000
0.859980 0.693314 0.000000
0.849777 0.691819 0.000000
0.856777 0.681858 0.000000
0.942362 0.711719 0.000000
0.941048 0.728383 0.000000
0.931633 0.715819 0.000000
0.696422 0.925997 0.000000
0.743778 0.899483 0.000000
0.736714 0.951105 0.000000
0.710099 0.873175 0.000000
0.706855 0.827503 0.000000
0.748341 0.846430 0.000000
0.404569 0.612087 0.000000
0.400941 0.600304 0.000000
0.413129 0.601428 0.000000
0.739879 0.801859 0.000000
0.689244 0.763692 0.000000
0.711842 0.784429 0.000000
0.682971 0.800595 0.000000
0.849502 0.703362 0.000000
0.872437 0.693808 0.000000
0.880424 0.705421 0.000000
0.247911 0.613985 0.000000
0.230071 0.625013 0.000000
0.426705 0.605906 0.000000
0.417314 0.614950 0.000000
0.564489 0.781794 0.000000
0.542753 0.763395 0.000000
0.563888 0.747070 0.000000
0.540876 0.795125 0.000000
0.254442 0.628223 0.000000
0.675859 0.845039 0.000000
0.389585 0.604484 0.000000
0.382141 0.593934 0.000000
0.394023 0.590296 0.000000
0.210190 0.549067 0.000000
0.218913 0.550855 0.000000
0.211545 0.558654 0.000000
0.509032 0.731434 0.000000
0.480547 0.728234 0.000000
0.498097 0.707679 0.000000
0.408331 0.625772 0.000000
0.737928 0.766371 0.000000
0.713411 0.751924 0.000000
0.236129 0.559953 0.000000
0.247527 0.565947 0.000000
0.238129 0.573668 0.000000
0.277601 0.586118 0.000000
0.273407 0.573379 0.000000
0.286542 0.574133 0.000000
0.695186 0.646009 0.000000
0.128809 0.536590 0.000000
0.385032 0.584469 0.000000
0.959668 0.883416 0.000000
0.604963 0.829728 0.000000
0.627628 0.795445 0.000000
0.636557 0.838109 0.000000
0.226927 0.903063 0.000000
0.196567 0.877414 0.000000
0.253614 0.858563 0.000000
0.488755 0.686131 0.000000
0.474772 0.701653 0.000000
0.208074 0.832028 0.000000
0.596571 0.714257 0.000000
0.619682 0.736143 0.000000
0.620249 0.709238 0.000000
0.426920 0.878300 0.000000
0.456147 0.845659 0.000000
0.471012 0.891685 0.000000
0.607192 0.695818 0.000000
0.525672 0.709461 0.000000
0.509369 0.690109 0.000000
0.535964 0.736172 0.000000
0.737088 0.738406 0.000000
0.716812 0.727414 0.000000
0.735580 0.717065 0.000000
0.717714 0.708748 0.000000
0.733899 0.701419 0.000000
0.434815 0.713754 0.000000
0.456218 0.743004 0.000000
0.415116 0.743197 0.000000
0.459688 0.716033 0.000000
0.441105 0.768871 0.000000
[...]
POINT_DATA 1770
SCALARS UX float 1
LOOKUP_TABLE default
-0.279411
0.000000
0.000000
-0.306938
-0.290915
0.016646
-0.256387
-0.233279
-0.210193
-0.187256
-0.164562
-0.142123
-0.119956
-0.098031
-0.076615
-0.055570
-0.035140
-0.016631
0.011497
0.015819
0.018332
0.019771
0.021007
0.021948
0.022701
0.023365
0.023987
0.024555
0.025084
0.025583
0.026032
0.026439
0.026747
0.026894
0.026734
0.025784
0.024239
0.020895
0.012593
0.009733
0.008096
0.007811
0.008299
0.009508
0.010977
0.012587
-0.000003
-0.030310
-0.058841
-0.085657
-0.111614
-0.136884
-0.161756
-0.186269
-0.210534
-0.234731
-0.258781
-0.282816
-0.303981
-0.301824
-0.300504
-0.299822
-0.299502
-0.299419
-0.299491
-0.299618
-0.299724
-0.299758
-0.299549
-0.298767
-0.297020
-0.294275
-0.285533
-0.282965
-0.281597
-0.280836
-0.280586
-0.280703
-0.280863
-0.281133
-0.281429
-0.281706
-0.281982
-0.282092
-0.281976
-0.281268
-0.287743
-0.284618
-0.281496
-0.278408
-0.275337
-0.272285
-0.269262
-0.266224
-0.263140
-0.260079
-0.257042
-0.254021
-0.250980
-0.247969
-0.244940
-0.241916
-0.238807
-0.235691
-0.232630
-0.229624
-0.226644
-0.223651
-0.220654
-0.217642
-0.214614
-0.211574
-0.208659
-0.205659
-0.202639
-0.199681
-0.196703
-0.193740
-0.190769
-0.187804
-0.184895
-0.182011
-0.179069
-0.176127
-0.173146
-0.170185
-0.167186
-0.164200
-0.161210
-0.158211
-0.155205
-0.152207
-0.149198
-0.146198
-0.143172
-0.140152
-0.137233
-0.134291
-0.131317
-0.128350
-0.125369
-0.122376
-0.119399
-0.116419
-0.113468
-0.110484
-0.107520
-0.104498
-0.101562
-0.098598
-0.095623
-0.092635
-0.089643
-0.086649
-0.083654
-0.080680
-0.077600
-0.074604
-0.071605
-0.068583
-0.065577
-0.062541
-0.059454
-0.056371
-0.053339
-0.050310
-0.047250
-0.044188
-0.041177
-0.038185
-0.035223
-0.032214
-0.029212
-0.026234
-0.023232
-0.020254
-0.017238
-0.014235
-0.011297
-0.008370
-0.005290
-0.002225
0.000831
0.003926
0.007043
0.010224
0.013386
-0.264307
-0.266109
-0.261665
-0.260250
-0.112129
-0.119115
-0.117530
-0.116677
-0.130349
-0.140281
-0.127039
-0.023952
-0.018137
-0.022983
-0.055835
-0.051887
-0.048760
-0.062639
-0.059576
-0.064260
-0.225769
-0.223066
-0.220180
-0.165565
-0.162517
-0.160247
-0.160407
-0.156876
-0.160360
-0.257676
-0.253144
-0.255740
-0.084990
-0.083757
-0.088345
-0.087242
-0.232845
-0.233510
-0.237064
-0.014401
-0.013414
-0.039793
-0.038717
-0.035443
-0.109629
-0.108402
-0.104950
-0.081328
-0.078161
-0.075100
-0.150865
-0.150218
-0.146214
-0.057887
-0.054133
-0.052412
-0.129459
-0.125053
-0.125602
-0.142755
-0.138918
-0.184997
-0.179086
-0.182696
-0.193127
-0.192326
-0.189219
-0.155016
-0.158604
-0.085730
-0.236221
-0.239174
-0.098682
-0.092953
-0.097766
0.009372
0.006828
0.003857
0.000618
-0.196953
-0.188193
-0.186654
-0.112526
-0.112671
-0.148921
-0.155221
-0.128406
-0.133773
-0.132283
-0.138139
-0.141909
-0.149130
-0.204556
-0.203011
-0.197330
-0.155272
-0.154496
-0.033490
-0.036759
-0.032092
-0.008310
-0.010377
-0.012353
-0.082513
-0.067363
-0.069485
-0.078525
-0.080553
-0.067217
-0.173510
-0.172982
-0.169031
-0.071000
-0.087276
-0.079970
-0.088504
-0.038145
-0.029273
-0.028423
-0.222755
-0.228458
-0.165216
-0.169672
-0.125344
-0.132227
-0.125892
-0.132531
-0.220960
-0.089830
-0.177643
-0.178131
-0.173264
-0.227861
-0.225176
-0.230157
-0.142844
-0.151602
-0.146327
-0.173164
-0.072371
-0.080097
-0.221731
-0.219052
-0.223774
-0.212312
-0.211754
-0.207361
-0.080197
-0.254051
-0.174813
-0.000256
-0.112226
-0.105659
-0.102261
-0.232179
-0.240861
-0.222595
-0.149241
-0.153496
-0.236258
-0.116161
-0.108920
-0.108950
-0.168617
-0.158978
-0.154918
-0.112945
-0.137876
-0.142922
-0.134550
-0.073098
-0.079380
-0.073718
-0.079182
-0.074163
-0.165701
-0.159000
-0.171646
-0.158058
-0.163548
-0.267928
-0.265168
-0.262523
-0.126929
-0.123681
-0.120332
-0.265892
-0.269575
0.001082
-0.005690
-0.006215
0.001940
-0.182729
-0.183106
-0.190255
-0.188998
-0.061884
-0.057442
-0.002363
-0.005816
-0.245982
-0.267932
-0.258429
-0.277593
-0.279283
-0.274536
-0.275215
-0.282688
-0.024604
-0.029302
-0.143944
-0.140487
-0.146288
-0.138148
0.002598
-0.066976
-0.061232
-0.062358
-0.141460
-0.227969
-0.125668
-0.173664
-0.187139
-0.216705
-0.294947
-0.295272
-0.177318
-0.009004
-0.010958
-0.223957
-0.205755
-0.201675
-0.213477
-0.214784
-0.181330
-0.192940
-0.010630
-0.020987
-0.012059
-0.019336
-0.089230
-0.287419
-0.282089
-0.276098
-0.274449
-0.096986
-0.289678
-0.287782
-0.282453
-0.280859
-0.290413
-0.266629
-0.280328
-0.096575
-0.096754
-0.278499
-0.092149
-0.093204
-0.137016
-0.138661
-0.293686
-0.135568
-0.292152
-0.282317
-0.015551
-0.019484
-0.020478
-0.100200
-0.269765
-0.286235
-0.230124
-0.055355
-0.015678
-0.019009
-0.273090
-0.276444
-0.031936
-0.024468
-0.042326
-0.281278
-0.012851
-0.013440
-0.146766
-0.151946
-0.265342
-0.259546
-0.001111
-0.256610
-0.261692
-0.255979
-0.261211
-0.255858
-0.224638
-0.233639
-0.223487
-0.272029
-0.275102
-0.279675
-0.235817
-0.042064
-0.118121
-0.273151
-0.277020
-0.071790
-0.068486
-0.112243
-0.106578
-0.107918
-0.212450
-0.205542
-0.209353
-0.208063
-0.094651
-0.100382
-0.097458
-0.097063
-0.027151
-0.031374
-0.035383
-0.281170
-0.055228
-0.034090
-0.040061
-0.036935
-0.040457
-0.036619
-0.056747
-0.061404
-0.046656
-0.044590
-0.042003
-0.171848
-0.168507
-0.167284
-0.068000
-0.045449
-0.049342
-0.063331
-0.117448
-0.114184
-0.068203
-0.156257
-0.269825
-0.275603
-0.271091
-0.195373
-0.191445
-0.195152
-0.059195
-0.064280
-0.065612
-0.190575
-0.184905
-0.181586
-0.186674
-0.180937
-0.176680
-0.024981
-0.173487
-0.282295
-0.264778
-0.161008
-0.159984
-0.176276
-0.261422
-0.258559
-0.163896
-0.251972
-0.244272
-0.246231
-0.248287
-0.164186
-0.057250
-0.086329
-0.054750
-0.235488
-0.240719
-0.238355
-0.091041
-0.084922
-0.093237
-0.023723
-0.029289
-0.025341
-0.246096
-0.250952
-0.089244
-0.083659
-0.087161
-0.092272
-0.257092
-0.141313
-0.241849
-0.239349
-0.236299
-0.241424
-0.154188
-0.252024
-0.247842
-0.248364
-0.148249
-0.170352
-0.174974
-0.231364
-0.235506
-0.112706
-0.112399
-0.116897
-0.244152
-0.169179
-0.100746
-0.104815
-0.244508
-0.246869
-0.249954
-0.251325
-0.131293
-0.137145
-0.246805
-0.241419
-0.171650
-0.191422
-0.186562
-0.186544
-0.190798
-0.163675
-0.195044
-0.196513
-0.178505
-0.228945
-0.224935
-0.070942
-0.075426
-0.115701
-0.151107
-0.146957
-0.198182
-0.202028
-0.203976
-0.199280
-0.200283
-0.078792
-0.077848
-0.092613
-0.097103
-0.284245
-0.089000
-0.226706
-0.144817
-0.260377
-0.255370
-0.263560
-0.264635
-0.267748
-0.261487
-0.259370
-0.271673
-0.270139
-0.048013
-0.044296
-0.048473
-0.251734
-0.133399
-0.143390
-0.051653
-0.214525
-0.209577
-0.214344
-0.209128
-0.218232
-0.217361
-0.053074
-0.210120
-0.197324
-0.205838
-0.212372
-0.248361
-0.113807
-0.107378
-0.050130
-0.230005
-0.223305
-0.231858
-0.238228
-0.273935
-0.237668
-0.139101
-0.141121
-0.136561
-0.203462
-0.201911
-0.187747
-0.190980
-0.183218
-0.033513
-0.032594
-0.192245
-0.197707
-0.244844
-0.241241
-0.102730
-0.103109
-0.228099
-0.073131
-0.121314
-0.121633
-0.209465
-0.213204
-0.083020
-0.198350
-0.207007
-0.285964
-0.219316
-0.220024
-0.216157
-0.131250
-0.126138
-0.118954
-0.216378
-0.187694
-0.128543
-0.268847
-0.264277
-0.150165
-0.181525
-0.228580
-0.163984
-0.205021
-0.216597
-0.182516
-0.224708
-0.220134
-0.249891
-0.267661
-0.283859
-0.286982
-0.139885
-0.272639
-0.171582
-0.103461
-0.258471
-0.267601
-0.294027
-0.018022
-0.277919
-0.016670
-0.123708
-0.293188
-0.290189
-0.289600
-0.285527
-0.293975
-0.283397
-0.284879
-0.288115
-0.290112
-0.288837
-0.129423
-0.117678
-0.196232
-0.200733
-0.287776
-0.003977
-0.214479
-0.291454
-0.290659
-0.202183
-0.289426
-0.004985
-0.232737
-0.000265
-0.255713
-0.065340
-0.294244
0.006270
0.001621
-0.200203
-0.042204
-0.046671
-0.044742
-0.251732
-0.257054
-0.156019
-0.204609
-0.207638
-0.240761
-0.246509
-0.123072
-0.149079
-0.101636
-0.104509
-0.244702
-0.250536
-0.057973
-0.267029
-0.256756
-0.133040
-0.251912
-0.258723
-0.214146
-0.101681
-0.234683
-0.169094
-0.121279
-0.028983
-0.025569
-0.240910
-0.040871
-0.198776
-0.204310
-0.117829
-0.165886
-0.056370
-0.216690
-0.193434
-0.218299
-0.180634
-0.070064
-0.207072
-0.102776
-0.128619
-0.233574
-0.237570
-0.239458
-0.232484
-0.095570
-0.100254
-0.099149
-0.098984
-0.126440
-0.126959
-0.129910
-0.132303
-0.126101
-0.143579
-0.244141
-0.241116
-0.133096
-0.275128
-0.274170
-0.002162
-0.010876
-0.003420
-0.267468
-0.268909
-0.010502
-0.152491
-0.172420
0.011647
0.008380
0.016179
0.008407
-0.015084
-0.013790
-0.018070
-0.010532
-0.190578
-0.192309
-0.186855
-0.186327
-0.132285
-0.125786
-0.131678
-0.128627
-0.243375
-0.239999
-0.238051
-0.237401
-0.227511
-0.228292
-0.149078
-0.152729
-0.147358
0.004833
-0.242600
-0.237490
-0.242000
-0.240034
-0.232621
-0.224569
-0.227162
-0.219780
-0.123618
-0.126602
-0.121565
-0.103765
-0.101854
-0.066348
-0.068575
-0.060403
-0.072886
-0.043196
-0.040785
-0.046615
-0.035555
-0.102757
-0.158560
-0.161863
-0.162930
0.000836
0.001197
-0.002958
-0.165193
-0.168485
-0.164575
-0.166700
-0.263420
-0.261795
-0.258990
-0.216455
-0.218754
-0.221651
-0.156720
-0.161170
-0.045092
-0.043024
-0.039831
-0.099910
-0.095379
-0.095589
-0.091555
-0.066920
-0.062029
-0.146264
-0.148462
-0.151610
-0.133953
-0.136058
-0.132071
-0.066046
-0.062191
-0.067545
-0.137991
-0.142096
-0.143545
-0.138664
-0.211519
-0.207338
-0.210638
-0.206815
-0.215695
-0.212933
-0.216896
-0.119048
-0.119174
-0.125090
-0.096289
-0.089204
-0.087860
-0.120850
-0.211504
-0.215089
-0.209079
-0.086238
-0.086902
-0.090099
-0.085543
-0.085902
-0.081275
-0.199488
-0.199815
-0.204924
-0.083320
-0.061013
-0.072123
-0.065735
-0.068180
-0.218784
-0.219459
-0.158335
-0.161853
-0.158206
-0.106217
-0.110398
-0.109110
-0.110721
-0.271894
-0.274165
-0.269802
-0.272724
-0.075082
-0.076538
-0.079737
-0.096261
-0.099388
0.016142
0.018542
0.020861
0.013486
-0.187915
-0.179658
-0.193250
-0.080073
0.002500
-0.004640
-0.133470
-0.128676
-0.177373
-0.172516
-0.175378
-0.078113
-0.076700
-0.082628
-0.091792
0.008163
0.005971
0.002291
0.000889
-0.174138
-0.039383
-0.035995
-0.036422
-0.087602
-0.084715
-0.088638
-0.218858
-0.214783
-0.111917
-0.116777
-0.113760
-0.138809
-0.135364
-0.139968
-0.188240
-0.180377
-0.244577
-0.249052
-0.245803
-0.251403
-0.176997
-0.179649
-0.181834
-0.078281
-0.106767
-0.107348
-0.000555
0.004601
0.003495
-0.262951
-0.255202
-0.261592
-0.254325
-0.001457
-0.003276
-0.018688
-0.032572
-0.017124
-0.027452
-0.198725
-0.199099
-0.202952
-0.195051
-0.148648
-0.112070
-0.106659
-0.112601
-0.160712
-0.138415
-0.123852
-0.118995
-0.120700
0.020101
0.022699
-0.032311
-0.029253
-0.035176
-0.026427
-0.027242
-0.046173
-0.041079
-0.164695
-0.162769
-0.175714
-0.219378
-0.214775
-0.209127
-0.236591
-0.250839
-0.250638
-0.246675
-0.254577
-0.247939
-0.238673
-0.246488
-0.230373
-0.268705
-0.269115
-0.080525
-0.084892
-0.091689
-0.071778
-0.205561
-0.200223
-0.075698
-0.190194
-0.204007
-0.268929
-0.265160
-0.104135
-0.266686
-0.000145
-0.005202
-0.137159
-0.137642
-0.145242
-0.145747
-0.271825
-0.016434
-0.012383
-0.017845
-0.015610
-0.011732
-0.049076
-0.041715
-0.054654
-0.167210
-0.165192
-0.165189
-0.221424
-0.225624
-0.225107
-0.022310
-0.027023
-0.026137
-0.001774
-0.270116
-0.265023
-0.270307
0.011170
0.008195
0.004544
0.018651
-0.265032
-0.261048
-0.235620
-0.232108
-0.234015
-0.257195
-0.260832
-0.258724
-0.256499
-0.253922
0.000834
-0.257921
0.017480
0.015739
0.011752
-0.162880
-0.165286
-0.169780
-0.241317
-0.248124
-0.240386
-0.247611
-0.247851
-0.049364
-0.038205
-0.136806
-0.145798
-0.130286
-0.122217
-0.136355
-0.126574
-0.267873
0.007125
0.010073
0.005455
0.010532
-0.047246
-0.044690
-0.043098
-0.045919
-0.042451
-0.006028
-0.007040
-0.143146
-0.049440
-0.275801
-0.219927
-0.217535
-0.051797
-0.049870
-0.198364
-0.008956
-0.016837
-0.076895
-0.084131
-0.080951
-0.080094
-0.107967
-0.027550
-0.031356
-0.032261
-0.012082
-0.016684
-0.033173
-0.028922
-0.036482
-0.053292
-0.244630
-0.246604
0.011456
0.005912
0.015627
0.004931
0.000580
-0.110265
-0.003662
-0.008009
-0.008401
-0.144177
-0.140869
-0.033299
-0.029980
-0.032014
-0.099861
-0.104360
-0.116113
-0.109055
-0.006400
0.000788
-0.010363
-0.219487
-0.220095
-0.225111
-0.214933
-0.275307
-0.016770
0.005636
-0.213536
-0.054609
-0.052215
-0.057361
-0.216763
-0.229015
-0.232256
-0.201951
-0.210910
0.014424
0.010494
-0.206921
-0.212395
-0.203902
-0.030638
-0.023283
-0.033005
-0.022382
-0.196776
-0.204867
-0.212008
0.015982
0.012836
0.016248
0.020778
0.022014
-0.041713
-0.057538
-0.033968
-0.043362
-0.003931
-0.043529
-0.056692
-0.048576
0.012962
-0.054173
0.001477
0.005964
-0.053884
-0.064928
-0.062451
-0.166632
-0.174158
-0.172784
0.017211
0.012393
-0.026465
-0.257484
-0.276357
-0.037505
-0.019320
0.018854
-0.032704
0.003225
0.001353
-0.271515
-0.193275
-0.195038
-0.257485
-0.261213
0.013801
-0.035946
-0.038475
-0.152238
-0.154062
-0.159519
-0.157150
-0.263998
-0.272038
-0.013837
-0.008966
-0.013642
-0.183453
-0.186432
0.017237
-0.017076
-0.009525
-0.012963
-0.020357
-0.022579
-0.265279
-0.021563
-0.228776
-0.227857
-0.098330
-0.090300
-0.102748
-0.094959
-0.045787
-0.046420
-0.051448
-0.047093
-0.050880
-0.051130
-0.028722
-0.024169
-0.022935
-0.040610
-0.042410
-0.017125
-0.122021
-0.117183
-0.113529
-0.024752
-0.026310
-0.021533
-0.253587
-0.248938
-0.252528
-0.248809
-0.111612
-0.035563
-0.035609
-0.147004
-0.042708
-0.030558
-0.061853
-0.023184
-0.024647
-0.026664
-0.247457
-0.244469
-0.249567
-0.026108
-0.262639
-0.056491
-0.053981
-0.113207
-0.111523
-0.151750
-0.002964
-0.003091
-0.003568
-0.000301
-0.005242
-0.005580
0.013710
-0.036525
-0.018778
-0.014900
-0.020083
-0.039571
-0.236375
-0.236716
-0.146595
-0.022557
-0.149135
-0.016753
-0.029349
-0.043351
-0.039584
-0.199368
-0.196248
-0.194748
-0.192918
-0.196536
-0.055647
-0.061444
-0.061302
-0.056329
-0.150640
-0.037264
-0.181418
-0.181629
-0.108975
-0.106267
-0.111888
-0.128796
-0.123932
-0.130381
-0.131703
-0.241438
-0.122473
-0.178387
-0.180909
-0.177036
-0.114647
-0.209491
-0.211831
-0.253808
-0.053125
-0.057589
-0.057808
-0.181098
-0.176254
-0.182637
-0.179692
-0.240680
-0.003206
0.009442
-0.047465
-0.158981
-0.161459
-0.259967
-0.214250
-0.100093
-0.108962
-0.100570
-0.091591
-0.099769
-0.092080
-0.097609
-0.030241
-0.129192
-0.106826
-0.033662
-0.091829
-0.088284
-0.204961
-0.114837
-0.116570
-0.116351
-0.225130
-0.218264
-0.222134
-0.138259
-0.112749
-0.116698
-0.164190
-0.181290
-0.172063
-0.077158
-0.075232
-0.086714
-0.082460
-0.082822
-0.038165
-0.233128
-0.266997
-0.152257
-0.156837
-0.155165
-0.070161
-0.186635
-0.202130
-0.197235
0.008496
-0.231803
-0.137167
-0.134574
-0.011178
-0.167773
-0.178009
-0.168928
-0.077134
-0.071945
-0.059295
-0.170551
-0.175143
-0.254078
-0.062418
-0.057764
-0.058645
-0.054307
-0.191593
-0.189190
-0.229489
-0.235122
-0.232301
-0.231110
-0.145553
-0.142528
-0.143202
-0.092078
-0.085566
-0.165071
-0.158929
-0.156395
-0.255736
-0.253068
-0.105600
-0.115718
-0.112374
-0.124730
-0.052529
-0.051170
-0.059070
-0.067696
-0.068409
-0.063337
-0.167833
-0.173732
-0.170548
-0.170404
-0.200922
-0.207327
-0.204402
-0.204226
-0.208751
-0.021231
-0.072719
-0.072402
0.004293
-0.180704
-0.099212
-0.102651
-0.230219
-0.188251
-0.184888
-0.190088
-0.188473
-0.055953
-0.059980
-0.061623
-0.065829
-0.113073
-0.050115
-0.050310
-0.179281
-0.170684
-0.210513
-0.217265
-0.189792
-0.107961
-0.104664
-0.213191
-0.118629
-0.128374
-0.063176
-0.058663
-0.061945
-0.183975
-0.187827
-0.047629
-0.157431
-0.034318
-0.233709
-0.163007
-0.167177
-0.165140
-0.115419
-0.120206
-0.006823
-0.234460
0.016318
-0.010589
-0.266319
-0.229527
-0.191723
-0.186996
-0.136361
-0.205973
-0.212048
-0.148339
-0.137463
-0.259250
-0.189577
-0.184473
-0.074702
-0.072303
-0.079012
-0.182382
-0.134909
-0.130978
0.010752
-0.073064
-0.073384
-0.227479
-0.175005
-0.177701
-0.256709
-0.216831
-0.218703
-0.217743
-0.103260
-0.100117
0.008589
0.010217
-0.224314
-0.179098
-0.183891
-0.179480
-0.119706
-0.047554
-0.171920
-0.193167
-0.196513
-0.077198
-0.070122
-0.123562
-0.042800
-0.122698
-0.124054
-0.120024
-0.199882
-0.202578
-0.024552
-0.034068
-0.146341
-0.127303
-0.012866
-0.168614
-0.171784
-0.130689
-0.129988
-0.185073
-0.187899
-0.189411
-0.082951
-0.083335
-0.043032
-0.092047
0.021770
-0.262429
-0.249267
-0.070291
-0.066958
0.015130
-0.070116
-0.230051
-0.265465
0.015052
-0.022117
-0.028320
-0.275672
-0.017202
-0.011574
-0.070414
-0.249027
0.020966
-0.244972
-0.103078
-0.278086
-0.278411
-0.281855
-0.082634
-0.279059
0.006851
-0.046060
0.008264
-0.193946
-0.119327
-0.283171
-0.002778
-0.150607
-0.101364
-0.092106
-0.094474
-0.082493
-0.074197
-0.069977
-0.068492
-0.078100
-0.126626
-0.230847
-0.065623
-0.160584
-0.155869
-0.222900
-0.175763
-0.161183
-0.127660
-0.194418
-0.022828
-0.136175
-0.146901
-0.075844
-0.069982
-0.130957
-0.170162
-0.173868
-0.085396
-0.089461
-0.088219
-0.059761
-0.011066
-0.016673
-0.085658
-0.006859
-0.099644
-0.025040
-0.214533
-0.140179
-0.116978
-0.079211
-0.063575
-0.007114
-0.186796
0.010418
-0.202486
-0.072706
-0.008979
-0.014375
-0.008290
-0.030360
-0.240799
-0.017063
-0.256871
-0.254274
-0.179577
-0.105692
-0.240033
-0.241547
-0.067887
-0.075588
-0.030156
-0.038535
-0.008261
-0.264933
-0.089258
-0.094183
-0.116072
-0.141989
-0.063206
-0.153255
-0.154894
-0.178123
-0.247563
-0.096877
-0.145930
-0.150413
-0.012402
-0.153725
-0.158255
-0.154549
-0.097996
-0.197845
-0.213753
-0.170883
-0.005735
-0.093644
-0.050288
-0.035522
-0.237115
-0.087817
-0.092863
-0.220360
-0.079955
-0.076588
-0.078683
-0.096454
-0.099273
-0.222717
-0.225518
-0.227374
-0.089356
-0.093054
-0.093144
-0.105334
-0.103092
-0.108251
-0.190937
-0.205553
-0.133741
-0.186184
-0.226764
-0.222193
-0.151944
-0.131070
-0.194142
-0.113311
-0.134513
-0.149084
-0.196108
SCALARS UY float 1
LOOKUP_TABLE default
-0.000000
-0.000000
-0.709997
-0.710000
-0.346223
-0.506696
-0.000000
-0.000000
-0.000000
-0.000000
-0.000000
-0.000000
-0.000000
-0.000000
-0.000000
-0.000000
-0.000000
-0.000000
-0.056466
-0.105550
-0.149783
-0.189922
-0.226165
-0.258973
-0.288682
-0.315604
-0.339998
-0.362157
-0.382211
-0.400383
-0.416889
-0.431922
-0.445630
-0.458038
-0.469326
-0.479809
-0.489367
-0.498420
-0.515515
-0.525930
-0.538456
-0.554018
-0.573231
-0.597421
-0.627087
-0.663617
-0.710000
-0.710000
-0.710000
-0.710000
-0.710000
-0.710000
-0.710000
-0.710000
-0.710000
-0.710000
-0.710000
-0.710000
-0.656366
-0.609823
-0.569304
-0.534038
-0.503386
-0.476696
-0.453454
-0.433130
-0.415444
-0.399949
-0.386369
-0.374482
-0.363914
-0.354477
-0.337497
-0.328550
-0.318460
-0.307094
-0.294206
-0.279549
-0.262707
-0.243330
-0.221132
-0.195600
-0.166355
-0.132809
-0.094378
-0.050313
-0.349076
-0.351682
-0.353809
-0.355734
-0.357663
-0.359550
-0.361221
-0.362864
-0.364394
-0.366073
-0.367645
-0.369109
-0.370731
-0.372223
-0.373758
-0.375115
-0.376613
-0.378021
-0.379475
-0.380919
-0.382328
-0.383763
-0.385169
-0.386495
-0.387985
-0.389388
-0.390685
-0.392042
-0.393589
-0.394864
-0.396241
-0.397618
-0.398978
-0.400427
-0.401795
-0.403227
-0.404491
-0.405847
-0.407306
-0.408592
-0.409959
-0.411344
-0.412667
-0.414094
-0.415477
-0.416749
-0.418114
-0.419471
-0.420841
-0.422171
-0.423574
-0.424958
-0.426377
-0.427631
-0.429012
-0.430423
-0.431785
-0.433195
-0.434519
-0.435994
-0.437283
-0.438752
-0.439996
-0.441443
-0.442869
-0.444334
-0.445608
-0.447090
-0.448557
-0.449938
-0.451364
-0.452765
-0.454192
-0.455664
-0.457246
-0.458473
-0.460064
-0.461479
-0.463063
-0.464481
-0.465961
-0.467597
-0.469167
-0.470736
-0.472217
-0.473897
-0.475600
-0.477322
-0.479172
-0.480854
-0.482703
-0.484515
-0.486489
-0.488434
-0.490484
-0.492503
-0.494464
-0.496613
-0.498802
-0.501088
-0.503648
-0.429449
-0.415301
-0.421824
-0.409867
-0.542290
-0.541184
-0.525522
-0.562335
-0.660228
-0.635403
-0.624573
-0.491322
-0.491367
-0.499087
-0.555363
-0.536353
-0.556418
-0.468348
-0.470544
-0.477175
-0.427747
-0.416850
-0.425724
-0.489457
-0.476597
-0.492895
-0.421610
-0.421149
-0.428252
-0.388212
-0.384947
-0.392583
-0.459338
-0.465268
-0.467330
-0.476122
-0.405646
-0.416939
-0.411005
-0.493455
-0.498664
-0.491400
-0.481994
-0.483339
-0.455838