# vtk DataFile Version 2.0
Test
ASCII
DATASET POLYDATA
POINTS 1770 float
0.000000 0.000000 0.000000
1.000000 0.000000 0.000000
1.000000 1.000000 0.000000
0.000000 1.000000 0.000000
0.000000 0.500000 0.000000
1.000000 0.700000 0.000000
0.076923 0.000000 0.000000
0.153846 0.000000 0.000000
0.230769 0.000000 0.000000
0.307692 0.000000 0.000000
0.384615 0.000000 0.000000
0.461538 0.000000 0.000000
0.538462 0.000000 0.000000
0.615385 0.000000 0.000000
0.692308 0.000000 0.000000
0.769231 0.000000 0.000000
0.846154 0.000000 0.000000
0.923077 0.000000 0.000000
1.000000 0.075421 0.000000
1.000000 0.143732 0.000000
1.000000 0.205602 0.000000
1.000000 0.261640 0.000000
1.000000 0.312395 0.000000
1.000000 0.358364 0.000000
1.000000 0.400000 0.000000
1.000000 0.437711 0.000000
1.000000 0.471866 0.000000
1.000000 0.502801 0.000000
1.000000 0.530820 0.000000
1.000000 0.556197 0.000000
1.000000 0.579182 0.000000
1.000000 0.600000 0.000000
1.000000 0.618855 0.000000
1.000000 0.635933 0.000000
1.000000 0.651401 0.000000
1.000000 0.665410 0.000000
1.000000 0.678099 0.000000
1.000000 0.689591 0.000000
1.000000 0.711139 0.000000
1.000000 0.725174 0.000000
1.000000 0.742857 0.000000
1.000000 0.765136 0.000000
1.000000 0.793206 0.000000
1.000000 0.828571 0.000000
1.000000 0.873129 0.000000
1.000000 0.929269 0.000000
0.923077 1.000000 0.000000
0.846154 1.000000 0.000000
0.769231 1.000000 0.000000
0.692308 1.000000 0.000000
0.615385 1.000000 0.000000
0.538462 1.000000 0.000000
0.461538 1.000000 0.000000
0.384615 1.000000 0.000000
0.307692 1.000000 0.000000
0.230769 1.000000 0.000000
0.153846 1.000000 0.000000
0.076923 1.000000 0.000000
0.000000 0.926029 0.000000
0.000000 0.861633 0.000000
0.000000 0.805574 0.000000
0.000000 0.756771 0.000000
0.000000 0.714286 0.000000
0.000000 0.677300 0.000000
0.000000 0.645102 0.000000
0.000000 0.617073 0.000000
0.000000 0.592671 0.000000
0.000000 0.571429 0.000000
0.000000 0.552936 0.000000
0.000000 0.536837 0.000000
0.000000 0.522822 0.000000
0.000000 0.510621 0.000000
0.000000 0.489379 0.000000
0.000000 0.477178 0.000000
0.000000 0.463163 0.000000
0.000000 0.447064 0.000000
0.000000 0.428571 0.000000
0.000000 0.407329 0.000000
0.000000 0.382927 0.000000
0.000000 0.354898 0.000000
0.000000 0.322700 0.000000
0.000000 0.285714 0.000000
0.000000 0.243229 0.000000
0.000000 0.194426 0.000000
0.000000 0.138367 0.000000
0.000000 0.073971 0.000000
0.009804 0.501961 0.000000
0.019608 0.503922 0.000000
0.029412 0.505882 0.000000
0.039216 0.507843 0.000000
0.049020 0.509804 0.000000
0.058824 0.511765 0.000000
0.068627 0.513725 0.000000
0.078431 0.515686 0.000000
0.088235 0.517647 0.000000
0.098039 0.519608 0.000000
0.107843 0.521569 0.000000
0.117647 0.523529 0.000000
0.127451 0.525490 0.000000
0.137255 0.527451 0.000000
0.147059 0.529412 0.000000
0.156863 0.531373 0.000000
0.166667 0.533333 0.000000
0.176471 0.535294 0.000000
0.186275 0.537255 0.000000
0.196078 0.539216 0.000000
0.205882 0.541176 0.000000
0.215686 0.543137 0.000000
0.225490 0.545098 0.000000
0.235294 0.547059 0.000000
0.245098 0.549020 0.000000
0.254902 0.550980 0.000000
0.264706 0.552941 0.000000
0.274510 0.554902 0.000000
0.284314 0.556863 0.000000
0.294118 0.558824 0.000000
0.303922 0.560784 0.000000
0.313725 0.562745 0.000000
0.323529 0.564706 0.000000
0.333333 0.566667 0.000000
0.343137 0.568627 0.000000
0.352941 0.570588 0.000000
0.362745 0.572549 0.000000
0.372549 0.574510 0.000000
0.382353 0.576471 0.000000
0.392157 0.578431 0.000000
0.401961 0.580392 0.000000
0.411765 0.582353 0.000000
0.421569 0.584314 0.000000
0.431373 0.586275 0.000000
0.441176 0.588235 0.000000
0.450980 0.590196 0.000000
0.460784 0.592157 0.000000
0.470588 0.594118 0.000000
0.480392 0.596078 0.000000
0.490196 0.598039 0.000000
0.500000 0.600000 0.000000
0.509804 0.601961 0.000000
0.519608 0.603922 0.000000
0.529412 0.605882 0.000000
0.539216 0.607843 0.000000
0.549020 0.609804 0.000000
0.558824 0.611765 0.000000
0.568627 0.613725 0.000000
0.578431 0.615686 0.000000
0.588235 0.617647 0.000000
0.598039 0.619608 0.000000
0.607843 0.621569 0.000000
0.617647 0.623529 0.000000
0.627451 0.625490 0.000000
0.637255 0.627451 0.000000
0.647059 0.629412 0.000000
0.656863 0.631373 0.000000
0.666667 0.633333 0.000000
0.676471 0.635294 0.000000
0.686275 0.637255 0.000000
0.696078 0.639216 0.000000
0.705882 0.641176 0.000000
0.715686 0.643137 0.000000
0.725490 0.645098 0.000000
0.735294 0.647059 0.000000
0.745098 0.649020 0.000000
0.754902 0.650980 0.000000
0.764706 0.652941 0.000000
0.774510 0.654902 0.000000
0.784314 0.656863 0.000000
0.794118 0.658824 0.000000
0.803922 0.660784 0.000000
0.813725 0.662745 0.000000
0.823529 0.664706 0.000000
0.833333 0.666667 0.000000
0.843137 0.668627 0.000000
0.852941 0.670588 0.000000
0.862745 0.672549 0.000000
0.872549 0.674510 0.000000
0.882353 0.676471 0.000000
0.892157 0.678431 0.000000
0.901961 0.680392 0.000000
0.911765 0.682353 0.000000
0.921569 0.684314 0.000000
0.931373 0.686275 0.000000
0.941176 0.688235 0.000000
0.950980 0.690196 0.000000
0.960784 0.692157 0.000000
0.970588 0.694118 0.000000
0.980392 0.696078 0.000000
0.990196 0.698039 0.000000
0.113534 0.606152 0.000000
0.107142 0.586373 0.000000
0.121751 0.595256 0.000000
0.125314 0.578403 0.000000
0.608008 0.765681 0.000000
0.585349 0.764086 0.000000
0.591336 0.741952 0.000000
0.592072 0.793974 0.000000
0.550258 0.931017 0.000000
0.517159 0.896365 0.000000
0.557866 0.881366 0.000000
0.885592 0.689744 0.000000
0.900640 0.689195 0.000000
0.893881 0.699663 0.000000
0.791014 0.782870 0.000000
0.806073 0.755575 0.000000
0.814238 0.783906 0.000000
0.755950 0.661588 0.000000
0.766977 0.664624 0.000000
0.759150 0.673362 0.000000
0.237587 0.602856 0.000000
0.244276 0.587613 0.000000
0.255222 0.600052 0.000000
0.435458 0.690521 0.000000
0.445365 0.672382 0.000000
0.452783 0.695442 0.000000
0.434168 0.596027 0.000000
0.443497 0.595614 0.000000
0.440408 0.604928 0.000000
0.125631 0.548518 0.000000
0.136149 0.544058 0.000000
0.133888 0.554367 0.000000
0.684531 0.649457 0.000000
0.693022 0.657375 0.000000
0.680758 0.660164 0.000000
0.688513 0.672143 0.000000
0.209804 0.572062 0.000000
0.211391 0.587677 0.000000
0.198823 0.579466 0.000000
0.912173 0.691199 0.000000
0.919923 0.697571 0.000000
0.840788 0.691515 0.000000
0.836260 0.679067 0.000000
0.846581 0.680639 0.000000
0.610270 0.644163 0.000000
0.606363 0.631487 0.000000
0.618571 0.634947 0.000000
0.703833 0.664888 0.000000
0.705328 0.651574 0.000000
0.718551 0.657874 0.000000
0.476110 0.619965 0.000000
0.470756 0.606568 0.000000
0.483603 0.608681 0.000000
0.787587 0.718715 0.000000
0.799121 0.708516 0.000000
0.805593 0.724753 0.000000
0.545957 0.632159 0.000000
0.551865 0.620855 0.000000
0.557339 0.632078 0.000000
0.494856 0.610760 0.000000
0.503640 0.608636 0.000000
0.360926 0.590762 0.000000
0.373577 0.584863 0.000000
0.371469 0.597941 0.000000
0.331595 0.581327 0.000000
0.327955 0.573642 0.000000
0.337441 0.574864 0.000000
0.452770 0.600633 0.000000
0.450058 0.613037 0.000000
0.678157 0.643781 0.000000
0.204164 0.604889 0.000000
0.194170 0.595839 0.000000
0.640959 0.641938 0.000000
0.656321 0.640868 0.000000
0.651180 0.656559 0.000000
0.987799 0.705954 0.000000
0.990005 0.721233 0.000000
0.977245 0.712758 0.000000
0.974986 0.729512 0.000000
0.333802 0.812487 0.000000
0.361509 0.790617 0.000000
0.367317 0.828894 0.000000
0.604086 0.908536 0.000000
0.602873 0.861865 0.000000
0.486055 0.632060 0.000000
0.466853 0.635244 0.000000
0.541673 0.619743 0.000000
0.532472 0.631076 0.000000
0.541658 0.649026 0.000000
0.522313 0.819315 0.000000
0.510522 0.853722 0.000000
0.487163 0.814552 0.000000
0.308272 0.686111 0.000000
0.313305 0.664245 0.000000
0.331890 0.672844 0.000000
0.462242 0.618446 0.000000
0.459244 0.608252 0.000000
0.859980 0.693314 0.000000
0.849777 0.691819 0.000000
0.856777 0.681858 0.000000
0.942362 0.711719 0.000000
0.941048 0.728383 0.000000
0.931633 0.715819 0.000000
0.696422 0.925997 0.000000
0.743778 0.899483 0.000000
0.736714 0.951105 0.000000
0.710099 0.873175 0.000000
0.706855 0.827503 0.000000
0.748341 0.846430 0.000000
0.404569 0.612087 0.000000
0.400941 0.600304 0.000000
0.413129 0.601428 0.000000
0.739879 0.801859 0.000000
0.689244 0.763692 0.000000
0.711842 0.784429 0.000000
0.682971 0.800595 0.000000
0.849502 0.703362 0.000000
0.872437 0.693808 0.000000
0.880424 0.705421 0.000000
0.247911 0.613985 0.000000
0.230071 0.625013 0.000000
0.426705 0.605906 0.000000
0.417314 0.614950 0.000000
0.564489 0.781794 0.000000
0.542753 0.763395 0.000000
0.563888 0.747070 0.000000
0.540876 0.795125 0.000000
0.254442 0.628223 0.000000
0.675859 0.845039 0.000000
0.389585 0.604484 0.000000
0.382141 0.593934 0.000000
0.394023 0.590296 0.000000
0.210190 0.549067 0.000000
0.218913 0.550855 0.000000
0.211545 0.558654 0.000000
0.509032 0.731434 0.000000
0.480547 0.728234 0.000000
0.498097 0.707679 0.000000
0.408331 0.625772 0.000000
0.737928 0.766371 0.000000
0.713411 0.751924 0.000000
0.236129 0.559953 0.000000
0.247527 0.565947 0.000000
0.238129 0.573668 0.000000
0.277601 0.586118 0.000000
0.273407 0.573379 0.000000
0.286542 0.574133 0.000000
0.695186 0.646009 0.000000
0.128809 0.536590 0.000000
0.385032 0.584469 0.000000
0.959668 0.883416 0.000000
0.604963 0.829728 0.000000
0.627628 0.795445 0.000000
0.636557 0.838109 0.000000
0.226927 0.903063 0.000000
0.196567 0.877414 0.000000
0.253614 0.858563 0.000000
0.488755 0.686131 0.000000
0.474772 0.701653 0.000000
0.208074 0.832028 0.000000
0.596571 0.714257 0.000000
0.619682 0.736143 0.000000
0.620249 0.709238 0.000000
0.426920 0.878300 0.000000
0.456147 0.845659 0.000000
0.471012 0.891685 0.000000
0.607192 0.695818 0.000000
0.525672 0.709461 0.000000
0.509369 0.690109 0.000000
0.535964 0.736172 0.000000
0.737088 0.738406 0.000000
0.716812 0.727414 0.000000
0.735580 0.717065 0.000000
0.717714 0.708748 0.000000
0.733899 0.701419 0.000000
0.434815 0.713754 0.000000
0.456218 0.743004 0.000000
0.415116 0.743197 0.000000
0.459688 0.716033 0.000000
0.441105 0.768871 0.000000
[...]
POINT_DATA 1770
SCALARS UX float 1
LOOKUP_TABLE default
-0.709111
0.000002
0.000003
-1.176644
-0.742866
0.082882
-0.647738
-0.585597
-0.524382
-0.464876
-0.407342
-0.350940
-0.295362
-0.239842
-0.185977
-0.132467
-0.081321
-0.037117
0.043477
0.057356
0.066505
0.069471
0.073541
0.075616
0.077136
0.078592
0.081316
0.083045
0.084746
0.086608
0.088792
0.090479
0.091783
0.092302
0.092627
0.091769
0.089991
0.086922
0.079625
0.076421
0.074604
0.073666
0.073167
0.073578
0.068612
0.053619
-0.000026
-0.103464
-0.208321
-0.309882
-0.411184
-0.510100
-0.608392
-0.703201
-0.797829
-0.895314
-0.989724
-1.083175
-1.024678
-0.904042
-0.823403
-0.785262
-0.764280
-0.753831
-0.750448
-0.749608
-0.749520
-0.750253
-0.750561
-0.749805
-0.748159
-0.745765
-0.738449
-0.736134
-0.734458
-0.733484
-0.733272
-0.734298
-0.735065
-0.735999
-0.737659
-0.737904
-0.739616
-0.739028
-0.737793
-0.730175
-0.733297
-0.724242
-0.715517
-0.707052
-0.698698
-0.690487
-0.682467
-0.674475
-0.666571
-0.658698
-0.650877
-0.643094
-0.635321
-0.627574
-0.619816
-0.612083
-0.604290
-0.596483
-0.588689
-0.580890
-0.573088
-0.565261
-0.557416
-0.549550
-0.541660
-0.533755
-0.525913
-0.518045
-0.510180
-0.502371
-0.494565
-0.486771
-0.478967
-0.471162
-0.463375
-0.455586
-0.447754
-0.439914
-0.432040
-0.424171
-0.416275
-0.408391
-0.400501
-0.392601
-0.384691
-0.376775
-0.368852
-0.360934
-0.353006
-0.345086
-0.337222
-0.329344
-0.321445
-0.313543
-0.305614
-0.297661
-0.289697
-0.281711
-0.273737
-0.265752
-0.257786
-0.249786
-0.241843
-0.233882
-0.225914
-0.217937
-0.209951
-0.201958
-0.193958
-0.185953
-0.177869
-0.169804
-0.161684
-0.153538
-0.145453
-0.137402
-0.129310
-0.121213
-0.113123
-0.105027
-0.096920
-0.088802
-0.080722
-0.072677
-0.064666
-0.056579
-0.048442
-0.040277
-0.032005
-0.023669
-0.015210
-0.006678
0.001883
0.010470
0.019224
0.028007
0.036916
0.045866
0.054966
0.064143
0.073326
-0.654875
-0.659890
-0.648310
-0.645194
-0.257677
-0.276422
-0.270823
-0.272611
-0.387965
-0.386729
-0.331869
-0.024493
-0.010469
-0.018733
-0.105843
-0.094073
-0.086584
-0.131155
-0.122329
-0.130810
-0.555885
-0.549697
-0.541451
-0.397395
-0.389375
-0.383376
-0.392715
-0.384639
-0.389319
-0.642119
-0.632552
-0.636226
-0.190374
-0.184635
-0.195508
-0.190558
-0.576452
-0.576558
-0.586238
-0.000254
0.005423
-0.064097
-0.065594
-0.056968
-0.252681
-0.253645
-0.243931
-0.176614
-0.172920
-0.162750
-0.361860
-0.363971
-0.353523
-0.109939
-0.100160
-0.095079
-0.305285
-0.298062
-0.295626
-0.344428
-0.336414
-0.453682
-0.441691
-0.446109
-0.476392
-0.477659
-0.469926
-0.377931
-0.382664
-0.194594
-0.582926
-0.590784
-0.226200
-0.212814
-0.220001
0.068708
0.067693
0.056804
0.052222
-0.506404
-0.469886
-0.483909
-0.307646
-0.277772
-0.355075
-0.371118
-0.306541
-0.316445
-0.310592
-0.334688
-0.361765
-0.364642
-0.500007
-0.495553
-0.480724
-0.373239
-0.374000
-0.047707
-0.056364
-0.048307
0.023689
0.020834
0.013429
-0.224110
-0.162548
-0.203846
-0.182615
-0.177442
-0.144290
-0.420466
-0.421697
-0.411646
-0.148629
-0.190409
-0.171465
-0.196646
-0.057947
-0.036872
-0.031675
-0.547714
-0.562324
-0.401024
-0.410261
-0.294866
-0.311926
-0.293481
-0.316056
-0.542668
-0.206381
-0.432019
-0.436302
-0.425558
-0.571631
-0.564651
-0.572841
-0.338254
-0.361408
-0.346782
-0.418474
-0.149949
-0.170177
-0.552315
-0.543896
-0.553255
-0.522186
-0.523632
-0.512737
-0.180394
-0.637105
-0.431829
0.035348
-0.264475
-0.242876
-0.238986
-0.715503
-0.707339
-0.619565
-0.354317
-0.365577
-0.640158
-0.266480
-0.247516
-0.247254
-0.461907
-0.408702
-0.430444
-0.257970
-0.324457
-0.337690
-0.316292
-0.151121
-0.167823
-0.152661
-0.167349
-0.154010
-0.398295
-0.382025
-0.416058
-0.378019
-0.397030
-0.670161
-0.667840
-0.659559
-0.295379
-0.287177
-0.277823
-0.663777
-0.671618
0.054903
0.035051
0.033538
0.056713
-0.443038
-0.446035
-0.463683
-0.458937
-0.120910
-0.109279
0.036927
0.024438
-0.825551
-0.917559
-0.787399
-0.691464
-0.697943
-0.685945
-0.690623
-0.704426
-0.020270
-0.032433
-0.340788
-0.331390
-0.346661
-0.325691
0.049545
-0.135348
-0.121536
-0.122684
-0.334810
-0.781071
-0.300819
-0.450633
-0.530021
-0.683391
-0.736207
-0.737754
-0.441528
0.014587
0.014073
-0.580871
-0.508623
-0.504807
-0.536845
-0.531326
-0.444848
-0.474289
0.016480
-0.010455
0.015655
-0.004465
-0.200030
-0.732445
-0.706970
-0.695529
-0.683958
-0.242989
-0.721718
-0.715973
-0.701917
-0.697653
-0.729605
-0.665390
-0.706487
-0.219905
-0.216600
-0.715011
-0.203521
-0.207631
-0.323297
-0.328479
-0.732224
-0.323437
-0.730531
-0.702629
0.006118
-0.004501
-0.008319
-0.301517
-0.704586
-0.755058
-0.569091
-0.142730
0.003188
-0.007370
-0.680421
-0.687374
-0.053203
-0.053507
-0.092361
-0.699698
0.014474
0.012640
-0.348578
-0.362067
-0.658566
-0.644926
0.046551
-0.641136
-0.648060
-0.633407
-0.646996
-0.633175
-0.562437
-0.580644
-0.551831
-0.676246
-0.683136
-0.694993
-0.601683
-0.116285
-0.378624
-0.688806
-0.697010
-0.148061
-0.141720
-0.257117
-0.243872
-0.245259
-0.520184
-0.502227
-0.512073
-0.509050
-0.209150
-0.224449
-0.216769
-0.215629
-0.026600
-0.039553
-0.049343
-0.704998
-0.119483
-0.045488
-0.061774
-0.053563
-0.064281
-0.056575
-0.113952
-0.123117
-0.079635
-0.074389
-0.067248
-0.414459
-0.406074
-0.402243
-0.137396
-0.086229
-0.089951
-0.124676
-0.270679
-0.264015
-0.137840
-0.373104
-0.669083
-0.684043
-0.672673
-0.477162
-0.466530
-0.475771
-0.114090
-0.128571
-0.131084
-0.465816
-0.448919
-0.439934
-0.453094
-0.437890
-0.427084
-0.025020
-0.418384
-0.783805
-0.736548
-0.385846
-0.384075
-0.425507
-0.654223
-0.650744
-0.393826
-0.624627
-0.604180
-0.611362
-0.613735
-0.395791
-0.110035
-0.186984
-0.108253
-0.584325
-0.596266
-0.592673
-0.199469
-0.183020
-0.205680
-0.016383
-0.032040
-0.021160
-0.619062
-0.654800
-0.194725
-0.179820
-0.189460
-0.203081
-0.645301
-0.338637
-0.601128
-0.599305
-0.591053
-0.596975
-0.372811
-0.623996
-0.613648
-0.614497
-0.354142
-0.410124
-0.422937
-0.570351
-0.580760
-0.266690
-0.263241
-0.272795
-0.604962
-0.406893
-0.225831
-0.237685
-0.609220
-0.612404
-0.621046
-0.622791
-0.306818
-0.322416
-0.616795
-0.606501
-0.539811
-0.637370
-0.462840
-0.459803
-0.469498
-0.401240
-0.484544
-0.484256
-0.432522
-0.568056
-0.561174
-0.150962
-0.160100
-0.274174
-0.369193
-0.352408
-0.483208
-0.493388
-0.498844
-0.486554
-0.489912
-0.168640
-0.164146
-0.208963
-0.216283
-0.706845
-0.202665
-0.561439
-0.346270
-0.646412
-0.633561
-0.656609
-0.657410
-0.665851
-0.650788
-0.647790
-0.683368
-0.677189
-0.089462
-0.080148
-0.086751
-0.627048
-0.312657
-0.340782
-0.099139
-0.526565
-0.513369
-0.525415
-0.513106
-0.535308
-0.532981
-0.098246
-0.550337
-0.529633
-0.581806
-0.520531
-0.622894
-0.260508
-0.243253
-0.089689
-0.566153
-0.548547
-0.571479
-0.587725
-0.679715
-0.587755
-0.331610
-0.337997
-0.328667
-0.502093
-0.502553
-0.456756
-0.464605
-0.445452
-0.045347
-0.041935
-0.467590
-0.482564
-0.605283
-0.595677
-0.231369
-0.233934
-0.562719
-0.153155
-0.284677
-0.283264
-0.522839
-0.529828
-0.178622
-0.486086
-0.507914
-0.711950
-0.540197
-0.543192
-0.533067
-0.314557
-0.294820
-0.275756
-0.541432
-0.457575
-0.300097
-0.667439
-0.655758
-0.356977
-0.449852
-0.563650
-0.403795
-0.502206
-0.532810
-0.441891
-0.552505
-0.541038
-0.628097
-0.678317
-0.709178
-0.715644
-0.331871
-0.677027
-0.419837
-0.232707
-0.658991
-0.663286
-0.733525
-0.000245
-0.858960
-0.012089
-0.286578
-0.739813
-0.736142
-0.730850
-0.721981
-0.737885
-0.715125
-0.714186
-0.724497
-0.726734
-0.721812
-0.302091
-0.270590
-0.480822
-0.492218
-1.009210
0.003864
-0.527550
-0.727753
-0.724740
-0.640657
-0.720780
0.035147
-0.581576
0.045978
-0.633705
-0.139554
-0.736134
0.058620
0.050043
-0.493432
-0.068812
-0.079923
-0.076650
-0.622576
-0.636742
-0.372201
-0.502392
-0.510734
-0.594269
-0.609230
-0.285161
-0.469766
-0.227950
-0.235474
-0.605473
-0.698836
-0.110304
-0.661939
-0.635887
-0.320208
-0.623234
-0.640573
-0.535135
-0.235116
-0.578472
-0.415411
-0.288658
-0.039885
-0.030895
-0.599117
-0.072311
-0.493829
-0.509935
-0.280657
-0.407885
-0.114346
-0.537174
-0.473377
-0.536101
-0.440233
-0.153353
-0.516318
-0.235318
-0.302132
-0.605891
-0.615834
-0.621025
-0.602707
-0.240452
-0.251892
-0.250090
-0.247440
-0.317165
-0.315580
-0.323159
-0.330605
-0.319092
-0.366170
-0.624906
-0.616319
-0.340865
-0.717478
-0.715229
0.004940
-0.019411
0.001271
-0.696512
-0.700113
-0.017810
-0.383198
-0.435704
0.045546
0.035837
0.058136
0.035402
-0.026922
-0.022132
-0.033255
-0.014540
-0.494665
-0.499805
-0.485361
-0.484475
-0.340803
-0.323572
-0.338735
-0.330312
-0.630713
-0.621474
-0.620286
-0.619367
-0.593395
-0.596049
-0.383741
-0.393635
-0.379753
0.026177
-0.626436
-0.614056
-0.623020
-0.617443
-0.605690
-0.585010
-0.591306
-0.572248
-0.314896
-0.323301
-0.310307
-0.260278
-0.254569
-0.167485
-0.173644
-0.151828
-0.184810
-0.105400
-0.098499
-0.113872
-0.084914
-0.259081
-0.407692
-0.414858
-0.419125
0.019943
0.023216
0.013517
-0.417192
-0.425967
-0.418643
-0.425414
-0.680310
-0.678324
-0.670113
-0.555979
-0.557427
-0.566008
-0.401558
-0.410480
-0.101527
-0.099315
-0.090388
-0.246159
-0.238251
-0.236100
-0.228418
-0.155666
-0.144820
-0.373019
-0.374364
-0.383084
-0.342534
-0.348589
-0.338255
-0.161246
-0.150595
-0.161234
-0.351876
-0.357915
-0.364287
-0.355070
-0.547664
-0.536741
-0.544675
-0.534510
-0.558436
-0.551678
-0.561966
-0.304998
-0.304869
-0.320568
-0.246016
-0.227840
-0.223640
-0.308948
-0.548276
-0.557625
-0.541704
-0.210860
-0.209579
-0.217802
-0.214780
-0.216039
-0.203746
-0.513313
-0.509547
-0.521276
-0.209603
-0.152338
-0.182066
-0.164362
-0.172028
-0.565496
-0.568294
-0.400437
-0.408941
-0.402580
-0.268841
-0.279869
-0.277095
-0.279444
-0.702790
-0.710679
-0.699628
-0.708658
-0.186723
-0.189582
-0.198712
-0.233914
-0.241527
0.067352
0.070257
0.079027
0.059381
-0.486692
-0.466985
-0.503109
-0.198222
0.018445
-0.001296
-0.332490
-0.323744
-0.457828
-0.445210
-0.452165
-0.195104
-0.191711
-0.206794
-0.230493
0.036214
0.030374
0.019629
0.016022
-0.449505
-0.091202
-0.082812
-0.083082
-0.219504
-0.211177
-0.220557
-0.563340
-0.554988
-0.278676
-0.289779
-0.284739
-0.356599
-0.347214
-0.359158
-0.479418
-0.463413
-0.634274
-0.645973
-0.637853
-0.652330
-0.452650
-0.454791
-0.461781
-0.196138
-0.268754
-0.268029
0.014026
0.028421
0.024426
-0.684156
-0.663401
-0.680367
-0.660960
0.008564
0.004130
-0.037876
-0.074225
-0.033342
-0.062144
-0.514620
-0.514967
-0.525262
-0.504516
-0.382843
-0.287626
-0.272700
-0.288307
-0.411476
-0.357052
-0.317899
-0.305476
-0.310663
0.080688
0.081774
-0.074082
-0.065489
-0.081230
-0.058446
-0.061106
-0.110733
-0.098074
-0.427012
-0.423579
-0.458049
-0.572666
-0.560999
-0.545833
-0.613972
-0.642761
-0.644860
-0.635812
-0.652007
-0.640563
-0.621510
-0.641829
-0.600281
-0.701232
-0.703562
-0.201143
-0.214204
-0.230917
-0.178575
-0.536588
-0.522834
-0.190618
-0.496208
-0.530634
-0.698474
-0.687933
-0.266640
-0.690149
0.012611
-0.000853
-0.354709
-0.355249
-0.375577
-0.377724
-0.708752
-0.031929
-0.020762
-0.035180
-0.030179
-0.019509
-0.119765
-0.100337
-0.135043
-0.430133
-0.425678
-0.423933
-0.573852
-0.584379
-0.583577
-0.046722
-0.058700
-0.056947
0.020042
-0.702755
-0.688794
-0.702815
0.057910
0.038890
0.030158
0.066238
-0.688192
-0.677741
-0.610316
-0.601220
-0.605195
-0.664466
-0.672400
-0.672130
-0.665619
-0.657685
0.014401
-0.668517
0.061466
0.056291
0.044607
-0.422161
-0.427822
-0.440174
-0.627320
-0.645228
-0.625522
-0.644619
-0.643990
-0.116638
-0.088170
-0.355219
-0.378895
-0.337618
-0.315359
-0.353278
-0.325380
-0.689100
0.038109
0.047053
0.036897
0.046284
-0.111710
-0.105970
-0.101092
-0.097876
-0.090182
-0.004562
-0.006877
-0.369264
-0.118194
-0.709281
-0.573463
-0.566847
-0.122770
-0.116386
-0.511684
-0.014368
-0.035496
-0.195042
-0.214143
-0.206151
-0.202972
-0.277229
-0.055621
-0.060626
-0.065345
-0.021073
-0.033467
-0.070237
-0.060769
-0.083185
-0.127707
-0.632944
-0.632790
0.043755
0.027421
0.055615
0.024966
0.012503
-0.271273
0.008749
0.001849
-0.001896
-0.370891
-0.362581
-0.075391
-0.066894
-0.071428
-0.250987
-0.264946
-0.295258
-0.271214
-0.007496
0.012454
-0.018486
-0.570568
-0.571718
-0.584946
-0.558390
-0.717311
-0.035701
0.040278
-0.555237
-0.126723
-0.118351
-0.127915
-0.565560
-0.598005
-0.605076
-0.526636
-0.549876
0.058838
0.051001
-0.538114
-0.552788
-0.530799
-0.071320
-0.052343
-0.078565
-0.050678
-0.512576
-0.533844
-0.552262
0.059906
0.050687
0.060211
0.073355
0.077273
-0.097736
-0.140149
-0.081444
-0.106403
0.001555
-0.106208
-0.141326
-0.118991
0.047618
-0.133221
0.018185
0.030890
-0.134355
-0.163790
-0.157396
-0.432634
-0.452266
-0.449211
0.063948
0.050115
-0.061457
-0.663027
-0.719646
-0.089291
-0.041052
0.067384
-0.074309
0.030079
0.029444
-0.698849
-0.500274
-0.505344
-0.659428
-0.667978
0.055452
-0.080484
-0.084656
-0.394479
-0.399962
-0.413889
-0.407089
-0.688571
-0.710447
-0.018050
-0.005928
-0.013354
-0.476046
-0.483306
0.065284
-0.022069
-0.009609
-0.018133
-0.040418
-0.044408
-0.681005
-0.039803
-0.592945
-0.591061
-0.250485
-0.230054
-0.263742
-0.243508
-0.110579
-0.111736
-0.125364
-0.113067
-0.122878
-0.123925
-0.065632
-0.054134
-0.050160
-0.096661
-0.100869
-0.035213
-0.314743
-0.302344
-0.292245
-0.041021
-0.047571
-0.036911
-0.655419
-0.644435
-0.651074
-0.644912
-0.287655
-0.084412
-0.083899
-0.382352
-0.094174
-0.070972
-0.152902
-0.048334
-0.050848
-0.056748
-0.642867
-0.634875
-0.648026
-0.050259
-0.673090
-0.133760
-0.129607
-0.289826
-0.286702
-0.392525
0.005506
0.005735
0.005058
0.013765
0.003273
0.000639
0.052213
-0.073472
-0.037194
-0.027066
-0.030893
-0.092573
-0.605304
-0.609708
-0.376962
-0.047857
-0.385089
-0.027616
-0.068236
-0.102901
-0.093055
-0.518375
-0.509789
-0.506702
-0.502982
-0.512858
-0.135554
-0.150760
-0.150824
-0.137922
-0.391048
-0.087265
-0.468655
-0.468752
-0.278149
-0.270533
-0.285271
-0.332779
-0.320354
-0.337721
-0.340792
-0.626407
-0.316919
-0.463716
-0.469850
-0.459236
-0.293052
-0.538406
-0.546070
-0.658178
-0.128387
-0.139547
-0.140844
-0.469453
-0.456518
-0.473010
-0.463272
-0.624881
0.002099
0.038583
-0.113639
-0.411356
-0.417203
-0.674419
-0.548868
-0.257572
-0.281223
-0.258940
-0.234846
-0.256341
-0.235814
-0.250176
-0.065728
-0.333233
-0.275244
-0.078190
-0.227306
-0.216342
-0.523210
-0.296585
-0.297399
-0.297167
-0.585590
-0.567818
-0.576150
-0.358296
-0.287066
-0.297258
-0.426852
-0.471768
-0.447858
-0.196035
-0.191320
-0.221896
-0.210723
-0.210785
-0.081111
-0.601097
-0.698045
-0.392812
-0.404722
-0.400870
-0.172658
-0.487039
-0.525073
-0.511752
0.038468
-0.595622
-0.353301
-0.345850
-0.019095
-0.437283
-0.464297
-0.440306
-0.196399
-0.182717
-0.136893
-0.439553
-0.450548
-0.659766
-0.154217
-0.142183
-0.145097
-0.133483
-0.496753
-0.489988
-0.596059
-0.610623
-0.603695
-0.599878
-0.373825
-0.366216
-0.367022
-0.236321
-0.218682
-0.429658
-0.413837
-0.406681
-0.667849
-0.660995
-0.272016
-0.298796
-0.290321
-0.323178
-0.130910
-0.127109
-0.147927
-0.167906
-0.170250
-0.157199
-0.433883
-0.449261
-0.441462
-0.440142
-0.520806
-0.537575
-0.530459
-0.529040
-0.542304
-0.045014
-0.172511
-0.168873
0.023762
-0.471061
-0.253001
-0.263171
-0.595893
-0.491069
-0.478047
-0.491501
-0.487644
-0.139188
-0.149543
-0.154382
-0.165164
-0.287319
-0.123955
-0.124063
-0.466951
-0.444690
-0.546444
-0.564008
-0.494040
-0.274552
-0.265503
-0.552996
-0.306931
-0.332781
-0.150352
-0.140761
-0.151401
-0.469402
-0.478280
-0.103493
-0.409971
-0.075330
-0.607928
-0.420451
-0.431264
-0.426402
-0.290490
-0.298597
-0.004091
-0.598281
0.076386
-0.013558
-0.687018
-0.592643
-0.487700
-0.479579
-0.345318
-0.527911
-0.539308
-0.380090
-0.356723
-0.676424
-0.487020
-0.475316
-0.183390
-0.178760
-0.193356
-0.468591
-0.339142
-0.332985
0.044207
-0.182399
-0.182784
-0.586563
-0.446047
-0.448846
-0.668864
-0.551338
-0.567006
-0.564828
-0.262230
-0.253592
0.037135
0.041174
-0.582349
-0.463431
-0.475823
-0.464027
-0.304828
-0.108960
-0.441675
-0.499149
-0.507674
-0.193755
-0.175314
-0.307356
-0.104697
-0.308993
-0.314495
-0.304764
-0.516096
-0.523488
-0.056081
-0.081415
-0.379962
-0.323261
-0.008599
-0.432110
-0.438760
-0.333644
-0.332441
-0.477784
-0.484419
-0.489106
-0.203093
-0.206247
-0.105523
-0.227041
0.077362
-0.683196
-0.641650
-0.172401
-0.165024
0.069005
-0.173844
-0.590922
-0.694162
0.056387
-0.047259
-0.062157
-0.712097
-0.032227
-0.018659
-0.163356
-0.649856
0.074406
-0.635466
-0.262641
-0.722791
-0.720531
-0.730563
-0.208510
-0.717809
0.030411
-0.107485
0.049274
-0.500039
-0.300562
-0.728983
0.003540
-0.387281
-0.256395
-0.234324
-0.240085
-0.199185
-0.178923
-0.169092
-0.165640
-0.191641
-0.324001
-0.590385
-0.162094
-0.413669
-0.401197
-0.576076
-0.454062
-0.416038
-0.325333
-0.494962
-0.051190
-0.353565
-0.381885
-0.190793
-0.175602
-0.335820
-0.433720
-0.440625
-0.216509
-0.226720
-0.222918
-0.134829
-0.016585
-0.035169
-0.213144
-0.004912
-0.253046
-0.053351
-0.555682
-0.350073
-0.297386
-0.190571
-0.154054
-0.006186
-0.486604
0.042942
-0.521922
-0.183475
-0.013027
-0.028504
-0.009773
-0.071329
-0.625597
-0.035673
-0.668686
-0.662433
-0.460227
-0.271718
-0.626560
-0.630572
-0.171195
-0.190723
-0.055956
-0.078806
0.004537
-0.690263
-0.225154
-0.238320
-0.294321
-0.362862
-0.157578
-0.394593
-0.391775
-0.458436
-0.645521
-0.244683
-0.366680
-0.383415
-0.022461
-0.392537
-0.407936
-0.397219
-0.249181
-0.502820
-0.544904
-0.432684
0.011440
-0.237388
-0.111414
-0.085468
-0.616319
-0.216675
-0.225276
-0.571840
-0.202022
-0.180122
-0.185834
-0.244000
-0.251711
-0.572261
-0.574584
-0.579882
-0.224880
-0.234412
-0.235141
-0.261868
-0.255043
-0.264189
-0.491793
-0.529622
-0.340899
-0.481065
-0.582002
-0.575480
-0.389982
-0.330665
-0.498179
-0.287046
-0.345248
-0.382711
-0.504028
SCALARS UY float 1
LOOKUP_TABLE default
-0.000001
-0.000001
-1.909969
-1.909999
-0.868673
-1.395092
-0.000001
-0.000001
-0.000001
-0.000001
-0.000001
-0.000001
-0.000001
-0.000001
-0.000001
-0.000001
-0.000001
-0.000001
-0.155100
-0.290939
-0.412567
-0.526034
-0.627856
-0.718903
-0.801380
-0.876300
-0.943707
-1.005970
-1.061515
-1.111390
-1.156534
-1.197659
-1.235077
-1.268703
-1.299022
-1.326777
-1.351780
-1.374570
-1.416651
-1.442777
-1.474592
-1.514440
-1.562559
-1.623558
-1.696545
-1.789190
-1.910003
-1.909998
-1.909999
-1.909999
-1.909999
-1.909999
-1.909999
-1.909999
-1.909999
-1.909999
-1.909999
-1.909999
-1.740690
-1.596236
-1.474333
-1.373506
-1.288385
-1.215491
-1.152895
-1.097855
-1.050572
-1.009234
-0.973048
-0.941698
-0.914091
-0.889688
-0.847598
-0.824271
-0.797624
-0.767557
-0.733553
-0.695358
-0.651694
-0.601476
-0.544869
-0.479543
-0.406064
-0.322295
-0.227538
-0.119358
-0.884463
-0.897466
-0.907959
-0.916665
-0.924474
-0.931389
-0.937221
-0.942474
-0.947126
-0.951688
-0.955952
-0.959944
-0.963864
-0.967550
-0.971253
-0.974724
-0.978373
-0.982023
-0.985842
-0.989828
-0.993871
-0.998014
-1.002196
-1.006391
-1.010734
-1.015058
-1.019225
-1.023323
-1.027438
-1.031226
-1.034971
-1.038706
-1.042429
-1.046221
-1.050024
-1.053934
-1.057827
-1.061804
-1.065885
-1.069898
-1.073928
-1.077951
-1.081934
-1.085981
-1.090009
-1.094005
-1.098047
-1.102049
-1.105997
-1.109896
-1.113809
-1.117724
-1.121668
-1.125557
-1.129622
-1.133778
-1.137980
-1.142238
-1.146440
-1.150676
-1.154722
-1.158828
-1.162732
-1.166741
-1.170720
-1.174696
-1.178571
-1.182590
-1.186607
-1.190646
-1.194812
-1.199111
-1.203790
-1.208264
-1.212584
-1.216331
-1.220337
-1.224303
-1.228412
-1.232452
-1.236491
-1.240616
-1.244577
-1.248392
-1.252161
-1.256224
-1.260588
-1.265387
-1.270696
-1.276401
-1.283096
-1.290195
-1.297800
-1.305699
-1.314195
-1.322939
-1.332472
-1.342888
-1.354028
-1.366106
-1.379662
-1.112570
-1.076056
-1.092890
-1.062131
-1.431187
-1.427201
-1.385784
-1.484091
-1.757445
-1.681934
-1.653717
-1.303528
-1.307266
-1.325728
-1.474098
-1.422812
-1.477062
-1.241071
-1.247170
-1.263944
-1.110969
-1.083241
-1.107148
-1.281510
-1.248311
-1.291646
-1.104692
-1.104177
-1.121808
-1.006955
-0.998711
-1.017889
-1.214200
-1.229801
-1.234638
-1.257890
-1.052045
-1.081112
-1.065234
-1.315599
-1.331371
-1.300992
-1.276600
-1.279998
-1.202274
-1.177938
-1.184778
-1.244792
-1.219251