# vtk DataFile Version 2.0
Test
ASCII
DATASET POLYDATA
POINTS 1161 float
0.000000 0.000000 0.000000
13.600000 0.000000 0.000000
15.000000 1.400000 0.000000
15.000000 50.000000 0.000000
0.000000 50.000000 0.000000
0.962136 0.000000 0.000000
1.863013 0.000000 0.000000
2.706530 0.000000 0.000000
3.496339 0.000000 0.000000
4.235861 0.000000 0.000000
4.928297 0.000000 0.000000
5.576644 0.000000 0.000000
6.183711 0.000000 0.000000
6.752126 0.000000 0.000000
7.284349 0.000000 0.000000
7.782685 0.000000 0.000000
8.249292 0.000000 0.000000
8.686190 0.000000 0.000000
9.095269 0.000000 0.000000
9.478303 0.000000 0.000000
9.836948 0.000000 0.000000
10.172758 0.000000 0.000000
10.487187 0.000000 0.000000
10.781596 0.000000 0.000000
11.057260 0.000000 0.000000
11.315372 0.000000 0.000000
11.557049 0.000000 0.000000
11.783339 0.000000 0.000000
11.995221 0.000000 0.000000
12.193612 0.000000 0.000000
12.379372 0.000000 0.000000
12.553304 0.000000 0.000000
12.716161 0.000000 0.000000
12.868650 0.000000 0.000000
13.011429 0.000000 0.000000
13.145117 0.000000 0.000000
13.270294 0.000000 0.000000
13.387500 0.000000 0.000000
13.497244 0.000000 0.000000
13.600719 0.044872 0.000000
13.602876 0.089698 0.000000
13.606469 0.134432 0.000000
13.611494 0.179028 0.000000
13.617946 0.223440 0.000000
13.625817 0.267622 0.000000
13.635101 0.311529 0.000000
13.645787 0.355116 0.000000
13.657865 0.398339 0.000000
13.671322 0.441152 0.000000
13.686144 0.483511 0.000000
13.702317 0.525374 0.000000
13.719822 0.566697 0.000000
13.738644 0.607437 0.000000
13.758761 0.647554 0.000000
13.780154 0.687005 0.000000
13.802800 0.725750 0.000000
13.826677 0.763749 0.000000
13.851759 0.800963 0.000000
13.878021 0.837355 0.000000
13.905436 0.872886 0.000000
13.933976 0.907520 0.000000
13.963611 0.941221 0.000000
13.994311 0.973956 0.000000
14.026044 1.005689 0.000000
14.058779 1.036389 0.000000
14.092480 1.066024 0.000000
14.127114 1.094564 0.000000
14.162645 1.121979 0.000000
14.199037 1.148241 0.000000
14.236251 1.173323 0.000000
14.274250 1.197200 0.000000
14.312995 1.219846 0.000000
14.352446 1.241239 0.000000
14.392563 1.261356 0.000000
14.433303 1.280178 0.000000
14.474626 1.297683 0.000000
14.516489 1.313856 0.000000
14.558848 1.328678 0.000000
14.601661 1.342135 0.000000
14.644884 1.354213 0.000000
14.688471 1.364899 0.000000
14.732378 1.374183 0.000000
14.776560 1.382054 0.000000
14.820972 1.388506 0.000000
14.865568 1.393531 0.000000
14.910302 1.397124 0.000000
14.955128 1.399281 0.000000
15.000000 2.391837 0.000000
15.000000 3.383673 0.000000
15.000000 4.375510 0.000000
15.000000 5.367347 0.000000
15.000000 6.359184 0.000000
15.000000 7.351020 0.000000
15.000000 8.342857 0.000000
15.000000 9.334694 0.000000
15.000000 10.326531 0.000000
15.000000 11.318367 0.000000
15.000000 12.310204 0.000000
15.000000 13.302041 0.000000
15.000000 14.293878 0.000000
15.000000 15.285714 0.000000
15.000000 16.277551 0.000000
15.000000 17.269388 0.000000
15.000000 18.261224 0.000000
15.000000 19.253061 0.000000
15.000000 20.244898 0.000000
15.000000 21.236735 0.000000
15.000000 22.228571 0.000000
15.000000 23.220408 0.000000
15.000000 24.212245 0.000000
15.000000 25.204082 0.000000
15.000000 26.195918 0.000000
15.000000 27.187755 0.000000
15.000000 28.179592 0.000000
15.000000 29.171429 0.000000
15.000000 30.163265 0.000000
15.000000 31.155102 0.000000
15.000000 32.146939 0.000000
15.000000 33.138776 0.000000
15.000000 34.130612 0.000000
15.000000 35.122449 0.000000
15.000000 36.114286 0.000000
15.000000 37.106122 0.000000
15.000000 38.097959 0.000000
15.000000 39.089796 0.000000
15.000000 40.081633 0.000000
15.000000 41.073469 0.000000
15.000000 42.065306 0.000000
15.000000 43.057143 0.000000
15.000000 44.048980 0.000000
15.000000 45.040816 0.000000
15.000000 46.032653 0.000000
15.000000 47.024490 0.000000
15.000000 48.016327 0.000000
15.000000 49.008163 0.000000
14.000000 50.000000 0.000000
13.000000 50.000000 0.000000
12.000000 50.000000 0.000000
11.000000 50.000000 0.000000
10.000000 50.000000 0.000000
9.000000 50.000000 0.000000
8.000000 50.000000 0.000000
7.000000 50.000000 0.000000
6.000000 50.000000 0.000000
5.000000 50.000000 0.000000
4.000000 50.000000 0.000000
3.000000 50.000000 0.000000
2.000000 50.000000 0.000000
1.000000 50.000000 0.000000
0.000000 48.979592 0.000000
0.000000 47.959184 0.000000
0.000000 46.938776 0.000000
0.000000 45.918367 0.000000
0.000000 44.897959 0.000000
0.000000 43.877551 0.000000
0.000000 42.857143 0.000000
0.000000 41.836735 0.000000
0.000000 40.816327 0.000000
0.000000 39.795918 0.000000
0.000000 38.775510 0.000000
0.000000 37.755102 0.000000
0.000000 36.734694 0.000000
0.000000 35.714286 0.000000
0.000000 34.693878 0.000000
0.000000 33.673469 0.000000
0.000000 32.653061 0.000000
0.000000 31.632653 0.000000
0.000000 30.612245 0.000000
0.000000 29.591837 0.000000
0.000000 28.571429 0.000000
0.000000 27.551020 0.000000
0.000000 26.530612 0.000000
0.000000 25.510204 0.000000
0.000000 24.489796 0.000000
0.000000 23.469388 0.000000
0.000000 22.448980 0.000000
0.000000 21.428571 0.000000
0.000000 20.408163 0.000000
0.000000 19.387755 0.000000
0.000000 18.367347 0.000000
0.000000 17.346939 0.000000
0.000000 16.326531 0.000000
0.000000 15.306122 0.000000
0.000000 14.285714 0.000000
0.000000 13.265306 0.000000
0.000000 12.244898 0.000000
0.000000 11.224490 0.000000
0.000000 10.204082 0.000000
0.000000 9.183673 0.000000
0.000000 8.163265 0.000000
0.000000 7.142857 0.000000
0.000000 6.122449 0.000000
0.000000 5.102041 0.000000
0.000000 4.081633 0.000000
0.000000 3.061224 0.000000
0.000000 2.040816 0.000000
0.000000 1.020408 0.000000
13.909350 0.941829 0.000000
14.008163 30.163265 0.000000
14.008163 34.130612 0.000000
14.008163 40.081633 0.000000
14.008163 16.277551 0.000000
14.008163 20.244898 0.000000
14.008163 24.212245 0.000000
14.008163 8.342857 0.000000
9.817943 0.353805 0.000000
11.775871 0.218822 0.000000
1.020408 30.612245 0.000000
1.020408 40.816327 0.000000
1.020408 24.489796 0.000000
1.020408 20.408163 0.000000
1.020408 16.326531 0.000000
1.018362 11.223256 0.000000
1.019479 36.734114 0.000000
7.766240 0.481890 0.000000
13.744884 0.708217 0.000000
8.000000 49.000000 0.000000
12.710787 0.157483 0.000000
13.643785 0.498333 0.000000
0.966982 6.081341 0.000000
5.555248 0.626951 0.000000
1.020408 44.897959 0.000000
14.008163 45.040816 0.000000
14.008163 4.375510 0.000000
14.135230 1.157510 0.000000
1.110406 3.998402 0.000000
13.581910 0.276906 0.000000
4.000000 49.000000 0.000000
11.000000 49.000000 0.000000
3.468805 0.753815 0.000000
13.286828 0.128125 0.000000
13.571292 0.182798 0.000000
14.008163 47.024490 0.000000
14.008163 11.318367 0.000000
1.020408 47.959184 0.000000
13.986969 1.039883 0.000000
11.033365 0.256493 0.000000
12.375655 0.180019 0.000000
1.020408 34.693878 0.000000
1.020408 28.571429 0.000000
1.020408 14.285714 0.000000
14.008163 13.302041 0.000000
14.008163 26.195918 0.000000
14.008163 36.114286 0.000000
14.008163 42.065306 0.000000
13.000000 49.000000 0.000000
9.061761 0.377165 0.000000
13.846846 0.875143 0.000000
13.602565 0.367194 0.000000
14.330468 1.278355 0.000000
0.985135 1.963183 0.000000
1.848016 0.860187 0.000000
13.006717 0.138067 0.000000
6.733368 0.549656 0.000000
13.981312 2.366987 0.000000
14.517684 1.371589 0.000000
14.008163 5.367347 0.000000
13.502952 0.103492 0.000000
14.008163 6.359184 0.000000
1.012223 8.075156 0.000000
2.000000 49.000000 0.000000
10.466507 0.317468 0.000000
4.903734 0.664259 0.000000
14.008163 48.016327 0.000000
1.020408 46.938776 0.000000
1.020408 43.877551 0.000000
1.020408 42.857143 0.000000
1.020408 18.367347 0.000000
1.020408 22.448980 0.000000
1.020408 32.653061 0.000000
1.020408 27.551020 0.000000
1.020408 38.775510 0.000000
1.020408 26.530612 0.000000
1.020408 13.265306 0.000000
1.020408 10.204082 0.000000
9.000026 48.999914 0.000000
6.000000 49.000000 0.000000
14.008163 43.057143 0.000000
14.008163 38.097959 0.000000
14.008163 27.187755 0.000000
14.008163 18.261224 0.000000
14.008163 21.236735 0.000000
14.008163 32.146939 0.000000
14.008163 28.179592 0.000000
14.008163 14.293878 0.000000
14.008163 22.228571 0.000000
14.008163 9.334694 0.000000
14.004099 49.004099 0.000000
1.010098 48.989902 0.000000
13.558143 0.093291 0.000000
0.955988 0.955988 0.000000
8.662374 0.425726 0.000000
12.184441 0.198708 0.000000
13.663594 0.544206 0.000000
13.702388 0.624737 0.000000
13.617517 0.413610 0.000000
13.792566 0.798406 0.000000
11.548133 0.250352 0.000000
14.588204 1.384948 0.000000
14.681162 1.411235 0.000000
13.040022 8.144516 0.000000
13.014441 27.185869 0.000000
13.013181 20.242544 0.000000
13.014441 13.300155 0.000000
2.032435 11.216109 0.000000
2.038869 28.569481 0.000000
9.094026 0.740465 0.000000
12.393614 0.391054 0.000000
5.548361 1.269868 0.000000
13.617800 0.568998 0.000000
13.014768 42.063747 0.000000
7.999729 47.999729 0.000000
2.036314 44.892981 0.000000
13.140146 4.499330 0.000000
14.634824 1.474846 0.000000
13.571037 0.432035 0.000000
11.842029 0.443618 0.000000
1.894544 1.771554 0.000000
14.114823 3.610783 0.000000
13.394522 0.087201 0.000000
13.150234 0.115928 0.000000
0.994902 2.908324 0.000000
12.871309 0.135408 0.000000
0.983321 5.064954 0.000000
13.097446 6.278064 0.000000
0.934281 7.060694 0.000000
4.199943 0.690491 0.000000
2.699404 0.770870 0.000000
14.007220 7.350077 0.000000
1.002133 8.995361 0.000000
2.036784 47.955152 0.000000
6.151143 0.575397 0.000000
1.019139 45.917099 0.000000
2.037362 43.875442 0.000000
2.038869 27.549073 0.000000
1.019435 41.835762 0.000000
1.019435 19.386782 0.000000
1.019435 35.713313 0.000000
1.019435 31.631680 0.000000
1.019435 17.345966 0.000000
1.019435 25.509231 0.000000
1.019435 12.243925 0.000000
1.019435 29.590864 0.000000
1.019435 21.427599 0.000000
1.019435 37.754129 0.000000
1.019435 39.794946 0.000000
1.019435 23.468415 0.000000
1.019435 33.672497 0.000000
1.019435 15.305150 0.000000
11.999464 49.000536 0.000000
10.000001 48.999999 0.000000
7.001010 48.998990 0.000000
14.007547 44.048363 0.000000
[...]
POINT_DATA 1161
SCALARS UX float 1
LOOKUP_TABLE default
3.151086
-3.528960
0.000000
0.000000
6.435371
2.688889
2.253205
1.833899
1.425401
1.021810
0.619699
0.215426
-0.193450
-0.608984
-1.033772
-1.470554
-1.924333
-2.396111
-2.884746
-3.400556
-3.937653
-4.495277
-5.077775
-5.686432
-6.306873
-6.923906
-7.504236
-8.019392
-8.381338
-8.502948
-8.297927
-7.690702
-6.800904
-5.960158
-5.081201
-5.656710
-6.639479
-7.497841
-3.179670
-5.207565
-14.682533
15.100532
0.374423
19.854477
45.813448
71.857487
-9.647826
-16.685711
-10.316790
-4.714045
-23.535202
-18.874664
-14.296869
-7.304594
-33.260040
-25.921508
-34.065954
-32.412244
-27.751973
-22.085559
-15.665969
-9.639066
-4.686915
-1.356254
1.528294
3.407086
4.561343
5.257508
5.678798
5.748484
5.647425
5.472404
5.178552
4.847911
4.517099
4.135037
3.739889
3.351997
2.963782
2.576572
2.206992
1.847217
1.517067
1.195793
0.886313
0.576011
0.280163
0.000000
0.000000
0.000000
0.000000
0.000000
0.000000
0.000000
0.000000
0.000000
0.000000
0.000000
0.000000
0.000000
0.000000
0.000000
0.000000
0.000000
0.000000
0.000000
0.000000
0.000000
0.000000
0.000000
0.000000
0.000000
0.000000
0.000000
0.000000
0.000000
0.000000
0.000000
0.000000
0.000000
0.000000
0.000000
0.000000
0.000000
0.000000
0.000000
0.000000
0.000000
0.000000
0.000000
0.000000
0.000000
0.000000
0.000000
0.000000
0.429444
0.858842
1.288185
1.717456
2.146635
2.575640
3.004583
3.433473
3.862259
4.291027
4.719791
5.148586
5.577459
6.006385
6.437650
6.439917
6.442231
6.444667
6.447312
6.450245
6.453533
6.457301
6.461515
6.466321
6.471745
6.477840
6.484615
6.492171
6.500486
6.509547
6.519420
6.530053
6.541339
6.553089
6.565745
6.578523
6.590647
6.601537
6.611027
6.618457
6.623307
6.624399
6.620021
6.608101
6.585871
6.552182
6.502574
6.435613
6.346302
6.232615
6.089087
5.916765
5.710474
5.466701
5.189004
4.883662
4.553090
4.214642
3.885453
3.599798
3.373266
3.222036
-10.438966
0.444341
0.436827
0.429946
0.478006
0.471164
0.460459
0.443984
-3.814189
-7.916754
6.108346
6.023855
6.188320
6.210066
6.109637
5.539164
6.048182
-1.399804
-28.475855
3.005822
-7.297242
-21.522626
4.141182
0.270702
6.009468
0.427165
0.123349
5.782483
3.360347
8.878993
4.721784
1.718059
1.475367
-6.204983
26.794609
0.426521
0.471589
6.002104
1.454939
-6.139771
-8.583634
6.064482
6.135215
5.961732
0.476562
0.454604
0.433994
0.428596
0.859160
-2.776444
-23.100007
-24.474284
4.966924
2.877004
2.297243
-5.450245
-0.547569
-0.674046
3.302450
0.272242
-5.864171
0.367907
4.773618
5.579640
-4.923405
0.672974
0.426297
6.004408
6.012413
6.015727
6.184059
6.206175
6.084644
6.149635
6.034412
6.163584
5.851709
5.330433
2.576676
3.863903
0.428128
0.431692
0.451730
0.475489
0.468731
0.440211
0.449759
0.478951
0.466159
0.458715
0.427838
6.004302
-4.274259
2.738882
-2.299022
-8.650070
-21.316471
-8.550928
-11.188555
-33.681030
-7.375078
2.773205
2.015890
0.864751
0.904006
0.942347
0.950792
5.156898
5.704586
-2.628351
-9.395177
0.401213
-22.887388
0.857864
3.007387
5.573622
0.489397
1.973096
-3.028811
-7.922459
2.405770
-0.229606
-8.559937
-5.042776
3.090609
-6.084337
3.779928
0.746210
4.486397
1.076849
1.870105
0.416992
5.039575
5.566096
-0.128634
6.007374
5.576137
5.720489
6.019996
6.202789
6.056144
6.096514
6.155733
6.176956
5.710256
6.121606
6.211091
6.041168
6.029242
6.198694
6.074536
6.047954
1.288875
2.147411
3.434468
0.427874
0.427179
0.429592
0.478317
0.439028
0.476893
0.473865
0.447239
0.433180
0.477064
0.431192
0.466130
0.442636
0.457878
0.463950
0.435864
0.937270
4.292109
5.149027
2.924888
0.853443
-8.139497
-0.967519
-1.831384
-3.205895
-4.363646
-16.864753
-12.127833
-5.520314
-12.799559
35.040663
32.964899
-6.729970
-8.369851
10.905144
-4.531988
0.874284
5.605205
4.172783
1.410185
0.864915
0.890085
5.662852
5.654009
5.776042
5.792697
5.273596
5.137007
-5.216634
3.362362
3.863906
0.954688
0.854907
1.719233
12.980199
-1.210852
2.609954
-5.809404
0.169667
5.571322
5.620593
-7.382356
5.583552
2.577760
0.857171
0.940749
0.952758
0.899652
1.195283
-5.239643
25.426619
-4.622344
-10.449218
-6.888663
-20.356041
43.357627
-8.817200
0.778704
2.533334
4.716317
0.659072
1.281819
5.569375
5.332388
5.753409
5.793645
5.579526
5.689988
5.592626
5.639661
5.750591
0.801914
5.735299
0.853711
0.949713
4.948426
0.909523
0.861385
0.881105
4.713659
0.931945
0.921802
0.947070
0.910049
0.869443
0.946413
0.859839
3.437154
0.002550
5.133919
-0.823142
1.985595
-2.068129
-4.039608
-2.935120
-33.556066
-9.109680
0.924299
1.359319
1.136642
1.391195
1.288450
4.352255
0.214377
1.355944
-9.767796
0.712673
-5.811451
-2.244825
3.009022
-16.501612
-4.229387
-15.934665
3.178245
5.258113
4.780272
5.143733
5.570304
1.412624
0.984608
2.070894
3.041295
-5.011960
3.748754
38.751970
-0.233158
-8.264797
4.498112
5.136452
4.704750
1.291624
1.022383
5.140404
5.612257
5.464731
5.598347
5.795766
5.776067
5.675976
5.764341
5.709163
5.786421
5.650757
5.587877
5.629625
5.307331
5.289414
2.148379
0.926127
0.855360
0.863040
0.885697
4.293349
5.136320
1.395711
1.406406
0.927968
0.953162
0.872167
0.878456
0.856234
0.915945
3.435224
1.292984
0.867008
0.954785
0.894699
1.422260
1.418631
-5.979753
-0.394514
1.626148
-0.096589
6.018853
-12.142183
-35.062576
-1.633906
-34.842521
-5.093388
-8.692897
-3.482560
1.304884
1.858126
1.887431
1.335209
5.156893
5.178896
5.176893
5.205172
5.341664
5.350901
4.825214
-8.508342
-7.781638
1.283214
3.006689
4.705538
3.347113
0.525509
4.706202
5.374039
4.857141
-2.806383
1.321998
1.349174
1.426695
1.380260
3.853978
1.719167
-1.301503
-5.887821
-4.965883
2.964659
-11.096277
4.082621
3.000338
0.891857
5.229313
4.584038
-6.964541
5.243627
1.124227
-3.433317
5.322875
5.373285
4.943588
5.151866
5.185427
5.147875
2.149687
5.250260
5.169212
1.720325
2.579143
1.876829
1.311966
1.298199
1.290743
1.411054
1.364940
1.325930
1.367456
1.286378
1.422728
1.295522
1.425824
3.748506
27.732965
1.389837
-0.670418
1.283221
-24.320755
4.279764
0.606757
-5.586588
-0.178570
-10.458587
-10.929677
-4.334917
2.399278
1.375849
-34.077563
1.479493
1.713616
1.867655
1.723546
4.741803
3.739117
0.126799
4.410699
1.807044
4.716807
4.780418
1.078790
-3.054316
-14.351729
-23.505263
3.019933
1.237600
0.623556
1.718150
-7.558181
-10.614807
-1.953326
-5.400848
1.967283
-33.110634
-0.565479
0.701489
3.675854
-0.449180
-8.665716
-31.997720
1.303296
4.702637
-5.150052
1.721765
5.074744
4.809497
1.266380
4.712782
4.709255
4.892066
5.195257
5.307459
5.366642
5.363820
5.217103
5.338495
4.006329
4.840700
1.817477
5.163000
5.377248
4.874233
3.436975
4.273629
1.285332
1.425676
1.869928
1.318232
1.301369
1.887346
1.373232
1.329070
2.151068
2.578637
3.915652
1.341996
1.730219
1.308960
1.891945
1.893497
1.849677
0.503497
2.665077
3.894007
-4.399556
-11.308967
-6.658155
-0.881108
-0.416398
2.846572
4.404467
1.749846
2.317403
2.350622
1.778189
3.425804
4.275063
4.948219
4.936708
4.374815
4.439441
1.098946
0.588657
0.513387
-12.609951
-5.118049
2.148363
2.246242
3.008261
-3.168342
4.273039
4.908974
4.782361
4.688451
3.984389
1.797513
1.888712
1.716715
-7.451960
3.467641
-0.982842
-0.124499
1.766087
-0.304752
-25.853334
-1.489876
2.660131
1.637926
4.228657
0.864206
4.564707
4.734750
4.278596
1.712063
4.795434
4.953413
4.760246
4.895945
4.846325
4.390272
1.849973
1.779349
4.727830
1.408317
4.750615
4.722092
4.405794
1.818706
2.338766
1.762991
1.728488
1.722309
-13.241789
2.345982
1.735412
1.739549
1.877390
1.837867
3.841690
-3.704386
0.868434
-15.570873
-2.500753
-6.890425
-31.610496
5.100488
0.513191
1.592249
0.585821
-0.621932
-32.284253
-28.626581
3.275526
4.429809
-4.090041
2.161437
2.299499
2.163904
4.325521
1.749260
3.885764
4.190541
2.149114
2.256742
4.287389
4.437000
4.299986
3.939099
3.858282
0.554904
-1.054059
2.707487
-33.616664
0.298448
-22.342608
-1.226098
3.439450
-2.380378
2.028617
-16.026703
3.139315
1.227784
0.720966
0.171149
-0.695656
1.968798
1.181882
4.272001
-32.186046
3.675733
4.347953
1.477668
4.924816
4.361370
4.770828
4.953908
4.948527
4.282748
2.221838
4.475701
4.458256
1.385798
3.953792
4.421357
4.924389
4.315551
4.298006
2.155747
2.577540
2.348384
1.772479
1.829399
1.714850
1.757747
2.330005
2.355889
1.745575
5.525670
2.173986
1.788357
2.291560
2.308515
2.343822
3.850559
-25.499944
-1.824840
-15.623245
1.581025
5.458560
0.842403
0.504598
-2.557781
-8.033891
1.862265
1.565927
-18.850436
0.044238
-1.663105
-0.826185
-1.663871
-6.268078
2.807207
2.773063
2.188947
2.035012
0.637304
3.370873
3.814332
2.796465
2.222123
3.848470
4.037901
4.527601
4.507485
3.889535
3.985159
1.021699
2.521996
0.619035
-12.359611
3.501278
-0.258055
5.523271
2.268998
2.147430
1.223089
0.221637
-18.892772
5.817515
1.880857
-0.272570
-0.744282
2.998009
3.422820
-1.150991
2.341957
1.680221
4.491668
2.863869
3.925031
4.056771
4.336228
4.293868
4.480572
2.073463
3.844999
3.967997
1.600441
4.508579
4.376214
1.951827
4.306921
4.019363
4.519027
2.203458
2.270395
2.161587
2.796099
2.744630
-21.781068
2.171053
3.849468
2.154084
2.244915
2.282789
2.324255
2.144950
2.181991
-15.727600
6.076882
-43.708407
-23.851338
-10.293744
-34.817623
-0.970515
-1.365399
-6.841623
2.940847
2.597665
2.725098
2.580522
2.609495
2.698486
3.973799
3.859329
3.489304
4.061014
4.070343
-29.248442
6.466172
1.841607
-1.148485
-5.758416
3.722499
3.900442
2.399256
0.317849
2.783751
3.383925
3.595690
3.528717
2.767727
1.463475
0.619768
7.694666
4.056499
3.140025
3.545801
3.912269
3.853316
4.524594
3.413880
3.515243
2.574308
3.906227
2.272516
3.864960
3.880433
4.521339
4.002552
2.588211
2.214564
2.605463
2.762054
2.803422
2.234607
2.196707
2.785240
2.806150
2.141712
-26.372584
2.685020
0.018921
4.089074
1.824971
-0.611016
-0.175966
-5.360075
-32.383149
0.925217
-16.239954
2.642317
-59.795697
0.155534
1.512373
2.364437
3.251894
17.520601
1.628872
2.879332
7.160459
1.370494
2.226896
6.996728
2.724537
3.350763
3.434385
3.509784
3.238125
2.640573
3.396570
3.461767
3.224990
3.464348
2.664844
3.425173
4.068746
4.092507
3.246004
3.545603
4.093767
2.689154
4.308890
-18.647783
3.614066
0.612514
3.068882
-3.452161
2.874916
4.024625
4.081318
3.872254
3.444993
3.553832
2.673081
2.594896
2.619180
2.576350
2.605748
2.586232
0.843110
2.734738
2.635052
-7.221081
2.951817
3.169892
3.050911
3.073836
2.692867
-0.148593
0.334791
1.699241
2.502161
3.571659
3.437749
8.766941
1.730288
-1.547362
1.131340
10.057085
0.086318
2.615937
3.152645
3.431126
5.351115
2.981895
2.011334
2.613890
3.562254
3.419563
3.453624
3.061477
4.095465
2.675901
3.237555
2.673979
3.252763
3.248325
3.055017
3.214564
3.128889
2.995913
3.020734
3.028878
3.138637
3.605818
2.985899
3.110842
3.044502
3.630559
3.647070
3.211447
3.088231
3.082247
3.651628
1.600169
2.161630
26.747691
3.199462
-5.440447
1.097954
-10.852182
3.622392
8.166298
2.212326
13.213367
1.535889
3.055528
2.448805
3.152108
3.639222
3.668483
3.014020
3.024968
3.640913
3.036929
3.685025
1.607298
8.906246
1.808454
1.319805
5.509452
3.048551
-16.267284
14.834636
2.017323
SCALARS UY float 1
LOOKUP_TABLE default
-0.000000
0.000000
-1.156179
7.834088
7.815401
-0.000000
-0.000000
-0.000000
-0.000000
-0.000000
-0.000000
-0.000000
-0.000000
-0.000000
-0.000000
-0.000000
-0.000000
-0.000000
-0.000000
-0.000000
-0.000000
-0.000000
-0.000000
-0.000000
-0.000000
-0.000000
-0.000000
-0.000000
-0.000000
-0.000000
-0.000000
-0.000000
-0.000000
-0.000000
0.000000
0.000000
0.000000
0.000000
0.000000
0.398835
7.221137
-21.702980
-30.731167
-28.830504
-33.695221
-42.238217
14.407720
10.297751
27.632223
21.829860
21.677909
15.710591
11.946444
32.729817
21.807171
14.294406
15.210235
10.240273
5.064746
0.464661
-3.121728
-5.022042
-6.049415
-5.879668
-5.872075
-5.476135
-4.774008
-4.210967
-3.765259
-3.422218
-3.056170
-2.776206
-2.521627
-2.327004
-2.194657
-2.053933
-1.940441
-1.863524
-1.812459
-1.752807
-1.722916
-1.682253
-1.647949
-1.560210
-1.473514
-1.362031
-1.256067
-1.475995
-2.696580
-3.003491
-2.748880
-2.393595
-2.036288
-1.652145
-1.282831
-0.935138
-0.599291
-0.280586
0.026422
0.320700
0.605566
0.880527
1.147538
1.406120
1.658647
1.903225
2.142959
2.376984
2.605947
2.828424
3.048058
3.261709
3.473052
3.680812
3.885725
4.086142
4.285424
4.481285
4.676364
4.868621
5.060276
5.249640
5.438531
5.625696
5.812568
5.998171
6.183581
6.368043
6.552389
6.736340
6.919674
7.102971
7.285861
7.468737
7.651466
7.833974
7.833767
7.833528
7.833098
7.832600
7.831734
7.830721
7.829542
7.827954
7.826319
7.824307
7.822224
7.819953
7.817671
7.627782
7.440085
7.252325
7.064498
6.876615
6.688711
6.500829
6.313032
6.125401
5.938001
5.750964
5.564387
5.378405
5.193171
5.008920
4.825868
4.644277
4.464455
4.286771
4.111598
3.939395
3.770913
3.606750
3.447401
3.293413
3.145469
3.004470
2.871540
2.747732
2.633972
2.530917
2.438914
2.358697
2.289594
2.231629
2.182753
2.141226
2.102958
2.063782
2.016400
1.955018
1.867104
1.743898
1.575512
1.353556
1.081209
0.753073
0.389318
-0.667768
4.088131
4.869674
5.998508
0.894437
1.911701
2.833402
-1.607780
0.204239
-0.115944
4.295107
6.129589
3.294146
2.726656
2.285728
1.916732
5.384475
0.172340
27.284657
7.646855
-1.224466
26.524013
1.474854
0.165744
6.879437
6.919740
-3.192190
-4.230187
1.081780
-14.287465
7.640554
7.649103
0.183607
2.737142
-14.494983
7.285885
-0.569294
7.442485
-4.482189
0.142459
-0.900599
5.016068
3.947317
2.118391
0.048698
3.265748
5.250469
6.368245
7.649756
0.175514
8.627290
23.655181
-2.565310
0.589940
0.231537
-0.075257
0.165912
-3.889412
-1.823555
-2.805477
4.560300
-2.397135
1.690553
7.636140
0.196944
0.167055
7.468715
7.254804
6.691799
6.504243
2.488420
2.997100
4.652261
3.777858
5.756130
3.612115
2.045867
1.850591
7.647893
7.644199
6.552498
5.626209
3.475731
1.416714
2.149911
4.482652
3.683329
0.340160
2.382628
-1.244994
7.650647
7.631982
-6.258371
0.292248
0.185790
-0.620761
24.204085
13.902946
17.893063
20.142249
0.006895
-1.714558
-1.600643
-1.527872
3.483918
1.933481
0.112685
1.732008
3.946978
0.338272
-1.726917
0.323353
29.183409
6.368301
7.462909
6.881217
-3.236935
-1.489154
22.286870
-0.247152
0.467863
-3.427350
0.776506
1.364565
0.844613
-0.743659
1.313482
-2.274045
1.605725
0.169082
0.194001
-1.988436
1.768768
7.444141
0.161951
7.066878
6.694272
3.775625
6.316648
2.603464
5.199686
4.472512
2.382934
3.450653
1.980093
4.119793
2.858141
5.569897
5.942497
3.142511
4.833309
2.198273
7.649614
7.648598
7.645484
6.736101
7.102725
6.183403
0.621486
4.676892
-0.254148
1.666936
3.886633
5.438495
1.158919
5.812429
-0.898571
4.286062
3.051010
2.609967
5.060568
2.169040
7.642173
7.637685
-1.553573
7.468985
-1.189962
0.168485
0.179455
0.230977
0.195161
21.248496
17.848321
0.190334
24.300309
-17.355888
-5.312589
0.101994
-0.342612
-6.249028
0.709426
4.872302
5.573856
1.423323
1.970449
5.626355
4.092113
4.476546
2.087432
3.126186
2.552530
3.940085
6.883307
1.292754
1.127404
7.459939
0.933684
6.919316
7.465220
22.966894
0.336950
0.694980
0.306335
-3.928932
7.068485
5.203912
-1.975583
6.319957
7.463763
6.552710
-0.477592
0.395701
3.690293
0.333339
4.653956
4.322101
0.362762
23.518905
0.104550
22.455847
5.003539
-0.918775
-1.914224
-1.578045
1.578119
-2.703633
7.466102
7.257726
1.812634
2.305504
2.828025
6.507518
4.121652
5.946799
4.838215
3.443529
0.322161
3.608220
7.286007
1.446016
1.652885
-1.112720
5.998404
4.486649
7.455303
2.399684
2.844869
1.692548
3.274232
5.250981
-0.177153
6.183492
7.461345
0.319721
7.452622
0.331674
0.380126
0.361034
0.388740
0.423336
25.834458
-2.148605
-1.371204
-1.544338
-1.633528
-0.331363
6.367787
1.389901
0.456101
3.497084
-1.818684
-3.488435
0.260050
0.513624
7.278756
44.988593
0.487324
21.606262
-1.752250
4.115525
1.549901
6.508715
1.991125
0.217524
0.466542
0.552559
0.982946
4.400236
1.278203
12.165118
-4.774614
-0.720230
1.519379
7.069532
7.271472
7.282425
-2.297012
6.696990
5.388017
1.898896
5.759911
2.687031
2.425963
4.297621
3.282142
2.193427
2.973980
4.656148
6.133312
5.020466
3.594305
3.766465
7.464610
-0.789160
7.102342
5.812525
4.290077
7.457466
7.267128
2.428399
2.202631
2.624418
1.192694
5.062058
4.679524
6.736029
3.061252
7.276895
5.998145
5.439110
0.668080
3.892151
1.493473
1.734160
-0.610234
0.321325
0.375190
-2.541875
16.876607
28.757966
39.942614
0.347772
28.181312
0.371833
-2.491482
0.385492
5.252412
2.466756
1.558720
4.099025
5.948269
1.849016
5.390285
4.838052
2.213569
3.095924
4.106316
-1.304058
-1.870013
6.919434
7.094338
6.699360
1.116186
-4.595455
7.087298
2.488301
3.750525
0.523379
4.490671
3.701750
0.997512
2.864436
7.274809
0.539566
0.454649
8.847407
0.417605
-1.602277
25.137324
1.317337
1.005717
-2.751564
4.474482
1.467215
-0.088879
4.292707
-1.927335
0.526923
3.424258
2.782747
1.643533
6.136307
5.205595
6.322575
7.280570
1.964210
5.577430
7.281499
7.279513
2.020807
4.876166
5.626614
6.182991
-0.057620
3.289220
-0.891910
-0.609901
6.551419
0.480609
5.812625
1.247924
-1.946829
13.533531
2.651033
-3.534432
7.098877
41.461968
7.272925
0.457065
1.680661
0.462028
-3.743494
-3.199286
20.995590
0.749540
0.480553
23.241387
-1.240223
-0.645170
0.353598
5.998856
5.390315
1.140718
0.560511
1.367707
3.515408
6.135771
1.700347
-1.907626
0.464462
-4.489536
40.011655
1.003840
0.590546
-2.886173
6.367049
1.415542
19.217096
0.552827
-0.098968
0.673161
38.775481
0.453385
-6.123902
1.206132
-5.780748
13.210948
23.290016
-1.189399
6.885272
6.412197
7.097488
1.742365
4.289347
-1.639636
6.324877
6.513538
3.401072
5.020517
2.084415
2.347098
2.936684
4.654784
3.257398
1.208812
3.927241
-0.139164
5.762490
2.633369
3.575039
7.092163
7.087225
6.735509
0.741977
2.245556
4.684253
5.439902
1.791259
3.078666
4.295851
7.096367
7.095228
-1.803129
3.900689
5.627037
5.063131
1.082596
1.321980
2.684469
0.562135
0.879885
-2.008900
0.232684
-2.573334
-0.521172
0.480464
-2.378973
0.869373
-2.260723
4.881518
2.512818
1.638614
4.108345
0.966243
6.512054
2.256831
2.889532
4.275676
3.550116
-1.044971
-7.818038
0.611221
-3.451352
-1.444945
6.912038
0.788103
6.909737
-0.554137
6.903421
3.228111
4.653882
1.581443
-1.358626
3.717195
0.841606
6.551946
18.627013
1.089415
0.559933
-3.544476
-1.221857
0.561196
46.269712
0.559085
0.918670
-0.916104
1.283083
-2.263593
1.468420
5.574897
6.322988
6.919538
4.469955
2.566872
5.021886
1.968795
1.830262
4.092534
0.107199
-0.381812
5.764638
-1.401477
5.206034
5.950253
3.910826
3.310432
2.081921
4.498688
5.812807
6.181928
-4.575660
1.187592
5.440976
5.254575
0.602838
2.891496
7.090507
0.389750
0.571282
34.675331
0.533539
8.871765
33.763693
-2.580886
-1.113203
0.622077
-3.615528
-6.488942
43.876810
14.220034
1.058524
-2.203397
-1.025728
-0.121257
0.518415
5.628145
5.020188
-0.808393
1.092311
1.290570
6.367569
3.533921
5.950746
1.689327
5.574784
4.261949
6.518486
-10.594115
0.443012
0.901891
29.542632
-1.270120
37.641392
-3.712062
6.907563
0.132606
0.777769
-4.377332
0.922765
-1.698222
-1.113871
0.590937
0.529671
-0.507477
0.653747
6.697584
50.086105
1.021560
4.645729
-7.918600
3.054537
4.458131
4.836221
2.408766
2.726381
6.137004
0.083360
3.193340
3.371412
-0.965275
4.076686
3.729940
2.111158
5.204726
1.412620
6.000178
6.910597
1.861701
4.304445
3.101998
6.735360
4.690239
2.298114
1.412602
5.066644
-3.139024
5.255161
3.912784
2.933551
2.725530
0.958850
6.906464
15.727774
0.275091
26.594543
0.697853
-1.904888
0.631538
-4.126001
-0.121836
-2.463424
0.715061
-1.241750
-5.396946
-1.802803
-1.998637
-7.010705
0.498704
11.576267
1.730339
2.566193
4.882418
-0.348005
0.564286
0.819858
1.101489
1.308588
4.121225
6.136672
3.153458
2.323333
2.834575
5.016381
3.706017
-0.326074
0.147653
-15.032007
-7.041741
4.247100
0.268726
-0.672711
3.335138
6.552383
0.664388
-0.578216
16.854007
-3.638791
0.755052
0.568589
-1.535319
6.676131
6.712197
-5.446819
0.838913
-2.263191
3.017933
0.754990
4.453363
1.182791
4.833212
5.759865
1.838643
-0.324379
6.323729
3.891665
-0.833946
1.996744
1.546966
-12.639490
5.389509
3.337476
2.662173
4.507866
0.297562
5.814229
2.152067
2.974063
32.294993
5.441153
6.737247
6.182392
3.729616
3.140721
0.731908
6.727745
5.068387
8.679020
-2.929948
65.884356
41.299783
9.564705
32.685248
-0.505487
0.327402
-5.519241
0.919767
5.629933
0.694562
6.368028
5.259726
3.519714
1.385015
5.759538
4.434052
1.711125
2.776480
79.700598
-3.151138
-0.336052
6.410771
-14.046170
1.001686
4.831143