# vtk DataFile Version 2.0
Test
ASCII
DATASET POLYDATA
POINTS 1161 float
0.000000 0.000000 0.000000
13.600000 0.000000 0.000000
15.000000 1.400000 0.000000
15.000000 50.000000 0.000000
0.000000 50.000000 0.000000
0.962136 0.000000 0.000000
1.863013 0.000000 0.000000
2.706530 0.000000 0.000000
3.496339 0.000000 0.000000
4.235861 0.000000 0.000000
4.928297 0.000000 0.000000
5.576644 0.000000 0.000000
6.183711 0.000000 0.000000
6.752126 0.000000 0.000000
7.284349 0.000000 0.000000
7.782685 0.000000 0.000000
8.249292 0.000000 0.000000
8.686190 0.000000 0.000000
9.095269 0.000000 0.000000
9.478303 0.000000 0.000000
9.836948 0.000000 0.000000
10.172758 0.000000 0.000000
10.487187 0.000000 0.000000
10.781596 0.000000 0.000000
11.057260 0.000000 0.000000
11.315372 0.000000 0.000000
11.557049 0.000000 0.000000
11.783339 0.000000 0.000000
11.995221 0.000000 0.000000
12.193612 0.000000 0.000000
12.379372 0.000000 0.000000
12.553304 0.000000 0.000000
12.716161 0.000000 0.000000
12.868650 0.000000 0.000000
13.011429 0.000000 0.000000
13.145117 0.000000 0.000000
13.270294 0.000000 0.000000
13.387500 0.000000 0.000000
13.497244 0.000000 0.000000
13.600719 0.044872 0.000000
13.602876 0.089698 0.000000
13.606469 0.134432 0.000000
13.611494 0.179028 0.000000
13.617946 0.223440 0.000000
13.625817 0.267622 0.000000
13.635101 0.311529 0.000000
13.645787 0.355116 0.000000
13.657865 0.398339 0.000000
13.671322 0.441152 0.000000
13.686144 0.483511 0.000000
13.702317 0.525374 0.000000
13.719822 0.566697 0.000000
13.738644 0.607437 0.000000
13.758761 0.647554 0.000000
13.780154 0.687005 0.000000
13.802800 0.725750 0.000000
13.826677 0.763749 0.000000
13.851759 0.800963 0.000000
13.878021 0.837355 0.000000
13.905436 0.872886 0.000000
13.933976 0.907520 0.000000
13.963611 0.941221 0.000000
13.994311 0.973956 0.000000
14.026044 1.005689 0.000000
14.058779 1.036389 0.000000
14.092480 1.066024 0.000000
14.127114 1.094564 0.000000
14.162645 1.121979 0.000000
14.199037 1.148241 0.000000
14.236251 1.173323 0.000000
14.274250 1.197200 0.000000
14.312995 1.219846 0.000000
14.352446 1.241239 0.000000
14.392563 1.261356 0.000000
14.433303 1.280178 0.000000
14.474626 1.297683 0.000000
14.516489 1.313856 0.000000
14.558848 1.328678 0.000000
14.601661 1.342135 0.000000
14.644884 1.354213 0.000000
14.688471 1.364899 0.000000
14.732378 1.374183 0.000000
14.776560 1.382054 0.000000
14.820972 1.388506 0.000000
14.865568 1.393531 0.000000
14.910302 1.397124 0.000000
14.955128 1.399281 0.000000
15.000000 2.391837 0.000000
15.000000 3.383673 0.000000
15.000000 4.375510 0.000000
15.000000 5.367347 0.000000
15.000000 6.359184 0.000000
15.000000 7.351020 0.000000
15.000000 8.342857 0.000000
15.000000 9.334694 0.000000
15.000000 10.326531 0.000000
15.000000 11.318367 0.000000
15.000000 12.310204 0.000000
15.000000 13.302041 0.000000
15.000000 14.293878 0.000000
15.000000 15.285714 0.000000
15.000000 16.277551 0.000000
15.000000 17.269388 0.000000
15.000000 18.261224 0.000000
15.000000 19.253061 0.000000
15.000000 20.244898 0.000000
15.000000 21.236735 0.000000
15.000000 22.228571 0.000000
15.000000 23.220408 0.000000
15.000000 24.212245 0.000000
15.000000 25.204082 0.000000
15.000000 26.195918 0.000000
15.000000 27.187755 0.000000
15.000000 28.179592 0.000000
15.000000 29.171429 0.000000
15.000000 30.163265 0.000000
15.000000 31.155102 0.000000
15.000000 32.146939 0.000000
15.000000 33.138776 0.000000
15.000000 34.130612 0.000000
15.000000 35.122449 0.000000
15.000000 36.114286 0.000000
15.000000 37.106122 0.000000
15.000000 38.097959 0.000000
15.000000 39.089796 0.000000
15.000000 40.081633 0.000000
15.000000 41.073469 0.000000
15.000000 42.065306 0.000000
15.000000 43.057143 0.000000
15.000000 44.048980 0.000000
15.000000 45.040816 0.000000
15.000000 46.032653 0.000000
15.000000 47.024490 0.000000
15.000000 48.016327 0.000000
15.000000 49.008163 0.000000
14.000000 50.000000 0.000000
13.000000 50.000000 0.000000
12.000000 50.000000 0.000000
11.000000 50.000000 0.000000
10.000000 50.000000 0.000000
9.000000 50.000000 0.000000
8.000000 50.000000 0.000000
7.000000 50.000000 0.000000
6.000000 50.000000 0.000000
5.000000 50.000000 0.000000
4.000000 50.000000 0.000000
3.000000 50.000000 0.000000
2.000000 50.000000 0.000000
1.000000 50.000000 0.000000
0.000000 48.979592 0.000000
0.000000 47.959184 0.000000
0.000000 46.938776 0.000000
0.000000 45.918367 0.000000
0.000000 44.897959 0.000000
0.000000 43.877551 0.000000
0.000000 42.857143 0.000000
0.000000 41.836735 0.000000
0.000000 40.816327 0.000000
0.000000 39.795918 0.000000
0.000000 38.775510 0.000000
0.000000 37.755102 0.000000
0.000000 36.734694 0.000000
0.000000 35.714286 0.000000
0.000000 34.693878 0.000000
0.000000 33.673469 0.000000
0.000000 32.653061 0.000000
0.000000 31.632653 0.000000
0.000000 30.612245 0.000000
0.000000 29.591837 0.000000
0.000000 28.571429 0.000000
0.000000 27.551020 0.000000
0.000000 26.530612 0.000000
0.000000 25.510204 0.000000
0.000000 24.489796 0.000000
0.000000 23.469388 0.000000
0.000000 22.448980 0.000000
0.000000 21.428571 0.000000
0.000000 20.408163 0.000000
0.000000 19.387755 0.000000
0.000000 18.367347 0.000000
0.000000 17.346939 0.000000
0.000000 16.326531 0.000000
0.000000 15.306122 0.000000
0.000000 14.285714 0.000000
0.000000 13.265306 0.000000
0.000000 12.244898 0.000000
0.000000 11.224490 0.000000
0.000000 10.204082 0.000000
0.000000 9.183673 0.000000
0.000000 8.163265 0.000000
0.000000 7.142857 0.000000
0.000000 6.122449 0.000000
0.000000 5.102041 0.000000
0.000000 4.081633 0.000000
0.000000 3.061224 0.000000
0.000000 2.040816 0.000000
0.000000 1.020408 0.000000
13.909350 0.941829 0.000000
14.008163 30.163265 0.000000
14.008163 34.130612 0.000000
14.008163 40.081633 0.000000
14.008163 16.277551 0.000000
14.008163 20.244898 0.000000
14.008163 24.212245 0.000000
14.008163 8.342857 0.000000
9.817943 0.353805 0.000000
11.775871 0.218822 0.000000
1.020408 30.612245 0.000000
1.020408 40.816327 0.000000
1.020408 24.489796 0.000000
1.020408 20.408163 0.000000
1.020408 16.326531 0.000000
1.018362 11.223256 0.000000
1.019479 36.734114 0.000000
7.766240 0.481890 0.000000
13.744884 0.708217 0.000000
8.000000 49.000000 0.000000
12.710787 0.157483 0.000000
13.643785 0.498333 0.000000
0.966982 6.081341 0.000000
5.555248 0.626951 0.000000
1.020408 44.897959 0.000000
14.008163 45.040816 0.000000
14.008163 4.375510 0.000000
14.135230 1.157510 0.000000
1.110406 3.998402 0.000000
13.581910 0.276906 0.000000
4.000000 49.000000 0.000000
11.000000 49.000000 0.000000
3.468805 0.753815 0.000000
13.286828 0.128125 0.000000
13.571292 0.182798 0.000000
14.008163 47.024490 0.000000
14.008163 11.318367 0.000000
1.020408 47.959184 0.000000
13.986969 1.039883 0.000000
11.033365 0.256493 0.000000
12.375655 0.180019 0.000000
1.020408 34.693878 0.000000
1.020408 28.571429 0.000000
1.020408 14.285714 0.000000
14.008163 13.302041 0.000000
14.008163 26.195918 0.000000
14.008163 36.114286 0.000000
14.008163 42.065306 0.000000
13.000000 49.000000 0.000000
9.061761 0.377165 0.000000
13.846846 0.875143 0.000000
13.602565 0.367194 0.000000
14.330468 1.278355 0.000000
0.985135 1.963183 0.000000
1.848016 0.860187 0.000000
13.006717 0.138067 0.000000
6.733368 0.549656 0.000000
13.981312 2.366987 0.000000
14.517684 1.371589 0.000000
14.008163 5.367347 0.000000
13.502952 0.103492 0.000000
14.008163 6.359184 0.000000
1.012223 8.075156 0.000000
2.000000 49.000000 0.000000
10.466507 0.317468 0.000000
4.903734 0.664259 0.000000
14.008163 48.016327 0.000000
1.020408 46.938776 0.000000
1.020408 43.877551 0.000000
1.020408 42.857143 0.000000
1.020408 18.367347 0.000000
1.020408 22.448980 0.000000
1.020408 32.653061 0.000000
1.020408 27.551020 0.000000
1.020408 38.775510 0.000000
1.020408 26.530612 0.000000
1.020408 13.265306 0.000000
1.020408 10.204082 0.000000
9.000026 48.999914 0.000000
6.000000 49.000000 0.000000
14.008163 43.057143 0.000000
14.008163 38.097959 0.000000
14.008163 27.187755 0.000000
14.008163 18.261224 0.000000
14.008163 21.236735 0.000000
14.008163 32.146939 0.000000
14.008163 28.179592 0.000000
14.008163 14.293878 0.000000
14.008163 22.228571 0.000000
14.008163 9.334694 0.000000
14.004099 49.004099 0.000000
1.010098 48.989902 0.000000
13.558143 0.093291 0.000000
0.955988 0.955988 0.000000
8.662374 0.425726 0.000000
12.184441 0.198708 0.000000
13.663594 0.544206 0.000000
13.702388 0.624737 0.000000
13.617517 0.413610 0.000000
13.792566 0.798406 0.000000
11.548133 0.250352 0.000000
14.588204 1.384948 0.000000
14.681162 1.411235 0.000000
13.040022 8.144516 0.000000
13.014441 27.185869 0.000000
13.013181 20.242544 0.000000
13.014441 13.300155 0.000000
2.032435 11.216109 0.000000
2.038869 28.569481 0.000000
9.094026 0.740465 0.000000
12.393614 0.391054 0.000000
5.548361 1.269868 0.000000
13.617800 0.568998 0.000000
13.014768 42.063747 0.000000
7.999729 47.999729 0.000000
2.036314 44.892981 0.000000
13.140146 4.499330 0.000000
14.634824 1.474846 0.000000
13.571037 0.432035 0.000000
11.842029 0.443618 0.000000
1.894544 1.771554 0.000000
14.114823 3.610783 0.000000
13.394522 0.087201 0.000000
13.150234 0.115928 0.000000
0.994902 2.908324 0.000000
12.871309 0.135408 0.000000
0.983321 5.064954 0.000000
13.097446 6.278064 0.000000
0.934281 7.060694 0.000000
4.199943 0.690491 0.000000
2.699404 0.770870 0.000000
14.007220 7.350077 0.000000
1.002133 8.995361 0.000000
2.036784 47.955152 0.000000
6.151143 0.575397 0.000000
1.019139 45.917099 0.000000
2.037362 43.875442 0.000000
2.038869 27.549073 0.000000
1.019435 41.835762 0.000000
1.019435 19.386782 0.000000
1.019435 35.713313 0.000000
1.019435 31.631680 0.000000
1.019435 17.345966 0.000000
1.019435 25.509231 0.000000
1.019435 12.243925 0.000000
1.019435 29.590864 0.000000
1.019435 21.427599 0.000000
1.019435 37.754129 0.000000
1.019435 39.794946 0.000000
1.019435 23.468415 0.000000
1.019435 33.672497 0.000000
1.019435 15.305150 0.000000
11.999464 49.000536 0.000000
10.000001 48.999999 0.000000
7.001010 48.998990 0.000000
14.007547 44.048363 0.000000
[...]
POINT_DATA 1161
SCALARS UX float 1
LOOKUP_TABLE default
66.784577
133.960700
0.000000
0.000000
6.206108
68.217910
70.124845
72.369484
73.904178
73.454607
70.855991
72.705402
80.522549
183.688877
251.792367
74.428229
28.327346
104.254445
167.271302
205.188959
142.504620
45.789158
-155.627989
-140.393545
-111.312603
-74.013501
-46.890345
-10.920058
20.263835
37.468156
41.392788
28.445778
-17.946746
-22.326794
-50.910295
41.017315
806.550035
-161.794834
-163.004890
-240.919027
-850.545119
2299.416462
1072.803483
311.577626
596.855989
1040.264597
111.115493
619.388041
680.007502
772.198508
835.063822
732.008297
609.384716
472.185357
329.169034
569.558256
297.428076
174.217361
98.303454
70.373847
43.603235
59.809704
108.318512
95.484450
102.895238
150.023576
133.999333
132.929386
124.348905
177.243451
-81.573932
-88.219540
-47.972624
-32.092072
-56.886686
-35.679012
-25.324506
-26.070622
-15.905152
-30.152998
-41.384621
3.854188
18.993338
1.435305
1.922841
0.167940
0.033232
0.000000
0.000000
0.000000
0.000000
0.000000
0.000000
0.000000
0.000000
0.000000
0.000000
0.000000
0.000000
0.000000
0.000000
0.000000
0.000000
0.000000
0.000000
0.000000
0.000000
0.000000
0.000000
0.000000
0.000000
0.000000
0.000000
0.000000
0.000000
0.000000
0.000000
0.000000
0.000000
0.000000
0.000000
0.000000
0.000000
0.000000
0.000000
0.000000
0.000000
0.000000
0.000000
0.000000
0.000000
0.000000
0.000000
0.000000
0.000000
0.389680
0.780863
1.174116
1.571094
1.972167
2.379650
2.791041
3.207316
3.629723
4.055028
4.484298
4.914846
5.345991
5.776633
6.185902
6.164185
6.139898
6.110637
6.075151
6.032517
5.982110
5.923396
5.856541
5.781310
5.698351
5.608527
5.511581
5.407629
5.300075
5.194706
5.089690
4.989050
4.899222
4.828925
4.766280
4.737558
4.764678
4.868123
5.051794
5.335089
5.736798
6.287258
7.023665
7.967428
8.893198
10.510247
12.451605
14.724415
17.325428
20.053375
24.359868
28.834852
32.090779
15.201912
16.523868
11.714374
8.961524
15.230882
25.740045
39.452613
52.570353
62.151063
59.910980
0.128070
0.218786
0.326877
0.721976
0.169987
0.043485
2.225183
155.293117
87.993902
4.331371
5.406244
4.290724
6.078767
11.867186
28.246377
5.035265
84.187253
517.755506
2.793036
-13.709381
798.396951
5.592468
68.066810
5.636136
0.376107
-9.071695
125.505762
24.953151
645.419816
4.472302
1.576804
72.580489
-297.467350
1290.774457
0.385568
2.442563
5.727685
114.850046
-77.640338
57.125979
4.800968
4.146968
16.729804
1.727696
0.053251
0.260104
0.351035
0.783959
159.595168
25.609625
483.699925
-25.452549
55.089595
67.432822
181.939297
165.479802
0.441614
-40.171957
-1.648202
-688.163364
2.497751
15.649351
5.328265
-152.376165
71.215253
0.387740
5.702719
5.591721
5.538893
8.334053
4.887270
4.561611
4.086564
5.236799
4.078798
19.472838
29.766126
2.382515
3.625410
0.359329
0.297009
0.070559
0.364905
0.116779
0.174611
0.079367
1.400799
0.080572
1.242372
0.389976
5.752753
-1693.764052
64.951102
92.425862
57.695446
912.641721
549.114661
676.686445
157.992987
88.532939
-41.617093
43.757628
5.023192
0.144714
0.352826
3.362023
27.223758
3.558712
153.210363
79.277508
81.996149
259.258565
0.702841
2.784249
5.198421
-9.270406
43.118122
665.873245
62.317175
59.112540
3.278750
-571.830285
302.676308
41.792579
-22.448562
13.006164
5.782949
9.098575
73.694660
70.197919
2.965487
19.536354
5.291867
64.586177
5.673358
5.151921
3.470441
5.477025
7.001107
4.920982
4.442876
9.937912
4.147606
23.763224
4.239355
5.390129
5.139960
5.325887
4.533658
4.682770
14.132321
1.179092
1.977875
3.206660
0.368817
0.381799
0.339733
0.999427
0.194539
2.201496
0.255819
0.105404
0.279827
0.522610
0.312745
2.132535
0.151308
0.046997
0.055302
0.238402
0.239037
4.046607
4.898020
-0.824824
0.777571
51.237021
279.534742
23.841492
216.330225
51.368059
616.323209
511.736270
-130.435559
691.479726
365.315826
1179.457222
28.266414
75.814982
721.749275
-204.224595
0.441358
4.673885
7.656234
0.548575
0.597416
0.262772
3.916484
13.222729
3.807595
6.121110
3.012753
4.761562
1064.717976
10.944000
3.610593
1.425858
0.753164
1.573644
1107.283878
270.115990
44.801856
-6.844596
-0.554728
5.236714
4.440249
-57.641170
5.032224
2.376551
0.723143
4.838203
2.574506
0.173257
72.949418
287.465806
1038.702231
-179.786313
545.002928
92.238181
-296.781725
685.999661
37.634835
7.351679
-26.021850
24.299237
-2.671417
1.170036
5.268442
23.167913
8.957001
4.584808
5.096609
3.664094
4.872922
4.184372
3.483856
77.489569
3.466361
0.772044
0.733071
28.442585
1.569505
0.656472
0.352364
4.445263
0.171225
0.100543
0.507597
0.114966
0.525079
4.141715
0.681569
3.197210
82.767453
4.862039
244.732443
64.026510
57.351420
68.483201
242.173599
59.905690
76.346492
-0.065463
29.965384
8.632366
6.945606
1.060687
28.759897
119.912594
0.233662
90.049425
-0.901640
81.569091
91.025612
2.767992
417.036867
-237.625307
-9.388163
-33.246581
3.138136
25.596865
4.657241
16.144513
4.615877
73.294296
53.039301
19.552249
159.524696
0.882328
591.445419
10.304997
9.289770
18.481163
4.802452
4.411138
1.170384
-0.479637
4.714717
4.563097
18.887675
4.779877
5.243734
7.422683
3.786476
3.594218
10.896748
4.124342
4.050466
4.957961
4.315697
2.848471
2.928673
1.973068
4.286616
0.765319
0.628391
0.307148
4.031062
4.838042
0.280006
0.356912
0.113761
1.023782
0.484312
0.396770
0.739329
0.101084
3.173829
0.991390
0.563423
1.924546
0.218308
1.085152
0.761176
657.125835
18.234057
66.998777
4.259107
463.422840
690.608624
120.973921
-22.696991
269.668307
-125.053188
85.055794
193.109158
0.798199
0.403265
1.448940
0.412461
4.424132
15.059183
4.098235
3.701145
8.010525
3.149574
2.635159
47.758929
62.255293
1.133073
2.738433
4.282739
-7.806647
25.076259
4.379254
5.357960
2.413292
269.559148
0.544802
0.284673
2.047429
0.174956
3.578031
54.250568
243.962974
-45.062855
-15.636810
-13.345532
307.162222
21.942237
8.320697
5.026330
3.411690
28.535038
95.935558
3.268407
10.099283
169.637193
2.868743
3.857023
21.739505
4.512851
3.970187
4.591664
1.960518
12.134089
4.221732
1.563720
2.362126
0.751011
0.675668
0.904382
1.027321
5.871948
0.192111
0.128784
6.567121
1.088905
3.631098
0.948616
1.497859
-28.816737
647.951623
0.201781
6.533710
1.149851
257.592103
3.993001
103.552174
-395.611108
84.378609
71.762013
66.352214
124.591166
32.092649
64.097957
186.943255
12.920444
-5.302417
5.563759
1.332571
3.652369
30.282675
86.294943
23.899534
0.343958
4.075253
13.456353
12.643058
120.921447
68.374431
215.380850
-22.184102
38.496720
23.257727
1.422479
-141.957013
-13.562537
136.558870
69.370224
33.966946
66.236498
111.507284
7.487726
3.368335
-6.910172
60.713376
141.240614
8.571843
4.330396
-255.933625
1.547702
18.230388
2.793967
30.882916
4.155507
4.225422
2.322727
3.839707
9.853330
6.499420
3.432547
3.558635
2.955677
33.620487
2.512858
7.356679
4.330370
4.486644
2.355657
3.146828
3.954553
1.112504
2.733272
0.526961
0.606808
0.852952
1.017951
0.173219
0.473805
1.940874
2.336706
-11.394478
0.346391
1.219253
0.736494
2.606231
1.937347
0.318746
78.770328
18.521510
-35.592645
-3.978508
82.824557
115.798426
141.174204
4.634176
30.543000
-4.454743
0.920415
0.567818
1.817736
0.582654
39.103376
3.797983
5.631920
2.807127
2.354844
1.895023
-9.095198
5.097721
5.162670
79.806421
26.035016
1.910178
15.143782
2.703027
-71.832626
3.912925
2.386345
3.099917
16.450205
-5.994050
0.424372
3.394867
1.458300
63.223906
13.936573
171.426529
0.409148
3.006478
157.629151
48.025898
131.927257
9.958710
17.056263
27.946201
2.655111
19.982946
3.777116
3.727554
1.516435
2.942313
3.786398
3.388995
8.716760
10.853539
2.195375
5.909165
7.634944
3.888392
-4.661419
3.527565
3.988009
2.062715
0.294450
0.988187
0.748942
1.276436
1.379052
176.773132
3.205864
1.152292
1.083722
4.322125
0.281793
3.534709
-304.041379
22.160453
28.065617
238.153290
51.004753
138.152811
-51.725677
4.708637
38.627876
13.587703
-3.885931
94.998718
76.268878
-5.237471
-57.693703
-6.057854
16.098061
6.441298
1.543603
2.962500
11.489838
25.642440
17.481255
1.791037
0.498158
3.559032
9.466676
3.350153
1.944127
3.396062
-11.014465
174.581489
-48.815241
93.524355
73.418883
204.540108
11.595190
3.110678
121.473478
4.473101
146.376763
21.731062
6.616126
-1.412853
48.745522
88.923538
30.430695
33.997478
3.854776
44.837333
31.957994
2.653767
-3.706679
2.522094
2.502276
3.244065
4.595022
3.188203
3.648853
10.313281
1.885957
1.840621
57.708171
1.801968
1.987470
7.045097
3.098657
14.353927
1.682524
2.303883
1.342293
0.656312
0.272486
1.491413
0.837451
0.739715
2.391487
1.008228
-87.509777
1.381895
0.496234
0.428998
0.452346
4.056119
3.504900
107.956836
138.394731
131.223250
19.281061
-31.796842
33.372552
24.357825
-86.065212
23.928001
19.348512
-1.377509
54.777659
59.230384
-9.179313
-8.696666
47.526212
12.657266
2.244402
0.781078
1.187555
17.653815
64.870449
39.053007
15.423322
3.868214
0.770300
3.232190
1.461052
3.856585
2.212711
2.559332
1.566798
-11.389108
15.606925
11.639277
-0.821842
1.595924
47.751803
-14.745855
0.457060
1.837200
23.568906
36.645929
67.998799
98.963267
-14.275441
80.369869
44.758572
2.637260
3.043859
34.384828
22.943264
-4.206257
2.010977
32.553384
2.110797
21.409328
2.816631
3.460914
7.583818
24.515321
3.310848
1.690502
-2.164043
6.005309
11.726443
10.779956
3.233514
1.452033
2.577579
0.975442
8.465741
1.618069
1.277545
0.600676
130.852832
1.463451
3.457923
1.741298
0.580304
0.408161
5.190133
1.873030
1.289809
70.270490
-75.240402
53.803230
102.464725
139.705361
65.509266
73.369367
184.830814
1.898384
0.253496
1.883239
8.078572
2.167993
1.693985
0.676211
10.087915
3.046010
1.750406
6.411292
1.738337
31.074693
72.585460
22.985513
74.126650
22.865391
19.332064
2.423535
30.428697
59.565716
4.999221
2.941179
1.106040
1.347031
0.621059
47.396012
3.839468
-43.561026
1.531073
43.719310
25.725999
2.258840
3.149148
3.151073
2.901106
1.453486
2.262758
12.507075
34.060147
2.940262
2.701383
4.826791
1.490623
2.043431
0.872598
13.658158
0.660447
1.736229
0.671543
1.092775
1.012824
2.992893
10.415065
72.738230
1.506185
56.913986
-26.080612
-9.815948
96.229026
50.625882
39.488001
48.099601
52.985067
43.221693
-3.430625
63.178156
22.815904
6.032846
-9.029563
2.880593
-30.023649
7.359312
38.727799
0.706957
-54.743323
15.439492
49.079795
31.569853
18.109165
13.908910
11.000111
4.648581
1.228026
2.813846
1.870110
1.043782
2.046530
0.989506
2.656868
5.000102
2.521089
1.673938
1.225133
3.948462
0.765056
12.783648
-24.993841
1.167810
20.850418
32.633517
14.785819
20.626523
8.100390
2.082034
2.828004
2.318323
1.109626
10.686628
1.972795
1.592251
2.222123
1.797360
2.113580
-17.826276
6.247358
1.351201
77.663513
2.544680
0.815472
1.423509
1.168080
0.627726
11.742239
38.379165
-19.115325
-67.067993
8.533593
2.436437
94.003402
11.619168
119.365019
-9.801985
-9.771331
6.281504
35.897043
25.193427
2.555550
120.218367
15.641926
-21.932577
35.859904
1.148478
2.749840
2.193134
1.290743
3.193016
0.876218
1.321863
1.130880
2.232818
3.709753
12.373932
6.028246
9.807673
2.532610
2.416540
2.236978
1.869540
6.864077
1.528655
0.921819
2.031049
1.314268
4.268950
0.928194
1.039304
0.817761
2.001685
-6.956094
-48.419325
47.520838
0.863916
126.164744
-52.749148
2.325725
110.450190
87.413890
9.620964
-66.586959
14.699200
1.917856
7.020290
7.516300
5.297593
3.362538
2.487379
2.331097
1.616512
2.137781
2.531533
97.287490
-4.381223
-15.410185
-0.920536
86.764724
1.690142
41.301038
32.327376
-46.631089
SCALARS UY float 1
LOOKUP_TABLE default
-0.000000
0.000000
-2.702521
23.886996
23.897798
-0.000000
-0.000000
0.000000
0.000000
0.000000
0.000000
-0.000000
-0.000000
0.000000
-0.000000
-0.000000
0.000000
0.000000
0.000000
-0.000000
-0.000000
-0.000000
0.000000
0.000000
-0.000000
0.000000
-0.000000
0.000000
-0.000000
0.000000
-0.000000
0.000000
-0.000000
0.000000
-0.000000
0.000000
-0.000000
-0.000000
-0.000000
557.440670
-1314.185625
1128.242085
206.617029
227.429968
237.559488
11.488866
-556.200754
-472.817816
-396.089289
-417.604665
-454.846822
-160.851077
-221.627713
-207.440005
1.588874
185.061789
158.830971
148.314452
137.054229
117.180658
158.830360
61.464405
53.008784
54.063578
45.108571
122.822516
140.274860
146.780089
163.033083
242.360415
1.402304
18.993468
1.151557
-31.017677
-2.067272
-28.109299
-46.471625
14.406439
12.609057
9.085182
71.938899
-19.054282
6.904540
10.866601
2.584786
1.804761
-0.547751
28.630298
23.173425
12.567945
14.090726
17.617306
20.730666
23.196962
24.470552
25.384457
26.688553
27.719997
28.110377
28.368287
28.351506
27.939893
27.561028
27.016764
26.524142
25.970465
25.468832
24.987113
24.535797
24.112576
23.734368
23.402692
23.108521
22.857539
22.642032
22.481366
22.343804
22.254206
22.181963
22.153151
22.138283
22.161693
22.196529
22.262635
22.336803
22.435550
22.540282
22.664378
22.792785
22.930350
23.080627
23.233344
23.393711
23.555762
23.720642
23.884752
23.879186
23.871314
23.861261
23.849144
23.838864
23.829710
23.821721
23.820292
23.820202
23.828666
23.839722
23.857475
23.876930
23.710628
23.524850
23.339551
23.153702
22.966301
22.775793
22.580573
22.378737
22.168342
21.947360
21.712926
21.462829
21.194220
20.903567
20.585619
20.236214
19.851359
19.424481
18.948716
18.418163
17.825154
17.154896
16.399489
15.553589
14.612846
13.568360
12.411169
11.132187
9.728947
8.205477
6.509206
4.889271
3.242186
1.641077
0.288105
-1.784030
-3.739919
-2.157706
-2.861925
1.840129
4.908547
3.156010
-2.763109
-10.145739
-15.149288
-17.007624
-14.419291
-8.328589
183.533758
22.440931
22.128747
22.425074
27.882582
25.879388
24.033804
24.055683
-19.329216
41.284867
18.938054
22.111367
14.978529
10.722139
5.517250
2.311046
21.122518
-12.294810
-302.759610
23.652502
50.012867
-297.438817
-0.113425
2.081504
22.931121
23.076356
36.725659
137.522367
-6.980766
356.840920
23.644049
23.690207
2.448608
-603.433437
822.173389
23.390765
27.165692
23.501010
73.078369
10.910248
10.900842
20.519108
17.878226
2.890877
28.342201
23.337057
22.141699
22.656832
23.711422
-0.885495
78.183902
-81.814156
20.941439
-7.215287
-1.756802
37.320852
6.584069
44.242918
4.273737
15.749194
-479.866369
18.340441
5.489577
23.672563
13.171205
8.424115
23.553528
23.312892
22.735296
22.534561
8.144551
13.042063
19.802421
17.263501
21.646728
16.579528
1.858223
4.205874
23.663215
23.638449
22.787127
22.248525
23.054575
26.926391
25.367470
22.223833
22.806469
28.440373
24.888652
25.100001
23.718172
23.690930
-756.990863
-3.791552
11.183040
9.100897
-272.218427
-321.436806
-292.624061
-4.525055
52.571959
13.563368
18.164955
25.739425
22.891386
25.553397
28.610581
3.010215
18.083594
1.461858
21.091246
3.099830
-137.278669
22.638690
23.475597
22.904042
26.526516
26.133974
-243.225524
9.591326
-3.554289
39.576193
-165.394241
237.763423
-8.635429
36.297074
-4.706372
28.608570
3.124995
5.756165
-0.113229
21.521436
5.488558
23.479142
-1.481045
23.123101
22.706427
17.534048
22.326382
9.410383
20.832426
19.391136
6.835244
15.817384
0.490358
18.432529
11.929179
21.392420
21.884780
14.054362
20.176176
4.230958
23.701779
23.676631
23.643145
22.928979
23.231645
22.536484
28.194159
22.161154
27.948584
26.387656
22.607025
22.187854
27.404443
22.331019
26.201886
22.318077
23.665340
24.440517
22.122883
25.065690
23.638277
23.655383
44.895510
23.547321
20.795926
-34.372050
22.197613
-19.867522
-14.283857
-252.196700
-319.426008
19.858174
-265.879084
483.984415
256.959253
34.154778
20.701909
-196.722058
-219.862025
22.065902
21.367935
6.743701
24.993796
22.217456
22.333500
19.458646
6.249518
14.754941
10.942766
18.393870
22.887632
721.327879
-0.972866
23.457404
27.563029
23.066535
23.519877
-146.962924
-54.469925
-4.693429
37.031961
26.202331
23.098009
20.817323
63.338826
22.294861
23.489539
22.775570
28.366141
28.327696
22.665469
8.615354
187.874565
-93.326032
20.426436
-276.389827
33.055819
229.545891
-194.484596
20.155483
27.228031
2.150273
3.014555
26.603830
23.533576
23.291175
4.755377
8.683609
12.974139
22.503801
18.586708
21.852083
20.191764
16.267860
16.417723
16.924697
23.382512
26.572148
2.218213
27.707249
22.402110
22.136824
23.459204
24.612221
23.810060
26.056424
23.157620
22.100480
28.590799
22.514700
23.464758
-8.826035
23.469075
-71.591876
-0.918487
30.119199
-30.380163
-44.311996
53.652880
29.213764
8.806895
10.157941
29.564914
29.996245
22.613456
1.067052
-28.615420
22.624959
20.052577
26.158856
13.680096
12.438477
23.300516
-189.504130
51.256343
31.624040
5.696996
18.829863
2.215962
22.487780
5.054488
28.734130
19.576501
-1.275874
-1.900395
-479.840305
3.872581
-36.426056
28.860288
29.089156
5.197085
23.080649
23.274792
23.366652
15.337041
22.691011
21.100036
4.447841
21.615315
11.979547
9.824503
19.040779
15.543715
7.465905
13.897331
19.839371
22.077195
20.514733
17.434346
17.931273
23.504554
27.801384
23.221685
22.302133
22.219023
23.455685
23.282002
24.144820
24.565502
24.197402
27.082144
22.073667
22.090063
22.917298
23.464418
23.285710
22.364690
22.149212
27.986866
22.481406
25.951870
25.462462
234.597852
52.807445
2.627852
42.436858
109.065226
-76.289186
68.464261
44.739789
-74.164574
41.360535
52.782069
-42.991543
22.026175
23.497514
25.005570
22.155932
21.845625
6.917621
21.124438
20.274731
10.542679
15.611832
19.167782
61.711110
109.095946
23.050820
23.125329
22.687546
6.903982
48.372464
23.088429
12.474727
18.420768
-90.894278
22.005335
22.431000
26.979596
23.433908
23.276045
3.728101
-62.305852
-57.538273
62.134240
17.221830
-261.907130
5.267873
2.481191
28.542718
19.608792
0.425698
-1.562293
19.232822
26.977806
-56.432425
16.874395
14.142283
4.118281
22.068598
20.857777
22.281013
23.333710
8.232822
21.376856
23.352194
23.316863
24.208203
21.967243
22.165003
22.483466
29.362056
22.857653
30.908844
29.798903
22.752160
28.122225
22.257769
26.452873
4.190005
58.605995
23.765384
40.228971
23.204762
-31.225983
23.271942
-0.486482
-281.916781
41.623254
76.255279
45.935874
44.786869
-0.502562
8.664542
4.652747
64.167747
46.419781
28.230773
22.316297
21.180992
-1.833544
43.568470
2.264298
22.260295
22.075753
8.849986
-2.549143
-16.286506
72.112385
-144.943224
11.154266
29.820603
13.084791
22.578178
-222.971690
-14.156239
-53.911559
5.044331
4.307016
40.964584
-50.121753
39.082144
9.246016
31.095987
-86.097759
36.887308
28.430632
22.881485
-430.640319
23.186365
5.662073
19.509622
57.456476
22.285983
22.490247
17.587131
20.573643
9.432037
11.555335
14.896499
19.952392
16.268406
-2.619078
18.806251
33.500256
21.615624
13.328666
18.018452
23.107640
23.086328
22.897005
27.529664
23.838632
21.970078
22.087116
24.606437
23.126846
22.064910
23.165588
23.145026
47.521806
22.277190
22.096594
21.982937
25.937114
25.453027
23.180918
-18.156845
2.615589
0.845920
15.609846
49.763175
-53.943025
-30.730074
33.972899
-3.697249
-43.071309
21.829871
22.684511
23.767083
21.913029
-16.526627
22.499556
13.310912
16.027176
19.831298
18.675017
23.530508
27.559376
97.012719
93.279036
65.450390
23.000536
6.575639
22.950170
99.870838
22.900916
17.107243
20.130099
7.050852
69.539038
22.113759
26.482085
22.720922
-61.171977
2.804630
-11.773683
54.328567
29.437681
-93.662639
-59.716616
34.028275
11.418607
27.714336
-0.478779
18.988849
4.819929
21.414771
22.300994
23.029950
19.826431
14.785835
20.684604
11.383697
10.211046
19.557220
30.245901
38.810604
21.645886
46.135115
20.937847
21.864145
19.275568
22.442571
23.196203
21.816857
22.197882
22.440430
108.052402
24.359085
22.005924
21.931548
27.185751
22.910047
23.094721
168.182498
67.909849
5.377717
-118.985179
-71.128802
22.646733
26.630379
25.637967
15.538757
27.472045
37.992639
6.421471
53.956187
9.084906
38.068007
-3.536963
19.083969
25.056457
22.009096
20.827642
22.203783
-0.905212
6.802134
22.539086
21.813700
21.901727
12.419996
21.482107
20.189942
22.525647
19.573305
-68.081300
47.315649
34.241991
17.376898
-19.322693
25.372611
22.929181
-10.560172
8.431618
-39.006403
-16.261731
44.337825
-7.304780
-41.826054
111.864328
-78.140702
49.393398
22.691494
-23.146917
-5.393109
20.349150
46.208046
16.591622
20.092917
20.414651
14.083140
15.424046
22.103457
22.450441
18.006054
18.353700
-27.196073
19.985772
18.980448
12.378567
21.053513
9.201047
22.258055
22.975963
23.469821
21.848651
22.661748
22.873488
21.810944
22.928093
24.077272
21.872788
22.436794
21.811328
21.999716
22.248992