# vtk DataFile Version 2.0
Test
ASCII
DATASET POLYDATA
POINTS 1161 float
0.000000 0.000000 0.000000
13.600000 0.000000 0.000000
15.000000 1.400000 0.000000
15.000000 50.000000 0.000000
0.000000 50.000000 0.000000
0.962136 0.000000 0.000000
1.863013 0.000000 0.000000
2.706530 0.000000 0.000000
3.496339 0.000000 0.000000
4.235861 0.000000 0.000000
4.928297 0.000000 0.000000
5.576644 0.000000 0.000000
6.183711 0.000000 0.000000
6.752126 0.000000 0.000000
7.284349 0.000000 0.000000
7.782685 0.000000 0.000000
8.249292 0.000000 0.000000
8.686190 0.000000 0.000000
9.095269 0.000000 0.000000
9.478303 0.000000 0.000000
9.836948 0.000000 0.000000
10.172758 0.000000 0.000000
10.487187 0.000000 0.000000
10.781596 0.000000 0.000000
11.057260 0.000000 0.000000
11.315372 0.000000 0.000000
11.557049 0.000000 0.000000
11.783339 0.000000 0.000000
11.995221 0.000000 0.000000
12.193612 0.000000 0.000000
12.379372 0.000000 0.000000
12.553304 0.000000 0.000000
12.716161 0.000000 0.000000
12.868650 0.000000 0.000000
13.011429 0.000000 0.000000
13.145117 0.000000 0.000000
13.270294 0.000000 0.000000
13.387500 0.000000 0.000000
13.497244 0.000000 0.000000
13.600719 0.044872 0.000000
13.602876 0.089698 0.000000
13.606469 0.134432 0.000000
13.611494 0.179028 0.000000
13.617946 0.223440 0.000000
13.625817 0.267622 0.000000
13.635101 0.311529 0.000000
13.645787 0.355116 0.000000
13.657865 0.398339 0.000000
13.671322 0.441152 0.000000
13.686144 0.483511 0.000000
13.702317 0.525374 0.000000
13.719822 0.566697 0.000000
13.738644 0.607437 0.000000
13.758761 0.647554 0.000000
13.780154 0.687005 0.000000
13.802800 0.725750 0.000000
13.826677 0.763749 0.000000
13.851759 0.800963 0.000000
13.878021 0.837355 0.000000
13.905436 0.872886 0.000000
13.933976 0.907520 0.000000
13.963611 0.941221 0.000000
13.994311 0.973956 0.000000
14.026044 1.005689 0.000000
14.058779 1.036389 0.000000
14.092480 1.066024 0.000000
14.127114 1.094564 0.000000
14.162645 1.121979 0.000000
14.199037 1.148241 0.000000
14.236251 1.173323 0.000000
14.274250 1.197200 0.000000
14.312995 1.219846 0.000000
14.352446 1.241239 0.000000
14.392563 1.261356 0.000000
14.433303 1.280178 0.000000
14.474626 1.297683 0.000000
14.516489 1.313856 0.000000
14.558848 1.328678 0.000000
14.601661 1.342135 0.000000
14.644884 1.354213 0.000000
14.688471 1.364899 0.000000
14.732378 1.374183 0.000000
14.776560 1.382054 0.000000
14.820972 1.388506 0.000000
14.865568 1.393531 0.000000
14.910302 1.397124 0.000000
14.955128 1.399281 0.000000
15.000000 2.391837 0.000000
15.000000 3.383673 0.000000
15.000000 4.375510 0.000000
15.000000 5.367347 0.000000
15.000000 6.359184 0.000000
15.000000 7.351020 0.000000
15.000000 8.342857 0.000000
15.000000 9.334694 0.000000
15.000000 10.326531 0.000000
15.000000 11.318367 0.000000
15.000000 12.310204 0.000000
15.000000 13.302041 0.000000
15.000000 14.293878 0.000000
15.000000 15.285714 0.000000
15.000000 16.277551 0.000000
15.000000 17.269388 0.000000
15.000000 18.261224 0.000000
15.000000 19.253061 0.000000
15.000000 20.244898 0.000000
15.000000 21.236735 0.000000
15.000000 22.228571 0.000000
15.000000 23.220408 0.000000
15.000000 24.212245 0.000000
15.000000 25.204082 0.000000
15.000000 26.195918 0.000000
15.000000 27.187755 0.000000
15.000000 28.179592 0.000000
15.000000 29.171429 0.000000
15.000000 30.163265 0.000000
15.000000 31.155102 0.000000
15.000000 32.146939 0.000000
15.000000 33.138776 0.000000
15.000000 34.130612 0.000000
15.000000 35.122449 0.000000
15.000000 36.114286 0.000000
15.000000 37.106122 0.000000
15.000000 38.097959 0.000000
15.000000 39.089796 0.000000
15.000000 40.081633 0.000000
15.000000 41.073469 0.000000
15.000000 42.065306 0.000000
15.000000 43.057143 0.000000
15.000000 44.048980 0.000000
15.000000 45.040816 0.000000
15.000000 46.032653 0.000000
15.000000 47.024490 0.000000
15.000000 48.016327 0.000000
15.000000 49.008163 0.000000
14.000000 50.000000 0.000000
13.000000 50.000000 0.000000
12.000000 50.000000 0.000000
11.000000 50.000000 0.000000
10.000000 50.000000 0.000000
9.000000 50.000000 0.000000
8.000000 50.000000 0.000000
7.000000 50.000000 0.000000
6.000000 50.000000 0.000000
5.000000 50.000000 0.000000
4.000000 50.000000 0.000000
3.000000 50.000000 0.000000
2.000000 50.000000 0.000000
1.000000 50.000000 0.000000
0.000000 48.979592 0.000000
0.000000 47.959184 0.000000
0.000000 46.938776 0.000000
0.000000 45.918367 0.000000
0.000000 44.897959 0.000000
0.000000 43.877551 0.000000
0.000000 42.857143 0.000000
0.000000 41.836735 0.000000
0.000000 40.816327 0.000000
0.000000 39.795918 0.000000
0.000000 38.775510 0.000000
0.000000 37.755102 0.000000
0.000000 36.734694 0.000000
0.000000 35.714286 0.000000
0.000000 34.693878 0.000000
0.000000 33.673469 0.000000
0.000000 32.653061 0.000000
0.000000 31.632653 0.000000
0.000000 30.612245 0.000000
0.000000 29.591837 0.000000
0.000000 28.571429 0.000000
0.000000 27.551020 0.000000
0.000000 26.530612 0.000000
0.000000 25.510204 0.000000
0.000000 24.489796 0.000000
0.000000 23.469388 0.000000
0.000000 22.448980 0.000000
0.000000 21.428571 0.000000
0.000000 20.408163 0.000000
0.000000 19.387755 0.000000
0.000000 18.367347 0.000000
0.000000 17.346939 0.000000
0.000000 16.326531 0.000000
0.000000 15.306122 0.000000
0.000000 14.285714 0.000000
0.000000 13.265306 0.000000
0.000000 12.244898 0.000000
0.000000 11.224490 0.000000
0.000000 10.204082 0.000000
0.000000 9.183673 0.000000
0.000000 8.163265 0.000000
0.000000 7.142857 0.000000
0.000000 6.122449 0.000000
0.000000 5.102041 0.000000
0.000000 4.081633 0.000000
0.000000 3.061224 0.000000
0.000000 2.040816 0.000000
0.000000 1.020408 0.000000
13.909350 0.941829 0.000000
14.008163 30.163265 0.000000
14.008163 34.130612 0.000000
14.008163 40.081633 0.000000
14.008163 16.277551 0.000000
14.008163 20.244898 0.000000
14.008163 24.212245 0.000000
14.008163 8.342857 0.000000
9.817943 0.353805 0.000000
11.775871 0.218822 0.000000
1.020408 30.612245 0.000000
1.020408 40.816327 0.000000
1.020408 24.489796 0.000000
1.020408 20.408163 0.000000
1.020408 16.326531 0.000000
1.018362 11.223256 0.000000
1.019479 36.734114 0.000000
7.766240 0.481890 0.000000
13.744884 0.708217 0.000000
8.000000 49.000000 0.000000
12.710787 0.157483 0.000000
13.643785 0.498333 0.000000
0.966982 6.081341 0.000000
5.555248 0.626951 0.000000
1.020408 44.897959 0.000000
14.008163 45.040816 0.000000
14.008163 4.375510 0.000000
14.135230 1.157510 0.000000
1.110406 3.998402 0.000000
13.581910 0.276906 0.000000
4.000000 49.000000 0.000000
11.000000 49.000000 0.000000
3.468805 0.753815 0.000000
13.286828 0.128125 0.000000
13.571292 0.182798 0.000000
14.008163 47.024490 0.000000
14.008163 11.318367 0.000000
1.020408 47.959184 0.000000
13.986969 1.039883 0.000000
11.033365 0.256493 0.000000
12.375655 0.180019 0.000000
1.020408 34.693878 0.000000
1.020408 28.571429 0.000000
1.020408 14.285714 0.000000
14.008163 13.302041 0.000000
14.008163 26.195918 0.000000
14.008163 36.114286 0.000000
14.008163 42.065306 0.000000
13.000000 49.000000 0.000000
9.061761 0.377165 0.000000
13.846846 0.875143 0.000000
13.602565 0.367194 0.000000
14.330468 1.278355 0.000000
0.985135 1.963183 0.000000
1.848016 0.860187 0.000000
13.006717 0.138067 0.000000
6.733368 0.549656 0.000000
13.981312 2.366987 0.000000
14.517684 1.371589 0.000000
14.008163 5.367347 0.000000
13.502952 0.103492 0.000000
14.008163 6.359184 0.000000
1.012223 8.075156 0.000000
2.000000 49.000000 0.000000
10.466507 0.317468 0.000000
4.903734 0.664259 0.000000
14.008163 48.016327 0.000000
1.020408 46.938776 0.000000
1.020408 43.877551 0.000000
1.020408 42.857143 0.000000
1.020408 18.367347 0.000000
1.020408 22.448980 0.000000
1.020408 32.653061 0.000000
1.020408 27.551020 0.000000
1.020408 38.775510 0.000000
1.020408 26.530612 0.000000
1.020408 13.265306 0.000000
1.020408 10.204082 0.000000
9.000026 48.999914 0.000000
6.000000 49.000000 0.000000
14.008163 43.057143 0.000000
14.008163 38.097959 0.000000
14.008163 27.187755 0.000000
14.008163 18.261224 0.000000
14.008163 21.236735 0.000000
14.008163 32.146939 0.000000
14.008163 28.179592 0.000000
14.008163 14.293878 0.000000
14.008163 22.228571 0.000000
14.008163 9.334694 0.000000
14.004099 49.004099 0.000000
1.010098 48.989902 0.000000
13.558143 0.093291 0.000000
0.955988 0.955988 0.000000
8.662374 0.425726 0.000000
12.184441 0.198708 0.000000
13.663594 0.544206 0.000000
13.702388 0.624737 0.000000
13.617517 0.413610 0.000000
13.792566 0.798406 0.000000
11.548133 0.250352 0.000000
14.588204 1.384948 0.000000
14.681162 1.411235 0.000000
13.040022 8.144516 0.000000
13.014441 27.185869 0.000000
13.013181 20.242544 0.000000
13.014441 13.300155 0.000000
2.032435 11.216109 0.000000
2.038869 28.569481 0.000000
9.094026 0.740465 0.000000
12.393614 0.391054 0.000000
5.548361 1.269868 0.000000
13.617800 0.568998 0.000000
13.014768 42.063747 0.000000
7.999729 47.999729 0.000000
2.036314 44.892981 0.000000
13.140146 4.499330 0.000000
14.634824 1.474846 0.000000
13.571037 0.432035 0.000000
11.842029 0.443618 0.000000
1.894544 1.771554 0.000000
14.114823 3.610783 0.000000
13.394522 0.087201 0.000000
13.150234 0.115928 0.000000
0.994902 2.908324 0.000000
12.871309 0.135408 0.000000
0.983321 5.064954 0.000000
13.097446 6.278064 0.000000
0.934281 7.060694 0.000000
4.199943 0.690491 0.000000
2.699404 0.770870 0.000000
14.007220 7.350077 0.000000
1.002133 8.995361 0.000000
2.036784 47.955152 0.000000
6.151143 0.575397 0.000000
1.019139 45.917099 0.000000
2.037362 43.875442 0.000000
2.038869 27.549073 0.000000
1.019435 41.835762 0.000000
1.019435 19.386782 0.000000
1.019435 35.713313 0.000000
1.019435 31.631680 0.000000
1.019435 17.345966 0.000000
1.019435 25.509231 0.000000
1.019435 12.243925 0.000000
1.019435 29.590864 0.000000
1.019435 21.427599 0.000000
1.019435 37.754129 0.000000
1.019435 39.794946 0.000000
1.019435 23.468415 0.000000
1.019435 33.672497 0.000000
1.019435 15.305150 0.000000
11.999464 49.000536 0.000000
10.000001 48.999999 0.000000
7.001010 48.998990 0.000000
14.007547 44.048363 0.000000
[...]
POINT_DATA 1161
SCALARS UX float 1
LOOKUP_TABLE default
16.962867
-100.312929
0.000000
0.000000
6.423216
16.729683
16.515525
16.342324
16.221089
16.165026
16.182868
16.284585
16.478653
16.778526
17.199672
17.758320
18.475692
19.350932
20.374207
21.536341
22.766382
24.025828
25.273279
26.337807
27.184414
27.349756
26.457887
24.178422
18.512937
9.621740
1.493100
-183.541944
-230.095131
-234.476407
-263.064722
-257.152190
-195.434842
-155.197372
-63.958756
-55.071944
27.919872
314.300610
500.995153
589.064906
444.595158
346.813356
361.831311
323.146033
255.656646
221.579671
301.117358
305.113070
178.295115
-121.294011
-111.457478
-213.024152
-131.521947
-96.382582
-85.478653
-75.089602
-61.673929
-41.773317
-37.691937
-32.459844
-34.797051
-12.356425
-19.917536
-29.826503
-33.368745
-20.589668
-10.656713
-4.922775
0.581955
-3.705926
2.731094
5.300092
8.604609
7.048582
4.403649
-8.548031
-6.219538
-3.951718
-1.773327
1.296329
1.177373
0.654654
0.285784
0.000000
0.000000
0.000000
0.000000
0.000000
0.000000
0.000000
0.000000
0.000000
0.000000
0.000000
0.000000
0.000000
0.000000
0.000000
0.000000
0.000000
0.000000
0.000000
0.000000
0.000000
0.000000
0.000000
0.000000
0.000000
0.000000
0.000000
0.000000
0.000000
0.000000
0.000000
0.000000
0.000000
0.000000
0.000000
0.000000
0.000000
0.000000
0.000000
0.000000
0.000000
0.000000
0.000000
0.000000
0.000000
0.000000
0.000000
0.000000
0.425922
0.852044
1.278415
1.705159
2.132349
2.560326
2.988657
3.417362
3.846644
4.276113
4.705779
5.135419
5.564874
5.994154
6.415951
6.408647
6.401094
6.392966
6.383968
6.373838
6.362358
6.349158
6.334340
6.317492
6.298569
6.277472
6.254159
6.228360
6.200302
6.170297
6.138083
6.104002
6.068663
6.033014
5.995313
5.958980
5.927191
5.902520
5.885636
5.879316
5.885962
5.910299
5.958888
6.039370
6.161434
6.329186
6.556587
6.848049
7.217131
7.668267
8.212190
8.843313
9.568441
10.387016
11.275916
12.214187
13.190190
14.147265
15.046174
15.804334
16.393478
16.781212
-48.477345
0.358906
0.384308
0.408532
0.239478
0.272892
0.306985
-0.207166
22.493909
28.747086
5.611626
5.895731
5.391496
5.422358
5.972145
8.250256
5.812409
17.568076
-72.238185
2.985315
-225.928734
253.007402
12.824056
16.178058
5.946402
0.418556
2.814041
-25.054817
14.764818
394.436051
4.699694
1.703754
16.138568
-85.050419
542.270924
0.420787
0.126532
5.971111
-31.385765
27.514370
25.372225
5.754811
5.529090
6.616132
0.197115
0.325563
0.394146
0.413413
0.851307
20.083309
-55.047928
378.759094
-8.316046
16.216960
16.427701
-126.928243
16.642222
15.756483
-9.390675
1.613908
-110.130799
-0.314768
10.843620
5.557996
25.142906
16.087770
0.421508
5.963555
5.936154
5.924486
5.600441
5.372782
5.687834
5.486777
5.858524
5.448377
7.063439
8.990087
2.557547
3.841885
0.415098
0.402280
0.334909
0.256351
0.281081
0.372756
0.341061
0.206478
0.289229
-0.067678
0.423840
5.982673
83.448763
16.612148
19.078748
27.110491
273.890232
-33.866699
308.170438
-32.713282
29.315458
-10.917186
-2.109351
-0.132649
0.671585
0.553394
0.425950
7.671712
5.067671
19.586194
54.685878
15.859602
132.279828
0.827489
2.980998
5.510552
5.041652
-2.464774
304.056543
36.715580
16.084839
-6.903737
-126.698089
-87.162655
15.650232
-234.701568
13.818280
-0.579486
11.858824
16.082328
16.263772
-0.295834
10.005432
5.535049
16.360333
5.955981
5.499720
5.019977
5.911304
5.490236
5.785071
5.651037
5.754927
5.416868
7.611424
5.572348
5.386307
5.836818
5.878586
5.376900
5.723009
6.253236
1.277590
2.130466
3.412960
0.417233
0.420108
0.411419
0.231927
0.378527
0.151691
0.265371
0.351114
0.398849
0.250477
0.405920
0.069525
0.366356
0.316934
0.297721
0.389432
0.567438
4.269927
5.127133
7.424706
0.844145
-185.157652
17.040028
18.225664
21.030714
23.819464
196.772890
0.025340
26.457602
280.139421
599.683185
354.858135
28.520727
28.077686
331.886641
-49.331166
0.770072
5.397068
11.277053
0.847458
0.806456
0.720306
5.200897
5.675937
4.887122
4.958447
4.614138
5.074086
14.251195
13.505356
3.834589
0.497782
0.837692
1.701635
301.109442
17.031623
15.508960
28.620221
-11.682237
5.520011
5.342583
-189.210682
5.474303
2.553777
0.831885
0.303828
0.466288
0.687182
15.809704
208.152999
558.735414
24.943425
137.863945
32.635956
177.964789
406.333326
46.261755
-0.221563
-4.989859
9.284080
1.986151
1.268188
5.528772
7.011411
5.199660
4.878689
5.487714
5.114272
5.440076
5.277543
4.940182
15.803190
4.980873
0.842238
0.524000
8.422518
0.093947
0.818778
0.746794
4.683134
0.584128
0.618628
0.537647
0.653906
0.790497
0.399461
0.823806
3.409094
16.018222
5.103189
16.598014
16.003410
18.359986
23.311296
20.200309
-183.280235
5.469418
0.606580
-4.937470
0.496703
0.698481
1.243877
8.696394
15.457143
1.013258
71.990769
-9.674410
32.262110
18.227191
2.975831
101.172526
24.692111
139.729709
-6.204644
4.664037
7.059216
5.051708
6.034889
0.761392
15.320519
15.514781
14.204358
126.552736
12.440091
313.822702
-28.344926
49.959460
10.214019
5.085323
4.665209
1.274608
1.170177
5.064042
5.371172
6.475024
5.419840
4.906202
5.064198
5.158583
4.908274
5.413840
4.874930
5.240570
5.458262
5.311451
4.514317
4.566414
2.127325
0.253415
0.841328
0.813010
0.734287
4.263275
5.096255
0.891139
0.858208
0.599074
0.511634
0.781034
0.759359
0.835195
0.637153
3.399417
1.230315
0.799090
0.483402
0.704821
0.811950
0.824250
-48.638809
16.253135
15.841852
10.475311
374.547632
233.085119
-176.937781
17.619777
-56.522322
26.385186
-285.258353
21.695297
1.188782
1.207530
1.127182
1.085698
5.002812
5.450863
4.931719
4.834870
4.673713
4.409954
4.218928
34.347220
-39.847689
1.257814
2.965315
4.629832
12.114206
-29.937070
4.656533
4.456892
4.118828
19.687117
1.124548
1.038426
0.786963
0.937173
3.816412
15.261472
16.752496
-160.545560
28.082497
1.397017
195.244676
9.714922
13.096800
14.619088
4.754569
7.833204
39.533469
4.710152
1.289299
21.692412
4.472392
4.386236
6.424440
5.021499
4.902061
5.038127
2.123379
5.123514
4.958882
1.698432
2.549091
1.154265
1.158818
1.212174
1.237517
0.708735
0.988037
0.792447
0.707018
1.249174
0.758113
1.221573
0.797357
0.034869
227.866512
0.913012
-25.375558
1.262373
-94.837904
4.240934
15.365502
68.863132
15.610330
-204.964490
113.309951
132.549686
14.769718
15.356270
26.817038
1.980772
1.518274
1.154827
1.642349
4.495533
9.035385
14.775983
6.432343
1.361687
4.586440
4.875460
13.268117
20.658718
63.250590
-46.005214
11.731033
14.670950
-53.334770
1.660326
97.794402
186.327957
16.427714
30.461475
14.670846
-24.808232
15.912396
12.130809
10.989885
8.663399
52.910867
27.928663
0.629433
4.640301
-256.049973
1.694623
5.894945
4.270283
4.808213
4.603383
4.618071
4.019881
4.870380
4.859058
4.533919
4.390687
4.796772
4.435740
8.074228
4.169190
1.279274
4.982792
4.406869
4.070670
3.392394
4.224921
1.254257
0.776476
1.175991
1.142643
1.201054
1.129445
0.963590
1.105355
2.118391
2.541136
6.157665
1.062803
1.618634
1.174599
1.118030
1.113529
1.238608
14.720484
14.007702
4.627621
27.058179
37.056648
34.747635
16.110858
-9.348726
14.857759
2.373790
1.550566
1.540090
1.462786
1.455084
8.368086
4.185215
4.030329
3.922283
3.836870
3.635193
9.854068
11.258020
13.761703
14.805647
7.981003
2.108141
13.904914
2.957066
18.452386
4.213079
3.979297
4.359113
5.286153
10.911901
1.397606
1.122675
1.668100
181.689923
10.048395
15.452492
22.615139
8.902589
14.937205
-171.165901
15.751373
12.696727
2.005567
7.203237
13.197000
5.810833
4.523301
4.170564
1.679048
4.315352
3.924872
4.433881
4.326327
4.568221
3.785705
1.215128
1.395639
4.547329
3.556384
4.466759
4.568337
3.734528
1.330074
1.484371
1.505725
1.632214
1.653024
-15.054815
1.497164
1.605070
1.589433
1.153855
1.266940
3.794691
24.011308
14.688574
1.309128
18.438218
341.459123
75.492734
-3.680022
4.101666
14.659946
19.946138
25.151330
-141.480113
-34.930660
10.854050
-8.130911
15.314072
2.215449
1.676117
2.028576
4.002437
3.747675
6.509203
5.155429
2.079203
1.722013
4.135366
4.020209
4.090961
3.410075
3.771422
44.759471
13.120825
11.333785
-3.458519
-9.024079
-49.347291
-7.453384
3.384455
17.895427
13.282560
11.431767
9.397313
11.595128
9.066025
13.662518
13.370000
3.069519
13.870096
4.197314
-20.532173
7.401872
3.924339
32.657931
3.941110
3.881971
4.397561
3.963533
3.909072
4.154253
1.974285
3.538696
3.581210
6.727846
3.362766
3.689442
4.164373
4.034333
4.679142
2.057607
2.531476
1.470729
1.480925
1.298932
1.674752
1.530711
1.511307
1.462203
1.572618
-10.761084
1.992702
1.426631
1.612052
1.572062
1.520930
3.792878
36.294281
15.520555
37.850866
13.769200
1.081860
13.820744
3.071515
19.209080
6.596464
14.004054
4.766067
23.128895
-13.983520
5.031212
73.807972
17.138929
48.850275
1.829875
1.890079
1.948407
4.656027
12.490241
6.618699
4.492627
1.906020
1.830437
3.723668
3.115087
3.487665
3.463576
3.575053
3.262927
9.761891
3.096838
-33.236897
-1.863868
2.996294
10.522441
9.944203
1.688511
2.089171
12.817688
4.972779
16.465021
-17.716050
12.647235
13.608416
4.466156
2.932645
3.355031
-39.976329
12.343459
14.198027
3.502056
8.735868
3.458858
5.766034
3.966344
4.115108
3.805950
2.533711
3.740336
3.316409
5.204072
3.647140
4.308157
-113.328595
4.064649
3.162862
3.449342
1.892520
1.813805
2.045919
1.836616
1.965672
-82.274194
2.012997
3.780118
2.070855
1.760782
1.647506
1.594619
2.096165
1.972905
-4.666607
-5.205205
39.798880
-80.719017
67.386385
35.196979
11.357556
12.865991
-7.547284
10.399887
2.442023
2.228732
2.500152
2.400251
2.078272
3.725307
3.685224
3.042274
3.287529
3.034027
14.213783
-12.478842
6.105213
-15.600011
7.669299
5.044317
3.541838
3.505511
12.229196
1.988243
3.300241
2.708754
2.905340
2.040374
7.695149
9.118655
4.167248
3.069625
7.641491
5.712592
3.499744
3.706427
3.462926
3.313086
2.949660
2.518684
4.060160
4.225355
3.661828
3.608178
3.553140
3.212967
2.475395
1.864306
2.731840
1.928567
1.839213
1.797620
1.924562
1.868425
1.865217
11.680540
-27.585253
2.401496
11.717571
-104.816967
25.886316
7.063037
8.043620
1.357856
11.935038
12.678154
-60.174695
9.858734
26.250014
-56.702476
12.964113
9.309079
2.242728
-12.227511
8.310509
6.778819
0.176688
11.561495
5.857996
-19.412383
4.541332
4.356187
3.807669
3.433319
2.353407
2.282644
3.278364
3.064222
2.257240
3.120800
2.213829
3.260843
3.139609
3.010075
2.220018
2.853902
3.078233
2.127682
-66.905809
-5.727748
2.665214
10.811177
5.795193
16.319851
3.932600
3.475165
3.020347
3.636946
3.185130
2.740298
2.475770
2.462590
2.378614
2.510117
2.425236
2.491020
11.167404
2.065712
2.318097
-40.558641
2.874759
2.314097
2.632909
2.550387
2.028617
16.063459
10.188753
11.858759
10.776108
3.128526
3.212532
-12.553414
10.634395
-31.886202
9.914473
-4.456288
-43.763445
7.978334
4.863464
3.239134
-24.080235
3.466670
7.394892
5.769398
2.805240
3.279934
3.155577
2.591992
3.043600
2.172400
2.239575
2.271522
2.222612
2.300647
3.145309
2.488346
2.857968
2.905410
2.895601
2.856310
2.834918
2.939976
2.621765
2.450345
2.812860
2.628391
2.698294
2.303250
2.504075
2.356528
2.588461
-5.880127
10.507256
-26.263146
2.405894
-38.052893
11.377086
54.198967
-19.518974
-22.424624
8.334333
-13.559730
10.293592
2.788971
6.979187
2.588442
2.781915
2.645635
2.907962
2.877395
2.602733
2.836178
2.619810
-28.340677
-20.009025
8.962287
10.151249
-26.917343
2.717388
13.913310
-29.671415
9.423600
SCALARS UY float 1
LOOKUP_TABLE default
-0.000000
-0.000000
25.331116
12.534168
12.586469
-0.000000
-0.000000
-0.000000
-0.000000
-0.000000
-0.000000
-0.000000
-0.000000
-0.000000
-0.000000
-0.000000
-0.000000
-0.000000
-0.000000
-0.000000
-0.000000
-0.000000
-0.000000
-0.000000
-0.000000
0.000000
0.000000
-0.000000
-0.000000
0.000000
-0.000000
0.000000
0.000000
0.000000
-0.000000
0.000000
-0.000000
0.000000
0.000000
-92.811512
-67.398011
-109.146184
-83.519069
-11.080006
113.946642
165.396019
188.419058
213.526063
228.758349
206.452111
139.596269
505.020220
555.389687
-43.790902
89.302076
215.973457
160.081320
132.860644
115.728309
97.546563
86.803743
85.739639
76.745958
76.671846
76.797685
88.597781
80.702268
50.869768
40.059925
53.410599
70.708044
46.004215
44.254230
50.122661
33.670798
7.860628
-1.806756
20.078243
14.219556
35.184548
22.096586
12.841692
26.124301
24.984474
25.194813
25.250446
25.363827
32.946646
27.829095
20.851012
19.417251
17.196109
15.146425
13.519405
12.311004
11.361842
10.709601
10.186801
9.806571
9.502779
9.264251
9.090428
8.952392
8.854194
8.780997
8.739164
8.716134
8.714262
8.730656
8.769300
8.818528
8.888061
8.966060
9.056558
9.156914
9.272701
9.392773
9.524742
9.659715
9.804629
9.951877
10.107312
10.264601
10.428157
10.592905
10.762331
10.932573
11.106356
11.280662
11.456494
11.634633
11.812990
11.992835
12.172798
12.353300
12.534377
12.534691
12.534983
12.535705
12.536515
12.538435
12.540812
12.543705
12.548039
12.552567
12.558542
12.564832
12.571960
12.579197
12.398908
12.211628
12.024544
11.837620
11.650777
11.463847
11.276634
11.088876
10.900253
10.710490
10.519089
10.325676
10.129745
9.930703
9.727656
9.519811
9.306258
9.085844
8.857230
8.619122
8.369916
8.106882
7.828052
7.531878
7.216732
6.880438
6.520279
6.132982
5.715810
5.266840
4.785435
4.272527
3.728213
3.157702
2.564704
1.959522
1.352029
0.757735
0.192654
-0.319610
-0.761484
-1.105294
-1.332142
-1.426383
-1.374643
-1.193883
-0.873039
-0.467248
95.047814
9.265203
9.800544
10.760904
9.027803
8.706256
8.750777
12.961181
-0.800819
0.201058
8.833763
10.885972
7.232122
5.821082
4.021855
1.391325
10.109178
-0.441617
67.761613
12.357293
51.684078
225.654563
-0.581823
-0.144142
11.641305
11.634251
17.146220
58.135201
-0.678820
66.240910
12.374359
12.352831
-0.075843
-5.987322
-27.760785
11.992630
10.483079
12.203855
76.094042
-0.431604
-16.299970
9.704765
8.350670
2.989706
9.672805
8.873245
10.104066
11.105442
12.352017
-0.695006
115.668559
146.937412
34.178717
-0.484151
-0.139071
-1.246587
-0.261602
41.070585
10.157392
20.836984
71.944634
16.896059
-0.005532
12.387930
-0.727767
-0.105020
12.172754
12.016421
11.453389
11.265015
4.971558
6.570469
9.281913
8.092987
10.501675
7.821911
2.456309
0.893266
12.354859
12.363994
11.280095
10.426068
8.955871
8.810443
8.689345
9.519485
9.046996
9.400271
8.692481
11.857338
12.352671
12.393403
-14.874140
-0.247907
-0.651104
-1.666724
201.783457
404.537187
180.810563
75.518839
0.589209
33.954387
32.577401
11.208534
8.923360
8.618038
9.326870
1.967316
8.359862
-1.364912
-22.873331
-0.252595
161.320131
11.103367
12.173822
11.631693
1.437552
32.190157
157.867929
-1.213471
-0.263895
16.439738
-7.843631
-47.931140
-0.643427
39.785122
-0.714400
12.567844
-0.376020
-0.080654
-0.089991
14.541266
0.343605
12.195479
-0.191175
11.828719
11.443737
8.110403
11.075731
5.407643
9.908671
9.061388
4.506687
7.534859
1.918886
8.596596
6.206995
10.306448
10.694432
6.910991
9.495763
3.512210
12.352323
12.353593
12.359962
11.456670
11.813026
10.932333
9.192303
9.656612
10.025589
8.746765
9.152092
10.263644
8.903770
10.592372
11.085096
9.389132
8.806126
8.713846
9.949694
8.613050
12.368403
12.380154
44.261677
12.173163
4.851669
-0.344987
-0.551222
-0.924160
-0.751135
215.488440
176.575257
-0.522818
217.257476
-37.408108
126.857041
0.080629
1.172104
27.714433
-8.227432
9.790913
10.293960
0.226299
8.471309
10.421611
9.246105
9.055409
3.908059
6.989600
5.612407
8.390349
11.623670
48.142761
-0.237669
12.179759
8.850437
11.633486
12.170231
262.085693
-0.821591
-0.342805
-1.303083
13.532118
11.819500
9.895365
78.264280
11.065221
12.171883
11.279614
9.851883
9.130330
9.021219
-0.137315
177.122761
73.837888
-1.640974
112.979983
-1.276224
191.566547
161.630863
-6.236911
12.029936
36.403928
1.042957
18.899281
12.170375
12.008981
2.458452
4.800046
6.337559
11.255267
8.600677
10.682981
9.484929
7.577205
-0.176212
7.848947
11.992399
8.687036
1.501443
10.615628
10.757846
9.504855
12.188820
8.624456
8.701705
8.641238
8.836932
10.097914
9.560821
10.929543
12.176295
-0.348252
12.194540
-0.650538
-0.159137
-1.270636
-1.706890
-1.852761
334.531933
-54.353823
27.281740
26.262625
9.085100
8.995175
11.100603
1.570493
-0.422660
8.872656
-28.342764
16.544884
-3.895477
-2.227445
11.990730
290.146203
-2.752080
373.556412
59.875198
8.620134
2.514931
11.245934
3.434236
8.804521
-0.198980
-0.183956
-0.281067
262.448470
-0.057522
319.685457
28.023297
-13.367385
0.608382
11.810698
12.004611
11.988795
6.700091
11.436113
10.095381
2.948738
10.489070
5.982888
5.212659
8.830977
7.290322
4.359324
6.671578
9.272249
10.874662
9.691740
7.911093
8.154632
12.170777
10.201062
11.812114
10.588178
9.371539
12.183752
12.008773
8.519133
8.485963
8.655104
8.755585
9.942581
9.645268
11.455819
8.762766
11.992196
10.752842
10.257860
8.975198
9.128888
8.488786
8.471989
15.410031
-0.468812
-0.136532
38.278557
427.350389
367.440807
310.710408
-1.047439
53.836148
-1.523865
100.487894
-1.702201
10.086458
8.376935
8.226484
9.214767
10.673780
3.898307
10.089600
9.484589
5.128429
7.106288
8.660723
-21.651999
39.695816
11.632975
11.807330
11.430159
0.306743
-18.770574
11.820002
5.853044
8.219205
-2.719358
9.482896
8.978394
8.570225
8.623242
11.994744
-0.129867
-1.259820
158.196405
-3.133193
48.629394
374.923298
1.100911
0.086594
5.061285
9.063449
2.031980
-6.168608
8.843272
7.759214
-2.909601
7.653217
6.507624
2.978503
10.866973
9.890859
11.056990
11.988282
4.324488
10.287574
11.988613
11.989099
8.278207
9.776159
10.413962
10.925588
8.923857
8.777838
8.994696
9.035620
11.276478
8.720643
10.582075
8.520443
50.162782
374.743761
8.564738
15.957468
11.808409
356.618587
11.998858
-0.290125
163.107137
-0.604019
143.060894
-92.364158
370.354865
-0.164668
-0.145198
177.958603
6.317661
7.570908
8.185159
10.747551
10.088836
1.569724
-0.583484
3.029784
8.804271
10.859332
4.373982
-3.308617
-4.129556
20.645442
261.868976
0.547486
-0.149929
41.106052
11.096636
69.705229
347.106325
-3.408819
-6.355510
-0.086467
233.957122
-0.788918
-18.972874
0.645151
39.989789
258.580719
191.372908
8.917845
11.617179
-175.751882
11.807086
3.437721
8.877163
2.207799
11.051682
11.242679
7.758089
9.688304
4.735997
5.499252
6.811958
9.275252
7.385021
2.039224
8.442157
8.019453
10.481250
6.186786
7.992162
11.808260
11.812875
11.453855
8.635541
8.321735
9.625780
10.248609
8.248056
8.694550
9.345237
11.806336
11.806389
43.410599
9.091953
10.404490
9.926970
8.210613
8.215615
8.442704
-0.385248
-0.074239
27.262726
-4.611733
-25.487448
-9.574993
-1.078899
26.164873
-0.353135
40.821406
9.755466
8.203776
7.917194
9.172593
1.966484
11.235584
5.817391
6.990501
8.915519
8.091706
1.419704
-7.964886
-0.384772
31.864950
-12.306271
11.624849
0.026734
11.623868
-4.415815
11.628617
7.512144
9.293469
3.951717
51.835381
8.921876
8.206892
11.274150
7.110723
1.136134
-1.551205
48.967658
38.042752
-0.890668
287.639532
-2.402448
0.284107
6.740137
2.530462
-9.667266
3.494561
10.282022
11.044957
11.632257
9.085649
6.430255
9.697168
5.134464
4.762967
8.712458
8.124148
7.832410
10.478718
4.363978
9.894041
10.669682
8.508239
8.697235
8.048925
9.452325
10.573994
10.919824
49.152301
7.788354
10.236995
10.072931
8.196509
8.515421
11.810452
-4.132978
-0.247623
313.584196
-3.788079
481.337168
162.693496
48.539984
32.656503
-0.092313
-14.905537
47.064960
358.702351
106.555460
0.829311
50.578039
-7.422715
6.697761
7.484879
10.392629
9.711401
4.617973
3.035488
4.033109
11.093947
8.722036
10.668192
5.219640
10.284700
8.964520
11.238509
17.183579
-2.805867
0.717043
168.737263
-3.835522
230.294492
-5.898061
11.624377
-4.625685
0.150957
81.893050
1.479822
42.009635
1.208983
-0.617661
-1.878447
5.553022
-0.104555
11.422101
192.451291
2.487833
9.316312
-50.806423
7.255099
9.114672
9.495615
6.129071
6.714598
10.857055
7.054141
7.658631
7.878250
2.075192
8.774743
8.301404
5.481652
9.903746
4.462554
10.741808
11.623980
7.979718
9.308435
8.601496
11.452595
9.600970
8.121947
7.857592
9.911389
58.374928
10.054045
9.043130
8.388865
8.290463
7.716754
11.626779
158.632254
-4.323968
215.902914
0.007392
65.104075
-0.225506
-5.345432
-4.058618
-4.524508
0.014087
33.301725
68.440443
9.859949
-4.605027
77.439752
-1.730347
295.429990
7.576493
8.006003
9.728213
4.060611
-0.192906
2.983866
4.586401
7.332727
9.120160
10.856003
7.814432
6.432636
7.189986
9.731007
8.394314
0.955921
5.741373
177.034821
112.787417
9.020165
-1.539774
60.088512
8.602376
11.273314
0.051325
-1.062295
159.236337