# vtk DataFile Version 2.0
Test
ASCII
DATASET POLYDATA
POINTS 1161 float
0.000000 0.000000 0.000000
13.600000 0.000000 0.000000
15.000000 1.400000 0.000000
15.000000 50.000000 0.000000
0.000000 50.000000 0.000000
0.962136 0.000000 0.000000
1.863013 0.000000 0.000000
2.706530 0.000000 0.000000
3.496339 0.000000 0.000000
4.235861 0.000000 0.000000
4.928297 0.000000 0.000000
5.576644 0.000000 0.000000
6.183711 0.000000 0.000000
6.752126 0.000000 0.000000
7.284349 0.000000 0.000000
7.782685 0.000000 0.000000
8.249292 0.000000 0.000000
8.686190 0.000000 0.000000
9.095269 0.000000 0.000000
9.478303 0.000000 0.000000
9.836948 0.000000 0.000000
10.172758 0.000000 0.000000
10.487187 0.000000 0.000000
10.781596 0.000000 0.000000
11.057260 0.000000 0.000000
11.315372 0.000000 0.000000
11.557049 0.000000 0.000000
11.783339 0.000000 0.000000
11.995221 0.000000 0.000000
12.193612 0.000000 0.000000
12.379372 0.000000 0.000000
12.553304 0.000000 0.000000
12.716161 0.000000 0.000000
12.868650 0.000000 0.000000
13.011429 0.000000 0.000000
13.145117 0.000000 0.000000
13.270294 0.000000 0.000000
13.387500 0.000000 0.000000
13.497244 0.000000 0.000000
13.600719 0.044872 0.000000
13.602876 0.089698 0.000000
13.606469 0.134432 0.000000
13.611494 0.179028 0.000000
13.617946 0.223440 0.000000
13.625817 0.267622 0.000000
13.635101 0.311529 0.000000
13.645787 0.355116 0.000000
13.657865 0.398339 0.000000
13.671322 0.441152 0.000000
13.686144 0.483511 0.000000
13.702317 0.525374 0.000000
13.719822 0.566697 0.000000
13.738644 0.607437 0.000000
13.758761 0.647554 0.000000
13.780154 0.687005 0.000000
13.802800 0.725750 0.000000
13.826677 0.763749 0.000000
13.851759 0.800963 0.000000
13.878021 0.837355 0.000000
13.905436 0.872886 0.000000
13.933976 0.907520 0.000000
13.963611 0.941221 0.000000
13.994311 0.973956 0.000000
14.026044 1.005689 0.000000
14.058779 1.036389 0.000000
14.092480 1.066024 0.000000
14.127114 1.094564 0.000000
14.162645 1.121979 0.000000
14.199037 1.148241 0.000000
14.236251 1.173323 0.000000
14.274250 1.197200 0.000000
14.312995 1.219846 0.000000
14.352446 1.241239 0.000000
14.392563 1.261356 0.000000
14.433303 1.280178 0.000000
14.474626 1.297683 0.000000
14.516489 1.313856 0.000000
14.558848 1.328678 0.000000
14.601661 1.342135 0.000000
14.644884 1.354213 0.000000
14.688471 1.364899 0.000000
14.732378 1.374183 0.000000
14.776560 1.382054 0.000000
14.820972 1.388506 0.000000
14.865568 1.393531 0.000000
14.910302 1.397124 0.000000
14.955128 1.399281 0.000000
15.000000 2.391837 0.000000
15.000000 3.383673 0.000000
15.000000 4.375510 0.000000
15.000000 5.367347 0.000000
15.000000 6.359184 0.000000
15.000000 7.351020 0.000000
15.000000 8.342857 0.000000
15.000000 9.334694 0.000000
15.000000 10.326531 0.000000
15.000000 11.318367 0.000000
15.000000 12.310204 0.000000
15.000000 13.302041 0.000000
15.000000 14.293878 0.000000
15.000000 15.285714 0.000000
15.000000 16.277551 0.000000
15.000000 17.269388 0.000000
15.000000 18.261224 0.000000
15.000000 19.253061 0.000000
15.000000 20.244898 0.000000
15.000000 21.236735 0.000000
15.000000 22.228571 0.000000
15.000000 23.220408 0.000000
15.000000 24.212245 0.000000
15.000000 25.204082 0.000000
15.000000 26.195918 0.000000
15.000000 27.187755 0.000000
15.000000 28.179592 0.000000
15.000000 29.171429 0.000000
15.000000 30.163265 0.000000
15.000000 31.155102 0.000000
15.000000 32.146939 0.000000
15.000000 33.138776 0.000000
15.000000 34.130612 0.000000
15.000000 35.122449 0.000000
15.000000 36.114286 0.000000
15.000000 37.106122 0.000000
15.000000 38.097959 0.000000
15.000000 39.089796 0.000000
15.000000 40.081633 0.000000
15.000000 41.073469 0.000000
15.000000 42.065306 0.000000
15.000000 43.057143 0.000000
15.000000 44.048980 0.000000
15.000000 45.040816 0.000000
15.000000 46.032653 0.000000
15.000000 47.024490 0.000000
15.000000 48.016327 0.000000
15.000000 49.008163 0.000000
14.000000 50.000000 0.000000
13.000000 50.000000 0.000000
12.000000 50.000000 0.000000
11.000000 50.000000 0.000000
10.000000 50.000000 0.000000
9.000000 50.000000 0.000000
8.000000 50.000000 0.000000
7.000000 50.000000 0.000000
6.000000 50.000000 0.000000
5.000000 50.000000 0.000000
4.000000 50.000000 0.000000
3.000000 50.000000 0.000000
2.000000 50.000000 0.000000
1.000000 50.000000 0.000000
0.000000 48.979592 0.000000
0.000000 47.959184 0.000000
0.000000 46.938776 0.000000
0.000000 45.918367 0.000000
0.000000 44.897959 0.000000
0.000000 43.877551 0.000000
0.000000 42.857143 0.000000
0.000000 41.836735 0.000000
0.000000 40.816327 0.000000
0.000000 39.795918 0.000000
0.000000 38.775510 0.000000
0.000000 37.755102 0.000000
0.000000 36.734694 0.000000
0.000000 35.714286 0.000000
0.000000 34.693878 0.000000
0.000000 33.673469 0.000000
0.000000 32.653061 0.000000
0.000000 31.632653 0.000000
0.000000 30.612245 0.000000
0.000000 29.591837 0.000000
0.000000 28.571429 0.000000
0.000000 27.551020 0.000000
0.000000 26.530612 0.000000
0.000000 25.510204 0.000000
0.000000 24.489796 0.000000
0.000000 23.469388 0.000000
0.000000 22.448980 0.000000
0.000000 21.428571 0.000000
0.000000 20.408163 0.000000
0.000000 19.387755 0.000000
0.000000 18.367347 0.000000
0.000000 17.346939 0.000000
0.000000 16.326531 0.000000
0.000000 15.306122 0.000000
0.000000 14.285714 0.000000
0.000000 13.265306 0.000000
0.000000 12.244898 0.000000
0.000000 11.224490 0.000000
0.000000 10.204082 0.000000
0.000000 9.183673 0.000000
0.000000 8.163265 0.000000
0.000000 7.142857 0.000000
0.000000 6.122449 0.000000
0.000000 5.102041 0.000000
0.000000 4.081633 0.000000
0.000000 3.061224 0.000000
0.000000 2.040816 0.000000
0.000000 1.020408 0.000000
13.909350 0.941829 0.000000
14.008163 30.163265 0.000000
14.008163 34.130612 0.000000
14.008163 40.081633 0.000000
14.008163 16.277551 0.000000
14.008163 20.244898 0.000000
14.008163 24.212245 0.000000
14.008163 8.342857 0.000000
9.817943 0.353805 0.000000
11.775871 0.218822 0.000000
1.020408 30.612245 0.000000
1.020408 40.816327 0.000000
1.020408 24.489796 0.000000
1.020408 20.408163 0.000000
1.020408 16.326531 0.000000
1.018362 11.223256 0.000000
1.019479 36.734114 0.000000
7.766240 0.481890 0.000000
13.744884 0.708217 0.000000
8.000000 49.000000 0.000000
12.710787 0.157483 0.000000
13.643785 0.498333 0.000000
0.966982 6.081341 0.000000
5.555248 0.626951 0.000000
1.020408 44.897959 0.000000
14.008163 45.040816 0.000000
14.008163 4.375510 0.000000
14.135230 1.157510 0.000000
1.110406 3.998402 0.000000
13.581910 0.276906 0.000000
4.000000 49.000000 0.000000
11.000000 49.000000 0.000000
3.468805 0.753815 0.000000
13.286828 0.128125 0.000000
13.571292 0.182798 0.000000
14.008163 47.024490 0.000000
14.008163 11.318367 0.000000
1.020408 47.959184 0.000000
13.986969 1.039883 0.000000
11.033365 0.256493 0.000000
12.375655 0.180019 0.000000
1.020408 34.693878 0.000000
1.020408 28.571429 0.000000
1.020408 14.285714 0.000000
14.008163 13.302041 0.000000
14.008163 26.195918 0.000000
14.008163 36.114286 0.000000
14.008163 42.065306 0.000000
13.000000 49.000000 0.000000
9.061761 0.377165 0.000000
13.846846 0.875143 0.000000
13.602565 0.367194 0.000000
14.330468 1.278355 0.000000
0.985135 1.963183 0.000000
1.848016 0.860187 0.000000
13.006717 0.138067 0.000000
6.733368 0.549656 0.000000
13.981312 2.366987 0.000000
14.517684 1.371589 0.000000
14.008163 5.367347 0.000000
13.502952 0.103492 0.000000
14.008163 6.359184 0.000000
1.012223 8.075156 0.000000
2.000000 49.000000 0.000000
10.466507 0.317468 0.000000
4.903734 0.664259 0.000000
14.008163 48.016327 0.000000
1.020408 46.938776 0.000000
1.020408 43.877551 0.000000
1.020408 42.857143 0.000000
1.020408 18.367347 0.000000
1.020408 22.448980 0.000000
1.020408 32.653061 0.000000
1.020408 27.551020 0.000000
1.020408 38.775510 0.000000
1.020408 26.530612 0.000000
1.020408 13.265306 0.000000
1.020408 10.204082 0.000000
9.000026 48.999914 0.000000
6.000000 49.000000 0.000000
14.008163 43.057143 0.000000
14.008163 38.097959 0.000000
14.008163 27.187755 0.000000
14.008163 18.261224 0.000000
14.008163 21.236735 0.000000
14.008163 32.146939 0.000000
14.008163 28.179592 0.000000
14.008163 14.293878 0.000000
14.008163 22.228571 0.000000
14.008163 9.334694 0.000000
14.004099 49.004099 0.000000
1.010098 48.989902 0.000000
13.558143 0.093291 0.000000
0.955988 0.955988 0.000000
8.662374 0.425726 0.000000
12.184441 0.198708 0.000000
13.663594 0.544206 0.000000
13.702388 0.624737 0.000000
13.617517 0.413610 0.000000
13.792566 0.798406 0.000000
11.548133 0.250352 0.000000
14.588204 1.384948 0.000000
14.681162 1.411235 0.000000
13.040022 8.144516 0.000000
13.014441 27.185869 0.000000
13.013181 20.242544 0.000000
13.014441 13.300155 0.000000
2.032435 11.216109 0.000000
2.038869 28.569481 0.000000
9.094026 0.740465 0.000000
12.393614 0.391054 0.000000
5.548361 1.269868 0.000000
13.617800 0.568998 0.000000
13.014768 42.063747 0.000000
7.999729 47.999729 0.000000
2.036314 44.892981 0.000000
13.140146 4.499330 0.000000
14.634824 1.474846 0.000000
13.571037 0.432035 0.000000
11.842029 0.443618 0.000000
1.894544 1.771554 0.000000
14.114823 3.610783 0.000000
13.394522 0.087201 0.000000
13.150234 0.115928 0.000000
0.994902 2.908324 0.000000
12.871309 0.135408 0.000000
0.983321 5.064954 0.000000
13.097446 6.278064 0.000000
0.934281 7.060694 0.000000
4.199943 0.690491 0.000000
2.699404 0.770870 0.000000
14.007220 7.350077 0.000000
1.002133 8.995361 0.000000
2.036784 47.955152 0.000000
6.151143 0.575397 0.000000
1.019139 45.917099 0.000000
2.037362 43.875442 0.000000
2.038869 27.549073 0.000000
1.019435 41.835762 0.000000
1.019435 19.386782 0.000000
1.019435 35.713313 0.000000
1.019435 31.631680 0.000000
1.019435 17.345966 0.000000
1.019435 25.509231 0.000000
1.019435 12.243925 0.000000
1.019435 29.590864 0.000000
1.019435 21.427599 0.000000
1.019435 37.754129 0.000000
1.019435 39.794946 0.000000
1.019435 23.468415 0.000000
1.019435 33.672497 0.000000
1.019435 15.305150 0.000000
11.999464 49.000536 0.000000
10.000001 48.999999 0.000000
7.001010 48.998990 0.000000
14.007547 44.048363 0.000000
[...]
POINT_DATA 1161
SCALARS UX float 1
LOOKUP_TABLE default
44.630331
721.875098
0.000000
0.000000
6.301542
44.197125
43.850432
43.708788
43.829064
44.271749
45.061905
46.250134
47.876061
49.956767
52.534396
55.687714
59.522559
64.054730
69.140710
75.095908
81.957915
89.499537
97.645659
106.701484
120.563920
131.911412
169.279177
183.694599
165.483791
188.122880
248.593062
337.943570
438.163186
488.104054
543.169309
313.519284
116.888399
367.911287
822.616898
881.119610
1393.151127
1709.663084
122.382060
1069.706835
595.024281
485.042629
116.731388
-37.422190
60.495414
79.323029
101.231659
89.121769
104.878404
119.971868
114.055916
113.548528
88.980791
77.081955
67.253688
58.881125
52.117324
46.301844
41.059441
37.001193
33.152216
30.104425
27.434904
25.124194
23.004159
21.112485
19.396653
17.717061
16.344363
15.008119
13.623294
12.348729
11.102955
9.921274
8.786362
7.662612
6.622296
5.628112
4.743464
3.879188
2.986310
1.980661
0.978633
0.000000
0.000000
0.000000
0.000000
0.000000
0.000000
0.000000
0.000000
0.000000
0.000000
0.000000
0.000000
0.000000
0.000000
0.000000
0.000000
0.000000
0.000000
0.000000
0.000000
0.000000
0.000000
0.000000
0.000000
0.000000
0.000000
0.000000
0.000000
0.000000
0.000000
0.000000
0.000000
0.000000
0.000000
0.000000
0.000000
0.000000
0.000000
0.000000
0.000000
0.000000
0.000000
0.000000
0.000000
0.000000
0.000000
0.000000
0.000000
0.424077
0.848492
1.273081
1.697239
2.121295
2.546069
2.970009
3.392223
3.813346
4.233088
4.650345
5.065886
5.478871
5.890656
6.250741
6.201255
6.152142
6.102840
6.051757
5.997272
5.937890
5.870464
5.795827
5.710067
5.611969
5.499562
5.372682
5.228442
5.065252
4.879716
4.671202
4.438532
4.180575
3.897015
3.583260
3.244373
2.888012
2.517447
2.135094
1.747383
1.357382
0.978682
0.633240
0.349583
0.166721
0.101966
0.223511
0.554001
1.176106
2.125832
3.508216
5.308779
7.635974
10.581372
14.149480
18.250738
22.867487
27.816600
32.818117
37.318570
40.971483
43.457301
47.654774
0.072861
0.224625
0.347094
-1.220176
-0.710447
-0.326381
-3.484671
78.211651
183.459679
3.712627
5.382188
1.504842
-0.227276
-0.996014
3.590403
4.953412
54.163431
108.502521
2.933876
339.089822
14.906659
21.649386
45.373919
5.635918
0.392952
-6.879453
25.095042
32.159397
369.992670
4.602212
1.676539
43.189321
360.917673
200.728099
0.404866
-2.216718
5.782872
35.145277
114.524295
190.987038
4.637006
3.079732
-0.259030
-1.729119
-0.167271
0.277126
0.369198
0.837514
66.639164
59.133443
-24.000462
17.098914
40.886395
43.226770
253.724763
48.815182
-1.071835
11.231930
-6.462810
182.391650
-5.281081
12.729881
5.429185
93.488856
44.292097
0.409720
5.734501
5.582255
5.523714
-0.857436
0.629757
4.227377
2.715428
5.196502
2.330643
0.577084
5.859838
2.514738
3.769972
0.376888
0.317597
-0.097572
-0.950046
-0.608547
0.158483
-0.047704
-1.588803
-0.512210
-3.006162
0.416791
5.836129
1264.597664
43.410953
61.751890
147.045969
43.304476
119.849877
-40.301592
77.916841
157.195980
9.283059
6.957264
-6.456044
-0.188797
-1.394931
-3.374020
2.002184
2.583642
61.696131
177.673017
42.902312
177.507440
0.738861
2.899112
5.220455
-11.607052
7.842560
290.973362
177.905795
41.018239
-6.376570
386.324229
353.656851
37.345025
200.819226
26.785450
-9.170287
17.090211
43.601117
43.143191
-3.944366
9.433112
5.364740
46.882093
5.686544
5.166851
2.195896
5.456672
-0.592873
4.805088
3.984176
-1.025168
1.925493
1.869607
3.413248
0.189044
5.082492
5.295850
1.073657
4.444359
-0.781206
1.257242
2.095750
3.351824
0.385664
0.399390
0.358981
-1.372582
0.190677
-2.015016
-0.829278
0.018210
0.299083
-1.077010
0.333377
-2.512916
0.117604
-0.243643
-0.420961
0.250850
-1.193997
4.185930
5.014466
11.114236
0.821207
244.895278
51.218157
57.567548
70.817927
85.268757
85.379654
116.815476
101.028707
8.143198
342.586797
256.963485
132.347782
194.885494
1611.368732
798.801531
0.453112
4.665830
14.891240
-2.010658
0.637639
0.150079
3.532876
-1.998723
0.443112
-1.457392
2.110004
4.803796
396.760190
25.775360
3.727013
-2.381971
0.786100
1.655865
268.112196
49.815928
37.399944
95.635794
-11.535572
5.270255
4.379193
212.621266
5.042907
2.484316
0.757154
-4.317156
-2.991532
-0.072606
41.620970
419.057388
337.353527
79.893436
125.212624
85.220297
288.805310
237.009854
220.094524
-7.084825
9.917890
7.078387
-9.673637
1.233835
5.319145
0.263120
-2.050793
-0.536098
5.107732
2.936428
4.879485
4.008845
1.358933
42.136964
1.796909
0.810080
-1.857639
4.236049
-5.520419
0.696107
0.319767
4.546614
-0.997878
-0.638946
-1.625596
-0.327723
0.558065
-3.782594
0.719583
3.314624
44.144463
4.951001
47.560175
41.349067
56.031533
71.687580
61.492018
91.423335
161.685581
4.044198
4.773065
-8.995895
-5.872351
1.112848
5.232589
39.844161
-0.256059
102.647667
-13.539568
66.475758
49.434726
2.864833
145.988875
54.854600
176.029990
12.011458
2.473738
0.392932
4.692402
-1.539017
-4.678656
38.659437
38.352864
29.723964
423.015899
20.317568
233.173142
-9.626734
81.757949
10.501326
4.854663
4.492122
1.225959
-11.022113
4.751563
4.530923
-0.826059
4.779525
-1.006396
-1.766154
3.249416
0.904826
-2.068432
-0.046016
3.784703
4.965488
4.204673
1.274799
1.718848
2.069843
-4.769029
0.799870
0.669153
0.240316
4.141440
4.906014
-1.417198
-1.760468
-0.822232
-2.108539
0.508544
0.389213
0.772491
-0.472232
3.273064
1.048956
0.601481
-2.671352
0.047365
-2.675986
-2.361412
371.580547
45.640870
41.075968
3.163259
373.134910
249.146793
95.868075
52.772597
88.035163
87.725982
143.965942
67.879297
0.845996
-1.784110
-3.357696
0.246460
4.463477
-2.791680
4.111812
3.577781
-2.891265
-0.138305
2.034967
87.886331
114.479614
1.180796
2.825358
4.337406
19.128764
-12.116784
4.447048
-2.164260
1.270430
50.124163
0.495054
-0.074374
-3.412909
-0.907067
3.675006
37.391256
46.059437
193.606210
49.052189
11.974017
156.360807
8.842958
24.104879
-12.046361
3.089260
2.525400
63.560629
2.795632
-10.260993
53.003094
0.823277
-1.196380
-1.073570
4.551344
3.955719
4.626767
2.043458
-3.003614
4.247505
1.633990
2.453501
-2.561742
0.691714
0.962815
1.082773
-5.356196
-0.458621
-6.904097
-6.428762
1.138425
-4.277403
1.008151
-3.042680
13.952539
111.653052
-1.160302
-4.155513
1.199837
107.623902
4.083789
39.211544
180.870868
40.594657
175.145821
154.732794
174.241825
33.588792
38.448584
77.844075
-9.542491
-8.014191
-5.751708
1.405506
3.697617
6.461994
34.400827
-1.154990
-0.289539
4.137364
-3.833725
-9.858552
30.161393
121.384179
89.342177
17.450633
34.189994
-10.033311
1.488552
133.187040
118.803390
30.705385
16.451132
33.563774
75.700550
42.158716
-6.552317
14.001085
-5.340381
219.637250
65.633462
-8.235312
4.389218
45.566403
1.611476
-2.109632
2.376546
-10.026498
4.214020
4.280335
0.360117
3.778175
-3.087265
-2.625705
-0.664689
3.348567
0.344214
3.279514
1.670001
-6.817363
4.363678
-1.699841
0.841349
3.234355
4.032387
1.160921
-3.821095
-2.183847
0.596975
0.908275
-3.004830
-0.670870
0.374499
2.015619
2.419250
14.232965
0.094657
1.293284
0.772404
-4.257891
-3.835638
-1.436051
34.469234
29.133338
12.996517
17.471039
139.339609
34.496784
42.776523
-0.207461
33.453225
15.265642
0.942123
-2.064875
-3.935692
0.365270
4.093540
3.868266
-3.307898
-1.193755
1.976442
0.451366
-7.308350
-4.301878
27.287292
110.558862
26.557219
1.981675
28.907380
2.786602
9.728467
3.984318
-0.133362
2.934162
-3.326512
12.307747
-0.037248
-4.747889
1.522244
127.948200
10.252373
35.700699
3.954951
8.810279
34.603460
97.549459
32.923824
22.295238
-8.723573
0.758828
-9.268639
-2.442528
3.833044
3.802750
1.577548
2.668388
-2.284297
3.366135
-3.876899
-3.933535
1.639255
-6.292837
-7.353920
3.951671
-9.732720
3.543653
4.051103
1.273959
-0.550131
-2.978664
0.684576
1.352968
1.450147
156.239733
-4.864178
1.223149
1.144543
-5.152557
-1.124082
3.619941
26.478304
34.397620
168.488183
33.092338
121.137584
66.059172
18.070063
4.021422
33.880110
1.058908
-1.416064
87.594752
67.241085
13.528868
15.719100
19.788252
-7.551607
-6.283811
1.631756
2.967897
-8.738767
-1.094772
-3.744192
1.869075
-0.268827
3.642788
-4.696207
3.428119
1.606462
3.477712
-0.900793
13.199137
15.527719
49.652245
-7.046128
26.015481
8.593951
3.193420
-5.565204
25.575607
172.378506
7.596315
7.655920
-6.637032
25.618697
19.717836
-8.181713
28.945766
3.924645
78.701050
1.205301
2.527974
0.185701
-0.676725
2.265310
3.161933
-2.808581
-1.766283
3.728792
-7.185893
-0.529478
-0.037800
-7.956922
1.287757
0.898405
-3.575229
3.141977
-4.383347
1.768905
2.382567
-3.455666
0.527345
-0.826504
1.552360
0.822761
-2.511467
-4.467566
1.052488
19.841929
1.452199
0.170200
-1.247083
-1.669234
-5.449240
3.583050
55.317030
-2.899169
264.447137
28.396458
16.855903
28.285466
-0.731438
1.489225
59.309043
29.719238
7.438591
108.241443
-13.163681
2.841232
2.192672
46.582081
157.838879
-4.323666
-2.248316
1.210448
-7.106716
18.290840
-1.070596
-4.893579
-5.297982
0.507092
3.324277
-0.837332
-3.309189
-1.662010
2.585676
0.546744
-3.060262
-7.130425
1.730167
146.756681
1.288975
6.957884
12.905364
-0.558752
1.911111
22.053920
-4.597246
40.686954
22.745393
21.811873
23.626828
-6.757716
2.720933
3.127128
2.073256
20.424137
7.637482
-1.048048
4.856839
1.908145
-2.680677
2.765872
3.543386
-4.548988
-7.896818
3.397043
0.948219
-7.998047
-4.249059
-4.641878
0.968922
3.296736
-0.336650
-2.225133
0.898436
-6.748006
1.707151
-3.269133
-1.327867
111.529449
1.547403
3.536178
1.823962
0.019250
-0.905463
-5.852298
1.944852
1.341597
46.839898
20.233917
71.706537
86.922355
168.637084
49.489193
-11.601236
5.142923
59.163910
11.453391
1.981930
-6.595083
2.254809
1.773165
-0.259006
-5.385954
3.144278
1.567572
-5.031784
-1.964977
17.619364
23.157216
-5.749889
34.064262
-4.362613
-4.095219
2.395246
-7.061130
15.478480
-5.756876
3.028766
-1.050066
0.658176
-0.905207
-4.783456
-3.859811
18.995614
-1.384114
1.573540
-3.046956
2.158233
3.243232
-2.743772
2.993078
0.981236
2.342238
-5.278473
-6.969596
3.032804
2.758153
-3.778482
0.123182
2.139609
0.714534
-7.006742
-1.775024
-3.744912
0.275800
1.072193
-2.711696
-4.796319
16.793351
66.515858
1.524987
11.795591
3.689846
7.136116
-5.990515
-1.078013
27.579691
28.979212
20.449470
52.231559
8.858464
224.332037
4.396369
23.374380
6.002256
-4.500306
18.990243
-1.443669
-1.175018
12.285012
14.194415
-4.861748
25.514071
-5.811963
-5.373095
-5.836409
-5.967699
-5.485056
1.131516
2.909657
1.783847
-2.330238
2.037607
0.686701
2.760253
-4.656123
-3.110023
-3.384199
0.274493
-4.105995
0.092949
3.799198
-50.402417
-1.567444
5.406319
-3.220449
13.282366
-6.201862
-5.283412
-2.495207
2.906228
2.386421
-0.555192
-6.724619
2.070233
1.647668
2.303528
1.888194
2.203820
9.193408
-6.115883
1.319460
43.288528
2.631188
-1.331417
1.266053
0.737045
-0.564654
269.723678
1.843739
16.901977
12.682872
-5.898914
2.526661
27.579348
9.973907
38.928026
1.124028
19.369806
5.097931
1.826835
-4.782606
2.655803
27.271732
-6.404736
-1.850432
-3.952685
-0.131685
2.850383
2.228067
1.014593
-3.563775
0.409792
-2.822660
0.944124
-3.984492
-4.903917
-6.309077
-5.790645
-6.408973
2.624011
2.516669
2.339494
1.890580
-5.644763
1.457414
-0.021393
2.111674
-2.105626
-4.812629
-1.775287
0.416803
-0.484070
-3.260657
5.611950
10.787723
11.452281
-0.836239
42.696150
11.907551
3.073153
31.846558
27.437590
1.952031
19.019092
7.111873
1.971881
-1.553503
-6.251511
-5.289310
-4.373746
2.582512
2.434118
-2.680257
2.232951
-3.778063
35.462236
10.816019
2.349159
4.729666
28.703883
1.677894
-10.991493
9.376843
5.338703
SCALARS UY float 1
LOOKUP_TABLE default
-0.000000
-0.000000
171.900010
50.858276
51.376348
-0.000000
-0.000000
0.000000
0.000000
0.000000
0.000000
0.000000
0.000000
0.000000
0.000000
0.000000
0.000000
0.000000
0.000000
0.000000
0.000000
0.000000
0.000000
0.000000
0.000000
0.000000
-0.000000
-0.000000
-0.000000
0.000000
0.000000
0.000000
-0.000000
0.000000
0.000000
-0.000000
0.000000
-0.000000
0.000000
-250.282633
-607.736945
-1425.666050
209.768603
227.694791
452.616006
270.452995
457.059627
524.108391
447.846219
402.731042
362.541902
335.991386
319.769819
305.394623
294.673692
282.628967
278.339432
270.085405
261.564092
253.205792
244.884124
237.354372
230.594278
224.212645
218.584752
213.237276
207.996699
203.412673
199.319494
195.894468
192.547021
189.582029
186.700222
184.186230
182.175412
180.148058
178.395277
176.929036
175.597865
174.491951
173.447707
172.608911
172.011024
171.823401
171.668623
171.752477
171.834053
166.822291
148.910041
130.507466
115.920858
104.555803
95.070327
87.947591
82.064517
76.939534
72.847539
69.188628
66.195432
63.506976
61.161515
59.233206
57.471834
56.013811
54.679605
53.595785
52.609995
51.768603
51.048576
50.492513
49.986556
49.618602
49.290847
49.035587
48.837169
48.729239
48.638053
48.611554
48.595619
48.630510
48.673150
48.755075
48.842809
48.958511
49.077164
49.215356
49.355035
49.508677
49.662730
49.821901
49.990062
50.157674
50.331713
50.505037
50.680639
50.862930
50.872406
50.884277
50.902962
50.924886
50.955977
50.990439
51.028805
51.074369
51.120385
51.171386
51.222658
51.274857
51.326226
51.196695
51.018309
50.841376
50.666684
50.494585
50.325110
50.158106
49.993061
49.828935
49.665242
49.500157
49.332395
49.160038
48.981057
48.792308
48.590416
48.370629
48.128609
47.858407
47.553408
47.205744
46.803957
46.336489
45.793089
45.161495
44.428899
43.577127
42.583041
41.423363
40.074996
38.517445
36.733099
34.697090
32.403590
29.833530
26.999183
23.905261
20.598077
17.119315
13.558958
9.991592
6.631716
3.626515
1.178465
-0.530456
-1.480397
-1.539870
-0.991496
244.788413
48.699936
48.616947
49.212752
58.941066
53.424233
50.404826
86.376319
1.018151
-16.251722
47.631766
49.748555
44.905663
41.351203
35.260308
22.849321
49.033290
0.502417
299.511444
50.810283
28.781565
472.001039
7.386310
0.880007
50.438339
49.991022
124.954583
205.706356
3.277520
832.645883
50.992890
50.722390
1.022711
130.892821
1080.674202
50.332964
72.089644
50.966468
227.279184
-0.741406
22.897525
48.635111
46.949638
30.960160
65.662135
49.548254
48.744907
49.507955
50.690134
0.813030
259.879195
663.017644
188.275978
0.673418
0.732334
-405.915463
0.679331
163.630002
178.765495
111.760299
-123.823830
101.266540
13.258296
51.098239
3.348053
0.968832
50.507119
50.789174
50.264877
50.092328
38.689708
43.374924
48.178605
46.539505
49.398380
46.070377
28.477479
19.836048
50.773612
50.894120
49.663388
48.953348
49.251103
55.797130
52.484671
48.593067
48.998450
63.082133
51.676637
80.737858
50.683069
51.147895
80.512277
0.242521
0.405087
20.089392
410.394877
331.300036
609.499962
276.283843
3.143234
176.362799
173.993696
83.153299
49.118022
53.030532
64.292942
25.452157
46.815223
1.876719
54.177257
2.076638
358.724615
49.509758
50.630674
50.378872
109.828727
175.426841
303.965128
-30.121362
1.663905
138.913054
27.613194
197.497732
1.474155
26.045877
4.963335
95.151311
9.963197
0.988653
0.904779
93.184190
16.069641
50.912248
0.753212
50.612928
50.202778
46.415973
49.920417
40.102598
48.839333
47.919145
37.068936
45.527034
25.747909
47.309307
42.431491
49.218395
49.574592
44.193165
48.415505
33.213082
50.703356
50.745476
50.849424
49.826148
50.161179
49.358106
60.893595
48.589283
68.634842
54.541692
48.829591
48.844342
57.279647
49.079711
76.120953
48.631875
49.944197
50.994322
48.669928
52.144745
50.941616
51.044636
183.630825
50.515159
34.175491
0.605973
0.375879
0.869110
2.032163
374.502999
316.544243
3.978523
531.954855
1061.646441
554.440432
5.277061
-18.478255
158.742838
25.898387
48.589514
49.120210
13.496451
52.356836
48.948986
48.636295
47.778019
34.569265
44.211862
40.563427
46.783279
50.319233
177.044537
7.680195
50.714569
58.172571
49.997574
50.542582
299.176613
1.608016
2.967110
-3.262923
122.577420
50.555586
48.723352
144.702213
49.849190
50.595733
49.670192
69.942192
61.991520
48.900634
2.197126
179.365067
-126.021193
6.572022
342.094850
61.739088
312.168251
283.882051
-34.663778
89.388985
178.063482
19.774027
101.901632
50.524345
50.734673
28.071123
37.909090
42.614274
50.026601
47.172964
49.491099
48.283639
45.450396
2.167935
45.958287
50.338888
55.243888
22.716820
77.388368
49.212659
48.543060
50.812782
51.368392
50.196405
54.055336
49.402216
48.735370
66.950981
49.357770
50.670934
1.887748
50.864310
1.721383
1.954398
1.350678
5.798321
3.949782
295.080006
68.169027
172.486709
172.353570
81.997078
66.770602
49.516792
23.033235
3.710799
48.917870
108.061225
99.683506
31.781648
5.618037
50.453458
281.153853
11.132804
270.134512
180.523067
47.116563
28.437306
49.961459
32.583660
62.131055
3.834608
3.338238
6.119759
124.713029
10.348110
236.640511
135.969361
30.316309
16.670668
50.496970
50.634325
50.347931
88.914111
50.141538
48.925090
30.418197
49.307473
41.645668
39.296128
47.489225
44.870085
36.307668
43.462520
48.040273
49.671187
48.509316
46.019703
46.419401
50.566372
73.426992
50.166456
49.075480
48.570998
50.763006
50.686136
50.897958
51.540364
50.724242
56.608936
48.655181
48.556862
49.831828
49.759028
50.491547
49.212884
48.834429
59.959453
48.743866
54.332541
53.275497
-219.146220
1.803396
2.280558
171.624487
-60.668252
16.791497
306.207051
1.458591
287.492300
14.747513
151.333639
4.284997
48.712199
50.259883
53.111629
48.530552
49.415524
34.681795
48.840273
48.196756
39.116380
44.461499
47.150066
56.234146
160.845976
50.008975
50.275478
50.083402
12.749436
111.322865
50.456752
41.326751
46.531308
11.145535
48.480460
48.737872
56.902950
49.867176
50.534322
4.174805
3.526377
281.173697
63.151078
181.848928
257.353744
19.827763
10.010080
93.527527
47.700734
25.819811
59.474590
47.420319
84.786097
15.908068
45.557998
43.072448
30.686382
49.600743
48.635716
49.782087
50.388877
36.314889
49.038660
50.366915
50.419077
51.453544
48.550870
48.940544
49.361417
64.356574
49.162646
72.435158
69.460621
49.677030
60.190030
49.071947
55.534163
184.020624
224.185765
50.329102
153.014697
50.175088
286.768872
50.582659
3.735742
59.469417
3.709122
174.053255
96.159240
226.671567
5.369251
3.775664
282.370329
73.015944
66.800759
59.339369
49.216293
48.775834
23.564338
6.710933
31.673820
48.647427
49.535617
37.085395
78.133482
32.063649
237.663296
241.253954
14.968822
6.042891
81.250515
49.525913
123.788947
214.052163
18.766505
118.370645
5.964342
277.126802
3.699367
122.706654
16.089458
149.674664
242.698755
271.541671
75.735443
50.261997
160.456298
50.191801
32.753391
47.427492
75.760938
49.720829
49.904053
45.811037
48.421085
37.801854
40.288596
43.802756
47.956515
45.042147
26.505456
46.852718
62.700601
49.229302
42.244161
46.188526
50.314141
50.402488
49.840178
58.445428
50.807311
48.497564
48.820013
52.216870
49.476456
48.487180
50.213936
50.242350
186.797749
48.612505
48.933009
48.618085
55.234178
54.110474
49.798826
6.310733
7.467812
181.257404
84.255665
102.910598
23.820513
3.562735
163.728502
4.446405
185.177638
48.495830
49.488966
51.619833
48.391582
27.423951
49.846749
41.570361
44.373868
47.485958
46.463572
65.551777
143.811016
10.863686
189.771407
66.636121
50.040247
8.269105
50.098068
81.266958
50.224513
45.383687
47.925034
35.527148
188.597624
48.527685
56.478362
49.687477
271.475337
20.382427
7.986254
176.310438
179.312050
7.074166
242.306238
12.295628
12.029666
68.893481
29.219657
80.682140
33.700447
48.970546
49.663029
50.024120
47.682005
43.123679
48.369628
39.586888
38.407116
47.246985
60.952133
64.523571
49.165087
73.481777
48.576204
49.351875
46.998764
48.833615
50.393738
48.384136
49.068137
49.366142
145.170027
53.200055
48.804714
48.689041
57.827249
49.413865
50.354851
49.615317
6.112912
228.302036
27.429846
126.289012
273.146629
191.565680
172.282912
6.107210
86.319756
163.068741
273.637994
267.716948
17.750577
187.911825
64.437127
59.039172
56.040104
48.921966
48.346354
63.994173
33.068608
37.078745
49.541613
48.349105
49.298344
40.766932
48.923322
47.590984
49.804680
156.823278
28.280789
17.376327
260.109449
74.320647
180.239470
97.598193
50.136762
75.992757
10.629301
131.187440
24.202278
179.479250
68.354132
12.574426
19.800075
61.019934
9.196374
50.025683
250.521610
30.371750
47.931228
130.932443
44.909569
47.711103
48.152098
42.386948
43.776333
49.481541
58.069652
45.849790
46.168216
63.961339
47.399518
46.740117
40.623619
48.542551
38.534028
49.222571
50.067247
50.961421
48.366962
49.093332
49.855236