# vtk DataFile Version 2.0
Test
ASCII
DATASET POLYDATA
POINTS 5816 float
0.000000 0.000000 0.000000
2.000000 0.000000 0.000000
2.000000 4.000000 0.000000
0.000000 4.000000 0.000000
0.000000 0.500000 0.000000
1.500000 2.000000 0.000000
2.000000 2.500000 0.000000
0.285714 0.000000 0.000000
0.571429 0.000000 0.000000
0.857143 0.000000 0.000000
1.142857 0.000000 0.000000
1.428571 0.000000 0.000000
1.714286 0.000000 0.000000
2.000000 0.275040 0.000000
2.000000 0.520628 0.000000
2.000000 0.739917 0.000000
2.000000 0.935725 0.000000
2.000000 1.110565 0.000000
2.000000 1.266683 0.000000
2.000000 1.406084 0.000000
2.000000 1.530557 0.000000
2.000000 1.641701 0.000000
2.000000 1.740944 0.000000
2.000000 1.829560 0.000000
2.000000 1.908686 0.000000
2.000000 1.979340 0.000000
2.000000 2.042428 0.000000
2.000000 2.098760 0.000000
2.000000 2.149060 0.000000
2.000000 2.193974 0.000000
2.000000 2.234078 0.000000
2.000000 2.269888 0.000000
2.000000 2.301863 0.000000
2.000000 2.330415 0.000000
2.000000 2.355908 0.000000
2.000000 2.378673 0.000000
2.000000 2.398999 0.000000
2.000000 2.417149 0.000000
2.000000 2.433355 0.000000
2.000000 2.447826 0.000000
2.000000 2.460747 0.000000
2.000000 2.472285 0.000000
2.000000 2.482587 0.000000
2.000000 2.491786 0.000000
2.000000 2.508637 0.000000
2.000000 2.519089 0.000000
2.000000 2.531737 0.000000
2.000000 2.547044 0.000000
2.000000 2.565568 0.000000
2.000000 2.587985 0.000000
2.000000 2.615113 0.000000
2.000000 2.647942 0.000000
2.000000 2.687670 0.000000
2.000000 2.735749 0.000000
2.000000 2.793931 0.000000
2.000000 2.864341 0.000000
2.000000 2.949549 0.000000
2.000000 3.052664 0.000000
2.000000 3.177450 0.000000
2.000000 3.328462 0.000000
2.000000 3.511210 0.000000
2.000000 3.732366 0.000000
1.714286 4.000000 0.000000
1.428571 4.000000 0.000000
1.142857 4.000000 0.000000
0.857143 4.000000 0.000000
0.571429 4.000000 0.000000
0.285714 4.000000 0.000000
0.000000 3.715673 0.000000
0.000000 3.453827 0.000000
0.000000 3.212685 0.000000
0.000000 2.990611 0.000000
0.000000 2.786096 0.000000
0.000000 2.597752 0.000000
0.000000 2.424300 0.000000
0.000000 2.264564 0.000000
0.000000 2.117457 0.000000
0.000000 1.981983 0.000000
0.000000 1.857220 0.000000
0.000000 1.742322 0.000000
0.000000 1.636510 0.000000
0.000000 1.539064 0.000000
0.000000 1.449323 0.000000
0.000000 1.366678 0.000000
0.000000 1.290567 0.000000
0.000000 1.220475 0.000000
0.000000 1.155925 0.000000
0.000000 1.096479 0.000000
0.000000 1.041733 0.000000
0.000000 0.991316 0.000000
0.000000 0.944886 0.000000
0.000000 0.902126 0.000000
0.000000 0.862748 0.000000
0.000000 0.826483 0.000000
0.000000 0.793086 0.000000
0.000000 0.762330 0.000000
0.000000 0.734005 0.000000
0.000000 0.707920 0.000000
0.000000 0.683898 0.000000
0.000000 0.661775 0.000000
0.000000 0.641402 0.000000
0.000000 0.622639 0.000000
0.000000 0.605360 0.000000
0.000000 0.589447 0.000000
0.000000 0.574792 0.000000
0.000000 0.561296 0.000000
0.000000 0.548868 0.000000
0.000000 0.537421 0.000000
0.000000 0.526881 0.000000
0.000000 0.517173 0.000000
0.000000 0.508233 0.000000
0.000000 0.491468 0.000000
0.000000 0.479827 0.000000
0.000000 0.463944 0.000000
0.000000 0.442273 0.000000
0.000000 0.412707 0.000000
0.000000 0.372368 0.000000
0.000000 0.317330 0.000000
0.000000 0.242238 0.000000
0.000000 0.139785 0.000000
0.005639 0.505639 0.000000
0.011278 0.511278 0.000000
0.016917 0.516917 0.000000
0.022556 0.522556 0.000000
0.028195 0.528195 0.000000
0.033835 0.533835 0.000000
0.039474 0.539474 0.000000
0.045113 0.545113 0.000000
0.050752 0.550752 0.000000
0.056391 0.556391 0.000000
0.062030 0.562030 0.000000
0.067669 0.567669 0.000000
0.073308 0.573308 0.000000
0.078947 0.578947 0.000000
0.084586 0.584586 0.000000
0.090226 0.590226 0.000000
0.095865 0.595865 0.000000
0.101504 0.601504 0.000000
0.107143 0.607143 0.000000
0.112782 0.612782 0.000000
0.118421 0.618421 0.000000
0.124060 0.624060 0.000000
0.129699 0.629699 0.000000
0.135338 0.635338 0.000000
0.140977 0.640977 0.000000
0.146617 0.646617 0.000000
0.152256 0.652256 0.000000
0.157895 0.657895 0.000000
0.163534 0.663534 0.000000
0.169173 0.669173 0.000000
0.174812 0.674812 0.000000
0.180451 0.680451 0.000000
0.186090 0.686090 0.000000
0.191729 0.691729 0.000000
0.197368 0.697368 0.000000
0.203008 0.703008 0.000000
0.208647 0.708647 0.000000
0.214286 0.714286 0.000000
0.219925 0.719925 0.000000
0.225564 0.725564 0.000000
0.231203 0.731203 0.000000
0.236842 0.736842 0.000000
0.242481 0.742481 0.000000
0.248120 0.748120 0.000000
0.253759 0.753759 0.000000
0.259398 0.759398 0.000000
0.265038 0.765038 0.000000
0.270677 0.770677 0.000000
0.276316 0.776316 0.000000
0.281955 0.781955 0.000000
0.287594 0.787594 0.000000
0.293233 0.793233 0.000000
0.298872 0.798872 0.000000
0.304511 0.804511 0.000000
0.310150 0.810150 0.000000
0.315789 0.815789 0.000000
0.321429 0.821429 0.000000
0.327068 0.827068 0.000000
0.332707 0.832707 0.000000
0.338346 0.838346 0.000000
0.343985 0.843985 0.000000
0.349624 0.849624 0.000000
0.355263 0.855263 0.000000
0.360902 0.860902 0.000000
0.366541 0.866541 0.000000
0.372180 0.872180 0.000000
0.377820 0.877820 0.000000
0.383459 0.883459 0.000000
0.389098 0.889098 0.000000
0.394737 0.894737 0.000000
0.400376 0.900376 0.000000
0.406015 0.906015 0.000000
0.411654 0.911654 0.000000
0.417293 0.917293 0.000000
0.422932 0.922932 0.000000
0.428571 0.928571 0.000000
0.434211 0.934211 0.000000
0.439850 0.939850 0.000000
0.445489 0.945489 0.000000
0.451128 0.951128 0.000000
0.456767 0.956767 0.000000
0.462406 0.962406 0.000000
0.468045 0.968045 0.000000
0.473684 0.973684 0.000000
0.479323 0.979323 0.000000
0.484962 0.984962 0.000000
0.490602 0.990602 0.000000
0.496241 0.996241 0.000000
0.501880 1.001880 0.000000
0.507519 1.007519 0.000000
0.513158 1.013158 0.000000
0.518797 1.018797 0.000000
0.524436 1.024436 0.000000
0.530075 1.030075 0.000000
0.535714 1.035714 0.000000
0.541353 1.041353 0.000000
0.546992 1.046992 0.000000
0.552632 1.052632 0.000000
0.558271 1.058271 0.000000
0.563910 1.063910 0.000000
0.569549 1.069549 0.000000
0.575188 1.075188 0.000000
0.580827 1.080827 0.000000
0.586466 1.086466 0.000000
0.592105 1.092105 0.000000
0.597744 1.097744 0.000000
0.603383 1.103383 0.000000
0.609023 1.109023 0.000000
0.614662 1.114662 0.000000
0.620301 1.120301 0.000000
0.625940 1.125940 0.000000
0.631579 1.131579 0.000000
0.637218 1.137218 0.000000
0.642857 1.142857 0.000000
0.648496 1.148496 0.000000
0.654135 1.154135 0.000000
0.659774 1.159774 0.000000
0.665414 1.165414 0.000000
0.671053 1.171053 0.000000
0.676692 1.176692 0.000000
0.682331 1.182331 0.000000
0.687970 1.187970 0.000000
0.693609 1.193609 0.000000
0.699248 1.199248 0.000000
0.704887 1.204887 0.000000
0.710526 1.210526 0.000000
0.716165 1.216165 0.000000
0.721805 1.221805 0.000000
0.727444 1.227444 0.000000
0.733083 1.233083 0.000000
0.738722 1.238722 0.000000
0.744361 1.244361 0.000000
0.750000 1.250000 0.000000
0.755639 1.255639 0.000000
0.761278 1.261278 0.000000
0.766917 1.266917 0.000000
0.772556 1.272556 0.000000
0.778195 1.278195 0.000000
0.783835 1.283835 0.000000
0.789474 1.289474 0.000000
0.795113 1.295113 0.000000
0.800752 1.300752 0.000000
0.806391 1.306391 0.000000
0.812030 1.312030 0.000000
0.817669 1.317669 0.000000
0.823308 1.323308 0.000000
0.828947 1.328947 0.000000
0.834586 1.334586 0.000000
0.840226 1.340226 0.000000
0.845865 1.345865 0.000000
0.851504 1.351504 0.000000
0.857143 1.357143 0.000000
0.862782 1.362782 0.000000
0.868421 1.368421 0.000000
0.874060 1.374060 0.000000
0.879699 1.379699 0.000000
0.885338 1.385338 0.000000
0.890977 1.390977 0.000000
0.896617 1.396617 0.000000
0.902256 1.402256 0.000000
0.907895 1.407895 0.000000
0.913534 1.413534 0.000000
0.919173 1.419173 0.000000
0.924812 1.424812 0.000000
0.930451 1.430451 0.000000
0.936090 1.436090 0.000000
0.941729 1.441729 0.000000
0.947368 1.447368 0.000000
0.953008 1.453008 0.000000
0.958647 1.458647 0.000000
0.964286 1.464286 0.000000
0.969925 1.469925 0.000000
0.975564 1.475564 0.000000
0.981203 1.481203 0.000000
0.986842 1.486842 0.000000
0.992481 1.492481 0.000000
0.998120 1.498120 0.000000
1.003759 1.503759 0.000000
1.009398 1.509398 0.000000
1.015038 1.515038 0.000000
1.020677 1.520677 0.000000
1.026316 1.526316 0.000000
1.031955 1.531955 0.000000
1.037594 1.537594 0.000000
1.043233 1.543233 0.000000
1.048872 1.548872 0.000000
1.054511 1.554511 0.000000
1.060150 1.560150 0.000000
1.065789 1.565789 0.000000
1.071429 1.571429 0.000000
1.077068 1.577068 0.000000
1.082707 1.582707 0.000000
1.088346 1.588346 0.000000
1.093985 1.593985 0.000000
1.099624 1.599624 0.000000
1.105263 1.605263 0.000000
1.110902 1.610902 0.000000
1.116541 1.616541 0.000000
1.122180 1.622180 0.000000
1.127820 1.627820 0.000000
1.133459 1.633459 0.000000
1.139098 1.639098 0.000000
1.144737 1.644737 0.000000
1.150376 1.650376 0.000000
1.156015 1.656015 0.000000
1.161654 1.661654 0.000000
1.167293 1.667293 0.000000
1.172932 1.672932 0.000000
1.178571 1.678571 0.000000
1.184211 1.684211 0.000000
1.189850 1.689850 0.000000
1.195489 1.695489 0.000000
1.201128 1.701128 0.000000
1.206767 1.706767 0.000000
1.212406 1.712406 0.000000
1.218045 1.718045 0.000000
1.223684 1.723684 0.000000
1.229323 1.729323 0.000000
1.234962 1.734962 0.000000
1.240602 1.740602 0.000000
1.246241 1.746241 0.000000
1.251880 1.751880 0.000000
1.257519 1.757519 0.000000
1.263158 1.763158 0.000000
1.268797 1.768797 0.000000
1.274436 1.774436 0.000000
1.280075 1.780075 0.000000
1.285714 1.785714 0.000000
1.291353 1.791353 0.000000
1.296992 1.796992 0.000000
1.302632 1.802632 0.000000
1.308271 1.808271 0.000000
1.313910 1.813910 0.000000
1.319549 1.819549 0.000000
1.325188 1.825188 0.000000
1.330827 1.830827 0.000000
1.336466 1.836466 0.000000
1.342105 1.842105 0.000000
1.347744 1.847744 0.000000
1.353383 1.853383 0.000000
1.359023 1.859023 0.000000
1.364662 1.864662 0.000000
1.370301 1.870301 0.000000
1.375940 1.875940 0.000000
1.381579 1.881579 0.000000
1.387218 1.887218 0.000000
1.392857 1.892857 0.000000
[...]
POINT_DATA 5816
SCALARS UX float 1
LOOKUP_TABLE default
-0.000000
0.000000
0.136424
-0.149224
-0.256294
0.091737
0.144450
-0.000000
-0.000000
-0.000000
-0.000000
0.000000
-0.000000
0.085032
0.118916
0.137167
0.148122
0.155374
0.160408
0.164528
0.167383
0.169252
0.170091
0.169749
0.168536
0.166633
0.164299
0.161847
0.159393
0.157164
0.155150
0.153412
0.151910
0.150623
0.149531
0.148602
0.147814
0.147140
0.146565
0.146071
0.145647
0.145281
0.144964
0.144689
0.144205
0.143915
0.143578
0.143187
0.142738
0.142233
0.141665
0.141051
0.140388
0.139701
0.139012
0.138348
0.137751
0.137225
0.136875
0.136617
0.136472
0.136432
0.095299
0.054422
0.013791
-0.026730
-0.067357
-0.108199
-0.149239
-0.149219
-0.149370
-0.149828
-0.150762
-0.152163
-0.154095
-0.156466
-0.159207
-0.162106
-0.165119
-0.168071
-0.170915
-0.173586
-0.176098
-0.178445
-0.180671
-0.182786
-0.184855
-0.186942
-0.189042
-0.191259
-0.193617
-0.196206
-0.198930
-0.201840
-0.204969
-0.208528
-0.212001
-0.215863
-0.220091
-0.224648
-0.229733
-0.235651
-0.242688
-0.250516
-0.258684
-0.269118
-0.282285
-0.297429
-0.318392
-0.333215
-0.344430
-0.230081
-0.204473
-0.182516
-0.160496
-0.140752
-0.122622
-0.105300
-0.082444
-0.055863
-0.244280
-0.231790
-0.215722
-0.204590
-0.197738
-0.192986
-0.188508
-0.183899
-0.180672
-0.177405
-0.174195
-0.171725
-0.169200
-0.166915
-0.164813
-0.162811
-0.160878
-0.159086
-0.157479
-0.155803
-0.154105
-0.152534
-0.150985
-0.149393
-0.147959
-0.146504
-0.145187
-0.143885
-0.142610
-0.141478
-0.140317
-0.139172
-0.138045
-0.136889
-0.135820
-0.134722
-0.133729
-0.132688
-0.131627
-0.130567
-0.129523
-0.128570
-0.127651
-0.126723
-0.125766
-0.124814
-0.123897
-0.122991
-0.122079
-0.121233
-0.120357
-0.119489
-0.118631
-0.117764
-0.116920
-0.116075
-0.115230
-0.114378
-0.113528
-0.112686
-0.111832
-0.111007
-0.110166
-0.109334
-0.108520
-0.107715
-0.106887
-0.106042
-0.105213
-0.104365
-0.103539
-0.102720
-0.101905
-0.101074
-0.100251
-0.099416
-0.098575
-0.097724
-0.096905
-0.096070
-0.095241
-0.094406
-0.093559
-0.092715
-0.091863
-0.091006
-0.090149
-0.089298
-0.088450
-0.087587
-0.086727
-0.085858
-0.084988
-0.084116
-0.083249
-0.082376
-0.081498
-0.080628
-0.079754
-0.078877
-0.077992
-0.077103
-0.076208
-0.075317
-0.074428
-0.073533
-0.072631
-0.071728
-0.070819
-0.069908
-0.068997
-0.068079
-0.067157
-0.066233
-0.065308
-0.064381
-0.063455
-0.062530
-0.061603
-0.060668
-0.059730
-0.058793
-0.057853
-0.056911
-0.055969
-0.055023
-0.054077
-0.053121
-0.052162
-0.051203
-0.050244
-0.049282
-0.048317
-0.047352
-0.046383
-0.045412
-0.044441
-0.043464
-0.042485
-0.041506
-0.040524
-0.039539
-0.038556
-0.037566
-0.036573
-0.035578
-0.034584
-0.033592
-0.032595
-0.031596
-0.030596
-0.029593
-0.028586
-0.027574
-0.026560
-0.025543
-0.024527
-0.023509
-0.022497
-0.021486
-0.020470
-0.019448
-0.018423
-0.017399
-0.016379
-0.015355
-0.014326
-0.013295
-0.012260
-0.011225
-0.010189
-0.009153
-0.008118
-0.007086
-0.006057
-0.005029
-0.004000
-0.002962
-0.001913
-0.000861
0.000185
0.001229
0.002272
0.003317
0.004363
0.005414
0.006466
0.007517
0.008568
0.009614
0.010657
0.011701
0.012743
0.013787
0.014835
0.015887
0.016938
0.017987
0.019040
0.020093
0.021153
0.022223
0.023295
0.024363
0.025424
0.026481
0.027535
0.028586
0.029646
0.030713
0.031779
0.032846
0.033909
0.034974
0.036039
0.037094
0.038154
0.039221
0.040288
0.041355
0.042426
0.043503
0.044583
0.045659
0.046734
0.047813
0.048889
0.049964
0.051037
0.052114
0.053183
0.054253
0.055331
0.056421
0.057512
0.058599
0.059686
0.060775
0.061870
0.062969
0.064067
0.065157
0.066248
0.067340
0.068442
0.069540
0.070643
0.071752
0.072856
0.073958
0.075073
0.076185
0.077304
0.078410
0.079514
0.080634
0.081758
0.082853
0.083953
0.085064
0.086179
0.087293
0.088410
0.089535
0.090657
0.092785
0.093744
0.094586
0.095396
0.096169
0.096912
0.097634
0.098329
0.099004
0.099663
0.100299
0.100915
0.101513
0.102098
0.102666
0.103219
0.103760
0.104289
0.104809
0.105318
0.105822
0.106320
0.106814
0.107303
0.107791
0.108276
0.108763
0.109250
0.109738
0.110227
0.110719
0.111214
0.111712
0.112212
0.112716
0.113224
0.113734
0.114247
0.114765
0.115287
0.115811
0.116338
0.116871
0.117405
0.117942
0.118483
0.119027
0.119574
0.120123
0.120675
0.121231
0.121786
0.122347
0.122908
0.123473
0.124040
0.124610
0.125183
0.125757
0.126334
0.126913
0.127495
0.128079
0.128667
0.129256
0.129849
0.130446
0.131045
0.131648
0.132253
0.132861
0.133473
0.134088
0.134707
0.135329
0.135955
0.136585
0.137218
0.137854
0.138495
0.139140
0.139790
0.140443
0.141100
0.141762
0.142428
0.143098
0.143772
0.060634
0.060055
0.058094
0.062804
0.008379
0.004008
0.004243
-0.000321
0.014018
0.018380
0.021713
-0.041596
-0.045763
-0.038980
-0.050271
-0.019518
-0.013304
-0.017627
0.126600
0.127869
0.127331
0.126906
-0.037725
-0.034976
-0.036295
-0.036140
-0.017149
0.115654
0.117751
0.116116
0.117612
-0.037523
-0.033178
-0.033898
-0.029485
-0.012034
-0.016100
-0.016106
-0.020325
-0.013982
-0.009760
-0.010053
0.095346
0.092510
0.095775
0.092369
-0.012490
0.006944
0.004991
0.009703
0.008836
0.042593
0.038792
0.043446
0.042220
0.041893
0.038859
0.038521
-0.093838
-0.093038
-0.098242
-0.095553
0.037671
-0.006314
-0.008766
-0.106820
-0.104089
-0.104039
-0.106831
-0.107029
-0.104872
-0.107129
-0.006766
-0.001059
-0.004010
-0.012125
-0.154862
-0.151375
-0.150141
-0.148043
0.140124
0.137800
0.137222
0.137927
-0.064888
-0.065819
-0.080016
-0.049179
-0.153366
-0.147724
-0.150819
-0.145989
-0.148948
-0.142793
-0.165543
-0.163606
-0.159851
-0.169121
-0.158161
-0.157047
-0.162215
-0.152940
-0.206623
-0.208237
-0.212200
-0.202621
0.127726
0.133057
0.132563
-0.006605
-0.103606
-0.003883
-0.015676
-0.013058
-0.015475
-0.014028
-0.107297
-0.109517
-0.045586
-0.050652
-0.050135
-0.110079
-0.071259
-0.069187
-0.067843
-0.077009
-0.066174
-0.068131
-0.057031
-0.047028
-0.032286
-0.047702
-0.031033
-0.052298
-0.050200
-0.057958
-0.047066
-0.076899
-0.069954
-0.071672
-0.063491
-0.073246
-0.040711
-0.037913
-0.040297
0.139625
0.140098
0.141099
0.138050
-0.036439
0.051791
0.048430
0.048821
0.139322
0.138548
-0.033980
-0.032531
-0.025302
-0.039911
-0.080536
-0.099436
-0.098831
0.025882
-0.178953
-0.177666
-0.183469
-0.174385
-0.010234
-0.010425
-0.002985
-0.004209
-0.125733
-0.126345
0.052274
-0.011196
-0.012783
-0.010546
-0.003829
0.002957
-0.035960
-0.034489
-0.030881
0.004668
-0.109279
-0.110035
-0.106608
0.129950
0.126685
0.130548
0.130360
-0.112108
0.011938
0.013463
0.014190
0.059209
0.057617
0.062209
0.033056
0.028553
0.030318
0.014002
0.007761
0.006769
0.026125
-0.009245
-0.008215
-0.006588
-0.073073
-0.075941
-0.077550
-0.070117
0.017855
0.024537
0.028552
0.010512
0.002721
0.082629
0.080982
0.084490
0.073113
0.074532
0.077948
-0.068993
-0.067928
-0.070230
-0.096037
-0.094025
-0.093900
0.125337
0.123623
0.124757
0.125355
0.134993
0.136006
0.136465
0.077503
-0.057653
-0.056728
-0.065104
0.040801
0.036116
0.033760
-0.129456
-0.126816
-0.124505
-0.122294
-0.123830
-0.120585
-0.118937
-0.116553
0.062211
0.061529
0.064656
0.119065
0.117278
-0.062918
0.065091
0.127638
0.126302
0.125573
-0.066809
-0.067676
-0.069984
-0.069492
-0.031907
-0.031051
-0.023261
0.103893
0.107575
0.105368
0.065716
0.062810
-0.022864
0.066060
-0.026199
-0.028586
-0.026781
0.115480
0.118129
0.115895
0.118074
0.129179
0.130107
0.128089
-0.035505
-0.037537
-0.037702
0.076390
0.080080
0.079796
0.076557
0.004935
0.009065
0.009180
-0.035766
-0.057525
-0.060774
-0.058003
0.085588
0.089583
0.088643
-0.059345
0.101720
-0.034395
-0.033614
0.098570
0.099541
0.100816
0.097301
0.006070
0.008545
0.008405
0.103816
0.106106
0.107327
0.011225
0.089043
0.088834
0.091168
0.109395
0.086393
-0.040699
-0.041907
-0.044275
-0.044333
0.021852
0.024753
0.021869
0.049550
0.046430
0.051003
0.046127
-0.036438
-0.038913
-0.034630
-0.036651
0.025633
-0.034419
-0.037882
0.004957
0.003522
0.006824
0.002317
0.001610
-0.034901
0.098413
0.095569
0.098460
0.072411
0.072623
0.070144
-0.086876
-0.091815
-0.090440
0.063643
0.062140
0.064903
0.062043
-0.066996
-0.070728
-0.066993
-0.070853
0.083569
0.086340
0.085217
-0.033637
-0.034016
-0.029263
0.022947
0.027282
0.022886
-0.038621
0.027134
-0.081992
-0.084678
-0.081597
-0.084812
0.137264
-0.136026
-0.133432
-0.130083
-0.128795
-0.112099
-0.113399
-0.140486
-0.141015
-0.136947
-0.024608
-0.023780
-0.144140
0.090960
0.105923
0.105561
0.098464
0.098500
0.100687
0.084686
-0.047615
-0.047697
-0.052156
0.097762
0.032533
0.024009
0.019455
0.005249
0.095463
0.094299
0.118985
0.119246
0.119593
-0.045510
-0.050953
0.103536
-0.059976
-0.057554
-0.063654
-0.055611
-0.123569
-0.124461
-0.127977
-0.128825
-0.112109
-0.114641
-0.117379
0.091829
0.089012
0.089512
0.120588
0.122232
0.122759
0.066081
0.060015
0.066225
-0.076227
-0.072823
-0.071450
-0.067357
0.059330
-0.052273
-0.057460
-0.052669
-0.029975
0.027243
0.031431
0.032209
0.096380
0.099354
0.100299
-0.074913
-0.077628
-0.080160
0.095813
0.101145
0.105059
-0.061133
-0.056428
-0.052182
-0.054902
0.002621
0.000408
-0.000026
-0.082756
-0.078927
-0.080338
-0.080004
-0.118603
-0.119486
-0.121175
-0.118166
0.041121
0.037442
0.039155
0.034478
0.098697
0.098506
0.095909
0.100651
0.101402
-0.031307
-0.030987
-0.029249
0.005432
-0.123478
-0.066946
-0.071042
0.106732
0.104935
0.105573
0.107024
-0.136155
-0.137724
-0.131628
-0.141201
-0.145422
0.086989
0.088171
0.085874
-0.065699
-0.018142
-0.020721
-0.022129
-0.122046
-0.126228
-0.113614
-0.112832
-0.110540
-0.024182
-0.025270
-0.029009
-0.033500
-0.033613
-0.042070
-0.039557
-0.040897
0.089090
0.086399
-0.152097
-0.158891
-0.155321
-0.064943
-0.065521
-0.069632
-0.069581
-0.037107
-0.040455
-0.037098
0.126177
0.126443
-0.199907
-0.196524
-0.175408
-0.175866
-0.181359
0.077504
0.075244
0.079201
-0.002751
-0.001151
0.000294
0.115924
0.114972
0.118579
-0.009422
-0.007235
-0.005424
0.077359
0.000614
-0.004896
-0.002956
-0.104346
-0.105327
-0.102711
0.102362
0.102469
-0.049945
-0.052508
-0.056148
-0.056922
-0.045929
-0.044408
0.101558
-0.039793
-0.043796
-0.044367
-0.049052
-0.034766
0.008888
0.011355
-0.048813
-0.138372
-0.142599
-0.110675
-0.113912
-0.106142
-0.108753
-0.047953
-0.109941
-0.028606
-0.023585
-0.027131
-0.035221
-0.039712
-0.040155
0.128526
0.129249
0.127618
0.129011
-0.144697
-0.141321
-0.147025
0.091692
0.092974
0.091375
-0.132053
-0.128420
0.105968
0.105563
0.104682
-0.104144
-0.107116
0.103960
0.010578
0.120400
0.118444
-0.103315
-0.106062
-0.103349
-0.106389
-0.100429
-0.101355
-0.076002
-0.078598
-0.076438
-0.079370
-0.157798
-0.157688
-0.162409
0.121608
0.120335
0.121592
-0.073351
-0.075435
-0.072087
0.031163
0.018666
0.006857
0.030645
0.032778
0.029051
0.116895
-0.118156
-0.124872
-0.004037
-0.003788
0.089039
0.092106
0.091745
-0.005034
-0.009425
0.011803
0.012604
-0.125085
-0.121227
0.079758
0.077173
0.079413
0.121077
0.121739
0.110952
0.105400
0.113217
0.076350
0.082162
0.083710
-0.039101
-0.064409
-0.063686
-0.066719
-0.038993
0.108942
-0.093004
-0.089075
-0.090447
-0.068715
-0.069253
-0.071286
-0.072268
0.011871
0.013056
0.009071
-0.085921
-0.011342
-0.055333
-0.053853
-0.057263
-0.095637
-0.099917
-0.097974
-0.097086
0.115662
0.114982
0.114290
0.054796
0.057386
0.055540
0.122732
0.058045
0.054449
0.051827
0.014332
0.005581
0.009417
0.091696
0.089288
0.091186
0.126020
-0.090394
-0.089056
-0.091795
-0.088894
-0.091439
-0.088966
-0.089345
0.120485
0.001934
0.003063
-0.177246
-0.181431
-0.173153
-0.061816
-0.063031
-0.018044
-0.018925
-0.013846
-0.023678
0.069727
0.066417
0.065389
0.061504
0.042477
-0.096775
0.116482
0.115148
0.116005
-0.170172
-0.176265
-0.167238
-0.074348
-0.071999
-0.073112
-0.076857
-0.078529
0.106605
0.106708
0.108824
-0.102760
-0.103048
-0.105875
-0.104796
0.026046
0.027643
0.022586
0.027136
0.053554
0.049971
0.054717
0.049550
0.038728
0.041573
0.040705
0.120527
0.120147
0.043732
-0.093076
-0.094020
-0.059074
-0.058595
-0.055965
-0.055599
0.071959
0.075656
0.076715
0.080642
0.067576
0.066651
-0.024472
0.061927
0.015120
0.018445
0.016761
0.005104
0.002987
-0.002264
-0.003455
0.015933
0.008695
-0.123345
-0.124536
-0.128095
0.011256
-0.121646
-0.118838
-0.116548
-0.080098
-0.076424
-0.046017
-0.044459
-0.048650
-0.012482
-0.068161
-0.070579
-0.072638
-0.067631
-0.073630
-0.072112
-0.071453
0.044217
0.045738
0.046166
-0.025003
-0.027543
-0.025757
-0.026927
0.093802
0.095479
0.093967
0.096304
-0.016291
-0.014531
-0.014214
0.062928
0.066576
0.042476
0.054069
0.056490
0.027835
0.032543
0.030509
0.031380
0.002857
0.005253
0.005433
0.008172
-0.056839
-0.059585
-0.059748
-0.062700
-0.058833
-0.061192
-0.045083
0.112750
0.113504
0.047969
0.047298
0.044125
0.051856
0.034986
0.036250
0.035578
0.046642
0.049456
0.046029
0.123660
-0.097205
-0.098629
-0.094757
-0.052699
-0.049641
-0.050448
-0.047573
-0.064716
-0.061942
-0.064146
-0.060372
-0.065150
-0.068598
0.064765
0.067368
0.065711
0.121009
0.120335
0.069226
0.061812
0.057976
0.062884
0.058635
-0.030380
-0.029559
-0.026725
-0.032678
-0.096177
-0.107895
-0.108918
-0.030885
-0.029682
-0.032999
0.042479
0.045923
0.044715
0.044980
-0.001847
-0.003650
-0.063969
-0.062218
-0.014179
-0.009048
0.009360
0.010413
0.036507
0.039796
-0.114691
-0.118769
-0.043386
-0.041591
-0.043352
0.019243
0.015730
0.020123
-0.011838
0.015561
0.018573
0.018908
0.017199
0.014524
0.017861
-0.032990
-0.033928
-0.031434
-0.107215
0.011746
-0.046406
-0.045035
-0.044231
-0.065555
-0.008921
-0.009931
-0.061511
-0.062621
-0.057971
-0.066314
-0.086319
-0.075744
-0.070313
-0.069964
-0.087103
-0.085246
-0.085235
-0.051869
0.035131
0.031120
0.031629
0.022894
0.023011
0.018603
0.016685
0.029166
0.018394
-0.063840
-0.065681
-0.068214
-0.066567
-0.062597
-0.063932
-0.013652
-0.015088
-0.011777
-0.016759
-0.017327
-0.019559
-0.052305
-0.048915
-0.048636
-0.045461
0.057372
0.061589
0.112822
-0.079026
-0.075601
-0.257583
-0.263227
0.055834
0.064179
0.067125
-0.086416
-0.088858
-0.090038
-0.122873
-0.084234
-0.082720
-0.080906
0.055274
0.051993
0.048562
-0.053670
-0.050559
-0.020890
-0.025208
-0.026370
-0.049001
0.015098
0.016146
0.019087
0.012820
-0.086801
-0.024010
-0.027305
-0.016371
-0.019115
0.079115
0.072931
0.079547
0.073472
0.084227
0.086008
0.048826
0.051624
0.048971
0.052362
0.050647
0.053373
0.045630
0.072221
0.072896
0.110854
0.111035
0.108860
0.112842
0.112648
0.043607
0.036147
0.093134
0.091651
-0.053846
-0.053629
-0.068659
0.050506
0.052965
-0.041669
-0.044947
-0.001876
-0.006704
0.105327
0.083800
0.083328
0.079593
0.059317
0.056531
0.055671
0.053008
0.074779
-0.043661
0.067681
-0.100466
-0.099299
-0.102102
-0.062071
-0.055553
-0.081861
-0.084441
-0.223804
-0.245078
-0.230487
0.031218
0.030743
0.034949
-0.082928
-0.080285
0.077773
0.075963
0.003722
0.007821
-0.045885
-0.039598
-0.038419
-0.059127
-0.073915
0.069019
0.071212
0.072182
-0.174681
-0.174820
-0.180538
0.068072
0.057390
0.055635
0.055181
-0.051549
-0.036686
-0.017712
-0.196488
-0.014028
0.074247
0.076397
0.077035
0.041571
0.042667
0.059414
0.061790
0.043147
0.038695
0.039791
0.103627
-0.028075
-0.015102
-0.019885
0.103066
-0.003920
-0.001844
-0.007122
0.057565
-0.030540
-0.009173
-0.003629
-0.010574
-0.201629
-0.189874
-0.211369
-0.000928
0.002218
-0.083695
-0.086118
-0.211426
-0.203887
-0.217824
-0.014095
-0.188387
-0.233888
-0.236868
-0.226476
-0.060392
-0.026714
-0.038991
0.123081
0.124083
-0.227220
-0.213580
-0.023148
-0.022391
0.055742
0.047630
0.052861
-0.008669
-0.019449
-0.013432
-0.020979
-0.023078
-0.023902
-0.007219
0.113468
0.114643
0.115211
-0.009927
-0.013969
-0.020277
-0.022227
-0.022425
-0.025483
0.021603
0.024054
0.021549
-0.003903
-0.221101
-0.226632
-0.219782
-0.101174
-0.100385
-0.103009
-0.098361
-0.103011
-0.105567
-0.107663
-0.100878
-0.097795
-0.103720
-0.098898
-0.033510
0.053068
0.052960
0.050866
-0.023887
0.051329
0.085878
0.086958
0.090753
-0.029973
-0.031344
0.082040
0.084886
0.086150
-0.075476
-0.074447
-0.018799
0.067562
-0.007936
0.059263
-0.213724
-0.213583
-0.228925
0.059932
0.060808
0.142121
0.141807
0.058743
0.104480
0.124260
-0.043630
0.142730
0.142063
0.143313
0.142406
0.105897
0.107536
0.108134
0.109716
0.023089
0.077399
0.078618
0.076694
-0.079096
-0.077928
-0.076282
0.075464
0.074595
0.102502
-0.186816
-0.189725
-0.179585
-0.198482
0.101653
-0.007794
0.065529
0.068432
0.068545
0.095111
0.093898
0.092725
0.091321
0.008017
0.002459
-0.108355
-0.110216
-0.045038
-0.113725
0.096239
0.097165
0.098010
-0.114858
-0.212099
-0.224228
0.123087
0.085894
-0.199038
-0.192897
0.025458
0.021546
0.024752
0.020407
0.126204
0.115455
0.122958
0.117726
0.085681
0.140021
-0.070910
-0.216127
-0.192277
-0.159626
-0.157594
-0.162426
-0.152896
-0.098201
-0.094833
-0.095331
-0.092549
-0.097305
-0.094964
-0.188530
-0.020943
-0.024945
-0.027763
-0.197369
-0.192979
-0.198517
-0.193116
-0.194818
-0.106279
-0.103527
-0.100832
-0.109552
-0.144866
-0.138775
-0.142582
-0.145346
-0.153712
-0.130374
-0.134505
-0.125552
-0.057871
-0.060438
-0.056076
-0.168230
-0.168995
-0.167359
-0.209790
-0.209312
-0.204725
-0.167657
-0.166058
-0.162364
-0.157080
-0.159881
-0.191994
-0.188192
-0.193762
-0.185200
-0.187109
-0.191825
-0.191719
0.099865
-0.160666
-0.156386
-0.016966
-0.023763
-0.158025
-0.156199
-0.161860
-0.160148
-0.154452
-0.160126
-0.154950
-0.061288
-0.185434
-0.181187
-0.051736
-0.108549
-0.113630
-0.112511
-0.109128
-0.106557
-0.171084
-0.176371
-0.169655
0.025004
0.028047
0.027901
0.098870
-0.099648
-0.102189
-0.105521
-0.097067
0.005025
0.000681
-0.012240
-0.166248
-0.168640
-0.161547
-0.187265
-0.192025
-0.172827
-0.238940
-0.215155
-0.207078
0.100720
-0.138350
-0.133405
-0.203538
-0.131618
-0.185542
-0.184371
-0.193159
-0.179280
-0.178818
-0.163165
-0.169739
-0.172303
-0.175722
0.024717
0.034384
0.003056
-0.121473
-0.127547
0.001527
-0.128961
-0.133051
-0.134009
-0.128568
-0.123864
-0.124427
-0.196302
-0.196405
-0.186542
0.030767
-0.128416
0.074221
0.074799
-0.138543
-0.136946
-0.132003
-0.175497
-0.181376
-0.180147
-0.178915
-0.105539
-0.108687
-0.111119
-0.076684
-0.075644
-0.081158
-0.082558
-0.078226
-0.128614
-0.132540
-0.133698
0.133608
0.132606
-0.183225
-0.185681
0.131828
-0.042826
-0.062944
-0.117021
-0.120896
-0.124793
-0.131909
-0.124992
0.004049
-0.010502
0.014004
-0.088492
-0.088167
0.124958
0.119879
0.121722
0.123491
-0.174846
-0.172217
-0.179337
-0.178507
-0.158751
-0.154937
-0.153217
-0.150487
-0.000646
-0.182351
-0.176649
-0.183078
-0.172250
-0.178466
-0.094566
-0.101691
-0.096792
-0.098803
-0.092737
-0.184199
-0.198090
-0.122869
-0.128070
0.001448
0.006603
0.000678
0.007362
-0.119944
-0.114976
-0.118759
-0.116265
-0.111849
0.122061
-0.051529
-0.051690
-0.054499
-0.045964
0.134832
0.134120
0.133409
-0.111623
-0.124622
-0.128033
-0.124453
-0.131054
-0.132022
-0.185057
-0.179868
-0.184561
0.141649
-0.153616
-0.155084
-0.149253
-0.150617
-0.187309
-0.195568
-0.205039
-0.146989
-0.127078
-0.131104
-0.132247
-0.131516
-0.125339
-0.122237
-0.025507
-0.019186
-0.149150
-0.145495
-0.144960
-0.139802
-0.139564
0.130262
0.131159
-0.004273
-0.001667
0.001002
-0.000006
-0.119009
-0.125196
-0.158807
-0.153424
-0.165194
-0.110756
-0.102347
-0.108128
-0.117720
-0.162994
-0.166509
-0.159955
-0.169078
-0.171401
-0.090535
-0.083813
-0.104509
-0.111836
0.039528
0.043249
0.036487
0.027752
0.028276
-0.163862
-0.154958
-0.149257
-0.154544
-0.159356
-0.159445
-0.165948
-0.172694
-0.160895
-0.161164
-0.160503
-0.155277
-0.095096
-0.097762
-0.005993
-0.089204
-0.085132
-0.085078
-0.081046
-0.144361
-0.149178
-0.154689
-0.153724
0.014981
-0.136697
-0.136387
-0.163503
-0.162453
-0.167543
-0.165543
-0.181822
-0.152372
-0.149786
-0.147078
-0.155092
-0.158760
0.103233
0.103874
0.102148
-0.149278
-0.144194
-0.110493
-0.166900
-0.169497
-0.174848
-0.142329
-0.145278
-0.139797
-0.136973
-0.087353
-0.085220
-0.081979
-0.085238
-0.152528
-0.147800
0.131639
0.129112
0.123142
-0.119070
-0.154384
-0.155508
-0.120218
-0.144382
-0.149188
-0.146226
-0.146752
-0.109095
-0.113929
-0.141384
-0.144954
-0.101406
-0.098092
-0.092628
-0.088613
-0.094343
-0.168194
0.066872
-0.092547
-0.088919
-0.095742
0.126676
-0.106204
-0.113804
0.097521
0.097125
0.098644
-0.110278
-0.115947
0.133682
0.072026
-0.181583
-0.083946