# vtk DataFile Version 2.0
Test
ASCII
DATASET POLYDATA
POINTS 4126 float
0.000000 0.000000 0.000000
1.000000 0.000000 0.000000
1.000000 1.000000 0.000000
0.000000 1.000000 0.000000
0.300000 0.330000 0.000000
0.700000 0.680000 0.000000
0.303101 0.332713 0.000000
0.306202 0.335426 0.000000
0.309302 0.338140 0.000000
0.312403 0.340853 0.000000
0.315504 0.343566 0.000000
0.318605 0.346279 0.000000
0.321705 0.348992 0.000000
0.324806 0.351705 0.000000
0.327907 0.354419 0.000000
0.331008 0.357132 0.000000
0.334109 0.359845 0.000000
0.337209 0.362558 0.000000
0.340310 0.365271 0.000000
0.343411 0.367984 0.000000
0.346512 0.370698 0.000000
0.349612 0.373411 0.000000
0.352713 0.376124 0.000000
0.355814 0.378837 0.000000
0.358915 0.381550 0.000000
0.362016 0.384264 0.000000
0.365116 0.386977 0.000000
0.368217 0.389690 0.000000
0.371318 0.392403 0.000000
0.374419 0.395116 0.000000
0.377519 0.397829 0.000000
0.380620 0.400543 0.000000
0.383721 0.403256 0.000000
0.386822 0.405969 0.000000
0.389922 0.408682 0.000000
0.393023 0.411395 0.000000
0.396124 0.414109 0.000000
0.399225 0.416822 0.000000
0.402326 0.419535 0.000000
0.405426 0.422248 0.000000
0.408527 0.424961 0.000000
0.411628 0.427674 0.000000
0.414729 0.430388 0.000000
0.417829 0.433101 0.000000
0.420930 0.435814 0.000000
0.424031 0.438527 0.000000
0.427132 0.441240 0.000000
0.430233 0.443953 0.000000
0.433333 0.446667 0.000000
0.436434 0.449380 0.000000
0.439535 0.452093 0.000000
0.442636 0.454806 0.000000
0.445736 0.457519 0.000000
0.448837 0.460233 0.000000
0.451938 0.462946 0.000000
0.455039 0.465659 0.000000
0.458140 0.468372 0.000000
0.461240 0.471085 0.000000
0.464341 0.473798 0.000000
0.467442 0.476512 0.000000
0.470543 0.479225 0.000000
0.473643 0.481938 0.000000
0.476744 0.484651 0.000000
0.479845 0.487364 0.000000
0.482946 0.490078 0.000000
0.486047 0.492791 0.000000
0.489147 0.495504 0.000000
0.492248 0.498217 0.000000
0.495349 0.500930 0.000000
0.498450 0.503643 0.000000
0.501550 0.506357 0.000000
0.504651 0.509070 0.000000
0.507752 0.511783 0.000000
0.510853 0.514496 0.000000
0.513953 0.517209 0.000000
0.517054 0.519922 0.000000
0.520155 0.522636 0.000000
0.523256 0.525349 0.000000
0.526357 0.528062 0.000000
0.529457 0.530775 0.000000
0.532558 0.533488 0.000000
0.535659 0.536202 0.000000
0.538760 0.538915 0.000000
0.541860 0.541628 0.000000
0.544961 0.544341 0.000000
0.548062 0.547054 0.000000
0.551163 0.549767 0.000000
0.554264 0.552481 0.000000
0.557364 0.555194 0.000000
0.560465 0.557907 0.000000
0.563566 0.560620 0.000000
0.566667 0.563333 0.000000
0.569767 0.566047 0.000000
0.572868 0.568760 0.000000
0.575969 0.571473 0.000000
0.579070 0.574186 0.000000
0.582171 0.576899 0.000000
0.585271 0.579612 0.000000
0.588372 0.582326 0.000000
0.591473 0.585039 0.000000
0.594574 0.587752 0.000000
0.597674 0.590465 0.000000
0.600775 0.593178 0.000000
0.603876 0.595891 0.000000
0.606977 0.598605 0.000000
0.610078 0.601318 0.000000
0.613178 0.604031 0.000000
0.616279 0.606744 0.000000
0.619380 0.609457 0.000000
0.622481 0.612171 0.000000
0.625581 0.614884 0.000000
0.628682 0.617597 0.000000
0.631783 0.620310 0.000000
0.634884 0.623023 0.000000
0.637984 0.625736 0.000000
0.641085 0.628450 0.000000
0.644186 0.631163 0.000000
0.647287 0.633876 0.000000
0.650388 0.636589 0.000000
0.653488 0.639302 0.000000
0.656589 0.642016 0.000000
0.659690 0.644729 0.000000
0.662791 0.647442 0.000000
0.665891 0.650155 0.000000
0.668992 0.652868 0.000000
0.672093 0.655581 0.000000
0.675194 0.658295 0.000000
0.678295 0.661008 0.000000
0.681395 0.663721 0.000000
0.684496 0.666434 0.000000
0.687597 0.669147 0.000000
0.690698 0.671860 0.000000
0.693798 0.674574 0.000000
0.696899 0.677287 0.000000
0.034483 0.000000 0.000000
0.068966 0.000000 0.000000
0.103448 0.000000 0.000000
0.137931 0.000000 0.000000
0.172414 0.000000 0.000000
0.206897 0.000000 0.000000
0.241379 0.000000 0.000000
0.275862 0.000000 0.000000
0.310345 0.000000 0.000000
0.344828 0.000000 0.000000
0.379310 0.000000 0.000000
0.413793 0.000000 0.000000
0.448276 0.000000 0.000000
0.482759 0.000000 0.000000
0.517241 0.000000 0.000000
0.551724 0.000000 0.000000
0.586207 0.000000 0.000000
0.620690 0.000000 0.000000
0.655172 0.000000 0.000000
0.689655 0.000000 0.000000
0.724138 0.000000 0.000000
0.758621 0.000000 0.000000
0.793103 0.000000 0.000000
0.827586 0.000000 0.000000
0.862069 0.000000 0.000000
0.896552 0.000000 0.000000
0.931034 0.000000 0.000000
0.965517 0.000000 0.000000
1.000000 0.034483 0.000000
1.000000 0.068966 0.000000
1.000000 0.103448 0.000000
1.000000 0.137931 0.000000
1.000000 0.172414 0.000000
1.000000 0.206897 0.000000
1.000000 0.241379 0.000000
1.000000 0.275862 0.000000
1.000000 0.310345 0.000000
1.000000 0.344828 0.000000
1.000000 0.379310 0.000000
1.000000 0.413793 0.000000
1.000000 0.448276 0.000000
1.000000 0.482759 0.000000
1.000000 0.517241 0.000000
1.000000 0.551724 0.000000
1.000000 0.586207 0.000000
1.000000 0.620690 0.000000
1.000000 0.655172 0.000000
1.000000 0.689655 0.000000
1.000000 0.724138 0.000000
1.000000 0.758621 0.000000
1.000000 0.793103 0.000000
1.000000 0.827586 0.000000
1.000000 0.862069 0.000000
1.000000 0.896552 0.000000
1.000000 0.931034 0.000000
1.000000 0.965517 0.000000
0.965517 1.000000 0.000000
0.931034 1.000000 0.000000
0.896552 1.000000 0.000000
0.862069 1.000000 0.000000
0.827586 1.000000 0.000000
0.793103 1.000000 0.000000
0.758621 1.000000 0.000000
0.724138 1.000000 0.000000
0.689655 1.000000 0.000000
0.655172 1.000000 0.000000
0.620690 1.000000 0.000000
0.586207 1.000000 0.000000
0.551724 1.000000 0.000000
0.517241 1.000000 0.000000
0.482759 1.000000 0.000000
0.448276 1.000000 0.000000
0.413793 1.000000 0.000000
0.379310 1.000000 0.000000
0.344828 1.000000 0.000000
0.310345 1.000000 0.000000
0.275862 1.000000 0.000000
0.241379 1.000000 0.000000
0.206897 1.000000 0.000000
0.172414 1.000000 0.000000
0.137931 1.000000 0.000000
0.103448 1.000000 0.000000
0.068966 1.000000 0.000000
0.034483 1.000000 0.000000
0.000000 0.965517 0.000000
0.000000 0.931034 0.000000
0.000000 0.896552 0.000000
0.000000 0.862069 0.000000
0.000000 0.827586 0.000000
0.000000 0.793103 0.000000
0.000000 0.758621 0.000000
0.000000 0.724138 0.000000
0.000000 0.689655 0.000000
0.000000 0.655172 0.000000
0.000000 0.620690 0.000000
0.000000 0.586207 0.000000
0.000000 0.551724 0.000000
0.000000 0.517241 0.000000
0.000000 0.482759 0.000000
0.000000 0.448276 0.000000
0.000000 0.413793 0.000000
0.000000 0.379310 0.000000
0.000000 0.344828 0.000000
0.000000 0.310345 0.000000
0.000000 0.275862 0.000000
0.000000 0.241379 0.000000
0.000000 0.206897 0.000000
0.000000 0.172414 0.000000
0.000000 0.137931 0.000000
0.000000 0.103448 0.000000
0.000000 0.068966 0.000000
0.000000 0.034483 0.000000
0.010345 0.011379 0.000000
0.020690 0.022759 0.000000
0.031034 0.034138 0.000000
0.041379 0.045517 0.000000
0.051724 0.056897 0.000000
0.062069 0.068276 0.000000
0.072414 0.079655 0.000000
0.082759 0.091034 0.000000
0.093103 0.102414 0.000000
0.103448 0.113793 0.000000
0.113793 0.125172 0.000000
0.124138 0.136552 0.000000
0.134483 0.147931 0.000000
0.144828 0.159310 0.000000
0.155172 0.170690 0.000000
0.165517 0.182069 0.000000
0.175862 0.193448 0.000000
0.186207 0.204828 0.000000
0.196552 0.216207 0.000000
0.206897 0.227586 0.000000
0.217241 0.238966 0.000000
0.227586 0.250345 0.000000
0.237931 0.261724 0.000000
0.248276 0.273103 0.000000
0.258621 0.284483 0.000000
0.268966 0.295862 0.000000
0.279310 0.307241 0.000000
0.289655 0.318621 0.000000
0.710345 0.691034 0.000000
0.720690 0.702069 0.000000
0.731034 0.713103 0.000000
0.741379 0.724138 0.000000
0.751724 0.735172 0.000000
0.762069 0.746207 0.000000
0.772414 0.757241 0.000000
0.782759 0.768276 0.000000
0.793103 0.779310 0.000000
0.803448 0.790345 0.000000
0.813793 0.801379 0.000000
0.824138 0.812414 0.000000
0.834483 0.823448 0.000000
0.844828 0.834483 0.000000
0.855172 0.845517 0.000000
0.865517 0.856552 0.000000
0.875862 0.867586 0.000000
0.886207 0.878621 0.000000
0.896552 0.889655 0.000000
0.906897 0.900690 0.000000
0.917241 0.911724 0.000000
0.927586 0.922759 0.000000
0.937931 0.933793 0.000000
0.948276 0.944828 0.000000
0.958621 0.955862 0.000000
0.968966 0.966897 0.000000
0.979310 0.977931 0.000000
0.989655 0.988966 0.000000
0.495736 0.506744 0.000000
0.532946 0.539302 0.000000
0.455426 0.471473 0.000000
0.570155 0.571860 0.000000
0.408915 0.430775 0.000000
0.607364 0.604419 0.000000
0.365504 0.392791 0.000000
0.660341 0.650163 0.000000
0.334496 0.365659 0.000000
0.690951 0.677302 0.000000
0.299917 0.337921 0.000000
0.034194 0.721139 0.000000
0.310345 0.965517 0.000000
0.448276 0.965517 0.000000
0.034144 0.586145 0.000000
0.709850 0.712408 0.000000
0.267931 0.317586 0.000000
0.761379 0.767586 0.000000
0.207213 0.248157 0.000000
0.586207 0.965517 0.000000
0.034483 0.482759 0.000000
0.801839 0.811590 0.000000
0.635271 0.628837 0.000000
0.172414 0.965517 0.000000
0.433721 0.452481 0.000000
0.164483 0.203793 0.000000
0.034483 0.379310 0.000000
0.834607 0.844007 0.000000
0.474031 0.487752 0.000000
0.390310 0.414496 0.000000
0.723231 0.967173 0.000000
0.114682 0.145384 0.000000
0.511240 0.520310 0.000000
0.554538 0.558275 0.000000
0.591860 0.590853 0.000000
0.885517 0.900000 0.000000
0.033729 0.309476 0.000000
0.034483 0.896552 0.000000
0.622868 0.617984 0.000000
0.352991 0.381905 0.000000
0.672690 0.661147 0.000000
0.081724 0.112759 0.000000
0.486434 0.498605 0.000000
0.034889 0.239964 0.000000
0.582558 0.582713 0.000000
0.381008 0.406357 0.000000
0.650716 0.642116 0.000000
0.325194 0.357519 0.000000
0.315891 0.349380 0.000000
0.928393 0.941041 0.000000
0.826697 0.967442 0.000000
0.062569 0.087362 0.000000
0.247241 0.294828 0.000000
0.068966 0.965517 0.000000
0.034483 0.827586 0.000000
0.501938 0.512171 0.000000
0.467829 0.482326 0.000000
0.538899 0.544834 0.000000
0.526659 0.533982 0.000000
0.449225 0.466047 0.000000
0.560291 0.563706 0.000000
0.427519 0.447054 0.000000
0.421318 0.441628 0.000000
0.402713 0.425349 0.000000
0.613566 0.609845 0.000000
[...]
POINT_DATA 4126
SCALARS UX float 1
LOOKUP_TABLE default
0.000000
-0.000000
-0.000169
-0.000385
0.000389
-0.000693
0.000367
0.000264
0.000227
0.000197
0.000242
0.000204
0.000180
0.000160
0.000145
0.000093
0.000089
0.000079
0.000088
0.000095
0.000091
0.000112
0.000097
0.000099
0.000045
0.000061
0.000054
0.000051
0.000056
0.000025
0.000059
-0.000006
0.000010
-0.000025
-0.000027
-0.000024
-0.000020
0.000003
0.000014
0.000039
0.000006
0.000023
-0.000037
-0.000010
-0.000042
-0.000012
-0.000068
-0.000032
-0.000079
-0.000057
-0.000089
-0.000066
-0.000044
-0.000093
-0.000061
-0.000104
-0.000068
-0.000121
-0.000086
-0.000126
-0.000092
-0.000150
-0.000116
-0.000160
-0.000130
-0.000189
-0.000167
-0.000165
-0.000194
-0.000165
-0.000163
-0.000158
-0.000168
-0.000161
-0.000163
-0.000173
-0.000179
-0.000159
-0.000179
-0.000150
-0.000187
-0.000190
-0.000178
-0.000187
-0.000184
-0.000224
-0.000211
-0.000219
-0.000224
-0.000236
-0.000194
-0.000190
-0.000177
-0.000185
-0.000202
-0.000202
-0.000226
-0.000202
-0.000200
-0.000240
-0.000239
-0.000250
-0.000253
-0.000222
-0.000277
-0.000269
-0.000304
-0.000270
-0.000294
-0.000300
-0.000274
-0.000328
-0.000302
-0.000352
-0.000344
-0.000378
-0.000356
-0.000348
-0.000326
-0.000331
-0.000338
-0.000345
-0.000351
-0.000403
-0.000373
-0.000398
-0.000391
-0.000445
-0.000446
-0.000542
-0.000542
-0.000571
-0.000589
-0.000634
0.000000
0.000000
0.000000
0.000000
0.000000
0.000000
0.000000
0.000000
-0.000000
0.000000
0.000000
0.000000
0.000000
0.000000
0.000000
0.000000
0.000000
0.000000
-0.000000
-0.000000
-0.000000
-0.000000
-0.000000
-0.000000
-0.000000
-0.000000
-0.000000
-0.000000
0.000007
0.000013
0.000015
0.000012
0.000006
-0.000005
-0.000021
-0.000055
-0.000091
-0.000134
-0.000180
-0.000225
-0.000269
-0.000316
-0.000363
-0.000407
-0.000431
-0.000438
-0.000445
-0.000422
-0.000385
-0.000340
-0.000296
-0.000258
-0.000226
-0.000201
-0.000183
-0.000173
-0.000170
-0.000169
-0.000167
-0.000166
-0.000165
-0.000164
-0.000166
-0.000177
-0.000188
-0.000205
-0.000225
-0.000247
-0.000269
-0.000290
-0.000309
-0.000326
-0.000340
-0.000352
-0.000362
-0.000370
-0.000376
-0.000380
-0.000383
-0.000384
-0.000385
-0.000385
-0.000385
-0.000385
-0.000382
-0.000376
-0.000366
-0.000351
-0.000333
-0.000310
-0.000280
-0.000243
-0.000202
-0.000157
-0.000109
-0.000058
-0.000006
0.000045
0.000092
0.000133
0.000162
0.000177
0.000175
0.000156
0.000124
0.000087
0.000053
0.000024
0.000004
-0.000008
-0.000011
-0.000008
-0.000003
-0.000005
-0.000008
-0.000010
-0.000011
-0.000012
-0.000013
-0.000013
-0.000012
-0.000011
-0.000009
-0.000006
-0.000004
-0.000001
0.000003
0.000007
0.000013
0.000018
0.000026
0.000033
0.000041
0.000048
0.000058
0.000069
0.000082
0.000110
0.000134
0.000186
-0.000460
-0.000415
-0.000380
-0.000355
-0.000334
-0.000321
-0.000306
-0.000294
-0.000284
-0.000275
-0.000260
-0.000253
-0.000246
-0.000238
-0.000228
-0.000220
-0.000215
-0.000208
-0.000203
-0.000197
-0.000192
-0.000187
-0.000183
-0.000179
-0.000176
-0.000173
-0.000171
-0.000170
0.000129
0.000100
0.000197
0.000070
0.000269
-0.000002
0.000338
-0.000126
0.000366
-0.000450
0.000453
-0.000240
-0.000369
-0.000325
-0.000058
-0.000320
0.000208
-0.000281
0.000060
-0.000249
0.000092
-0.000249
-0.000075
-0.000382
0.000213
0.000028
0.000178
-0.000227
0.000149
0.000273
-0.000176
-0.000001
0.000129
0.000092
0.000035
-0.000195
0.000155
-0.000366
-0.000016
0.000373
-0.000191
-0.000008
0.000111
0.000085
0.000071
0.000299
-0.000083
0.000382
0.000418
-0.000180
-0.000166
-0.000011
0.000125
-0.000382
-0.000333
0.000138
0.000167
0.000119
0.000121
0.000213
0.000110
0.000218
0.000238
0.000278
-0.000009
-0.000088
-0.000323
0.000014
0.000024
0.000429
-0.000416
-0.000174
0.000365
-0.000169
-0.000011
-0.000169
0.000005
-0.000206
0.000135
-0.000151
-0.000002
-0.000291
-0.000351
-0.000305
-0.000378
-0.000310
0.000087
-0.000383
-0.000383
0.000135
0.000139
0.000177
0.000193
0.000079
0.000245
0.000275
0.000034
-0.000268
-0.000289
-0.000052
0.000321
0.000053
-0.000158
0.000349
0.000034
-0.000245
0.000360
0.000426
0.000004
-0.000212
-0.000243
-0.000003
-0.000171
-0.000190
-0.000206
-0.000186
-0.000012
-0.000171
-0.000010
0.000424
-0.000495
-0.000054
0.000097
-0.000264
0.000083
-0.000233
0.000040
-0.000178
-0.000332
-0.000203
-0.000173
0.000017
-0.000183
0.000016
-0.000401
0.000179
0.000128
0.000144
0.000263
0.000084
0.000068
0.000063
-0.000027
0.000282
-0.000077
0.000349
-0.000107
0.000368
0.000462
-0.000005
-0.000166
0.000047
0.000121
-0.000189
0.000175
-0.000228
0.000164
0.000050
-0.000271
-0.000310
-0.000107
-0.000340
-0.000361
-0.000194
-0.000374
-0.000274
-0.000317
0.000161
-0.000323
-0.000381
-0.000351
-0.000383
-0.000377
-0.000376
0.000104
-0.000292
0.000145
0.000074
0.000107
0.000135
0.000150
0.000140
0.000114
0.000179
0.000177
0.000187
0.000205
0.000238
0.000213
0.000099
0.000261
0.000096
0.000240
0.000298
-0.000006
0.000297
-0.000004
0.000284
-0.000051
-0.000055
0.000290
-0.000272
-0.000042
-0.000171
0.000349
-0.000132
-0.000131
-0.000258
-0.000229
0.000047
-0.000300
0.000377
-0.000352
0.000462
0.000021
-0.000232
0.000011
-0.000217
-0.000197
0.000008
-0.000005
0.000406
-0.000180
-0.000009
-0.000176
-0.000011
-0.000175
-0.000421
0.000409
-0.000011
-0.000358
-0.000311
-0.000297
0.000211
-0.000233
0.000172
-0.000376
-0.000195
-0.000064
-0.000055
0.000006
-0.000203
0.000120
-0.000010
0.000033
0.000059
-0.000115
-0.000366
-0.000273
0.000124
0.000158
0.000155
0.000158
0.000168
0.000196
-0.000181
0.000209
0.000237
0.000247
0.000271
0.000303
0.000303
0.000310
0.000353
0.000012
-0.000254
-0.000057
-0.000214
-0.000012
0.000029
-0.000004
-0.000187
-0.000309
-0.000113
0.000167
0.000135
-0.000273
-0.000339
-0.000369
-0.000174
-0.000281
-0.000350
-0.000377
-0.000377
-0.000311
-0.000283
0.000138
-0.000196
-0.000363
0.000081
0.000093
0.000057
0.000072
0.000113
0.000139
0.000098
0.000186
0.000083
0.000159
0.000035
0.000160
0.000160
0.000043
0.000139
-0.000038
0.000185
-0.000025
0.000227
0.000266
-0.000101
0.000241
0.000303
0.000259
0.000288
-0.000263
-0.000258
0.000299
-0.000187
-0.000097
0.000350
0.000328
0.000044
0.000355
0.000005
0.000049
0.000101
-0.000232
-0.000141
-0.000177
0.000101
0.000388
0.000023
0.000032
-0.000241
-0.000258
-0.000175
-0.000172
0.000056
-0.000009
0.000004
0.000403
0.000427
0.000428
-0.000363
-0.000102
-0.000288
0.000129
-0.000247
0.000105
-0.000220
-0.000283
0.000074
-0.000180
-0.000350
-0.000181
0.000072
-0.000218
0.000152
0.000171
0.000150
0.000062
0.000244
0.000417
0.000277
0.000299
0.000339
-0.000003
-0.000055
0.000151
0.000183
-0.000190
-0.000294
-0.000255
0.000439
-0.000328
-0.000350
-0.000097
-0.000184
-0.000157
-0.000008
0.000062
-0.000373
0.000084
-0.000244
-0.000367
-0.000364
-0.000377
-0.000312
-0.000366
-0.000273
0.000172
0.000101
0.000162
0.000167
-0.000253
0.000153
0.000174
0.000213
0.000241
0.000247
0.000272
0.000307
0.000313
0.000020
0.000020
0.000058
-0.000219
0.000100
0.000036
0.000064
-0.000255
-0.000028
0.000200
0.000319
0.000062
0.000104
0.000305
0.000113
0.000010
0.000093
0.000164
0.000190
0.000390
-0.000179
-0.000371
0.000380
0.000243
-0.000048
0.000263
0.000295
0.000126
-0.000135
-0.000201
-0.000317
-0.000001
-0.000333
-0.000190
-0.000234
-0.000057
-0.000177
-0.000347
-0.000299
0.000244
-0.000253
-0.000313
0.000189
-0.000286
-0.000169
-0.000363
-0.000354
0.000099
-0.000186
0.000163
-0.000269
0.000123
0.000337
0.000316
0.000303
0.000297
-0.000219
0.000300
0.000376
0.000052
0.000075
0.000033
0.000095
0.000095
0.000013
0.000295
0.000280
0.000266
0.000253
0.000245
0.000239
0.000218
0.000204
0.000181
0.000162
0.000163
0.000157
0.000153
-0.000175
0.000165
-0.000323
0.000093
-0.000235
-0.000058
-0.000046
-0.000019
-0.000199
-0.000194
-0.000052
-0.000354
0.000096
-0.000367
0.000093
-0.000250
-0.000368
-0.000345
-0.000331
-0.000093
-0.000279
0.000171
0.000141
-0.000176
-0.000246
0.000157
0.000165
0.000169
0.000236
0.000192
-0.000222
-0.000000
0.000054
0.000100
0.000058
0.000130
-0.000186
-0.000259
0.000387
-0.000230
0.000348
-0.000132
0.000034
0.000404
-0.000214
0.000052
0.000402
0.000288
0.000382
-0.000063
-0.000353
0.000040
-0.000342
-0.000062
0.000103
0.000362
-0.000229
0.000128
0.000124
0.000369
-0.000326
0.000134
0.000289
-0.000258
-0.000253
-0.000337
-0.000286
-0.000265
-0.000341
-0.000340
0.000144
-0.000205
-0.000219
0.000126
0.000057
-0.000162
0.000153
0.000162
0.000031
0.000044
0.000224
0.000295
-0.000192
0.000408
0.000322
0.000141
-0.000355
-0.000360
-0.000306
0.000183
0.000078
-0.000311
-0.000018
-0.000212
-0.000354
-0.000205
-0.000197
-0.000366
-0.000190
0.000113
-0.000207
0.000205
-0.000253
0.000094
0.000160
0.000161
0.000173
0.000235
0.000197
-0.000243
0.000156
0.000305
-0.000200
0.000001
-0.000237
0.000358
-0.000081
-0.000125
0.000365
0.000180
0.000240
0.000108
0.000257
0.000106
0.000286
-0.000282
0.000209
-0.000312
-0.000064
0.000298
0.000089
-0.000271
0.000245
-0.000143
0.000270
0.000071
0.000078
0.000019
0.000058
-0.000039
0.000298
-0.000332
0.000158
0.000159
0.000022
0.000225
-0.000171
0.000054
-0.000311
-0.000281
0.000129
-0.000241
0.000191
0.000109
0.000191
-0.000256
0.000345
0.000162
0.000182
-0.000351
-0.000355
0.000374
0.000329
0.000302
-0.000063
0.000255
-0.000133
0.000289
0.000288
0.000195
0.000206
0.000222
0.000231
-0.000268
-0.000251
0.000068
0.000237
0.000241
0.000252
0.000263
0.000284
-0.000297
-0.000197
0.000032
0.000059
0.000022
-0.000000
-0.000015
0.000075
0.000084
-0.000010
0.000340
-0.000322
0.000164
-0.000345
-0.000339
-0.000140
-0.000208
0.000155
0.000157
0.000151
0.000148
0.000142
-0.000221
-0.000298
-0.000321
-0.000336
-0.000219
-0.000331
-0.000280
-0.000200
0.000081
0.000363
0.000190
0.000172
-0.000234
-0.000225
0.000125
0.000118
-0.000067
0.000067
0.000099
0.000286
0.000134
0.000097
-0.000185
-0.000308
-0.000101
-0.000209
-0.000085
0.000378
0.000357
-0.000298
-0.000193
0.000142
0.000370
0.000154
-0.000036
-0.000330
-0.000024
0.000336
-0.000229
0.000121
0.000353
-0.000222
0.000116
-0.000256
0.000110
0.000357
-0.000310
-0.000076
-0.000155
0.000132
0.000203
-0.000341
-0.000337
-0.000226
-0.000250
0.000067
0.000315
0.000365
0.000110
0.000174
-0.000317
0.000367
-0.000174
-0.000354
0.000327
-0.000208
-0.000200
0.000040
0.000373
-0.000066
0.000326
-0.000213
0.000144
-0.000195
0.000104
0.000174
0.000311
-0.000118
-0.000306
-0.000282
0.000284
0.000082
0.000096
0.000081
0.000079
-0.000016
0.000221
-0.000330
0.000196
0.000197
-0.000240
0.000283
0.000151
-0.000254
0.000282
0.000209
0.000023
0.000142
0.000129
0.000136
-0.000292
0.000288
-0.000058
0.000219
0.000185
0.000373
-0.000265
0.000228
0.000243
0.000269
0.000007
0.000351
0.000073
0.000234
-0.000087
0.000358
-0.000297
-0.000034
0.000360
-0.000034
0.000113
-0.000271
-0.000264
0.000290
-0.000302
0.000329
0.000167
0.000228
-0.000323
-0.000220
-0.000342
0.000038
0.000110
0.000357
0.000207
-0.000232
0.000247
0.000265
0.000147
0.000142
0.000337
0.000021
0.000137
0.000127
0.000180
0.000195
0.000207
0.000217
-0.000338
0.000287
0.000273
0.000204
0.000052
0.000065
-0.000285
0.000021
-0.000077
0.000196
-0.000334
0.000357
0.000179
-0.000208
0.000342
-0.000293
-0.000224
0.000153
-0.000188
0.000255
-0.000295
0.000339
0.000121
0.000370
0.000100
-0.000108
-0.000317
-0.000324
0.000373
0.000243
0.000233
-0.000229
0.000124
0.000098
0.000115
-0.000114
0.000263
-0.000244
-0.000214
0.000315
0.000335
0.000308
0.000336
-0.000252
-0.000171
0.000108
-0.000013
0.000361
0.000271
0.000327
-0.000263
0.000367
0.000333
0.000085
0.000223
0.000007
0.000153
0.000364
-0.000085
-0.000034
-0.000057
-0.000324
-0.000228
0.000147
-0.000264
0.000104
0.000311
0.000218
-0.000317
-0.000236
-0.000146
0.000098
-0.000100
-0.000289
0.000176
0.000166
-0.000219
-0.000327
0.000245
0.000242
-0.000291
-0.000310
-0.000199
0.000293
0.000310
0.000315
0.000107
0.000333
-0.000202
0.000227
0.000078
0.000343
-0.000071
-0.000284
-0.000278
-0.000258
0.000174
-0.000260
-0.000325
-0.000071
-0.000268
0.000140
0.000156
0.000310
0.000300
0.000271
0.000120
0.000108
0.000068
0.000081
0.000264
-0.000240
0.000334
0.000205
0.000214
0.000332
0.000128
0.000248
0.000310
0.000184
0.000109
-0.000149
0.000193
0.000270
0.000022
0.000273
-0.000302
-0.000109
0.000133
0.000215
0.000003
0.000203
-0.000208
0.000336
-0.000008
-0.000052
-0.000341
-0.000303
0.000012
0.000330
0.000225
-0.000032
0.000143
0.000235
0.000227
-0.000322
-0.000239
-0.000311
-0.000037
0.000136
-0.000294
0.000290
-0.000285
-0.000232
-0.000275
0.000262
-0.000214
-0.000310
-0.000250
0.000100
-0.000134
0.000309
0.000317
0.000231
0.000099
0.000114
0.000125
0.000165
0.000181
0.000192
-0.000277
0.000201
0.000045
0.000022
-0.000206
0.000283
-0.000058
0.000273
0.000260
0.000102
-0.000227
-0.000108
0.000163
0.000305
-0.000267
-0.000311
-0.000311
0.000041
0.000107
0.000153
0.000253
-0.000178
-0.000216
-0.000231
-0.000285
0.000131
0.000247
0.000084
0.000282
0.000113
0.000289
-0.000325
-0.000327
0.000221
0.000101
0.000147
0.000310
-0.000253
0.000257
-0.000097
0.000199
0.000210
0.000313
-0.000302
-0.000283
0.000234
0.000311
0.000229
0.000297
0.000165
-0.000012
-0.000000
-0.000320
0.000305
-0.000245
-0.000292
0.000187
-0.000143
-0.000029
-0.000297
-0.000299
0.000265
-0.000202
-0.000273
0.000158
-0.000268
0.000136
0.000281
0.000215
0.000241
0.000064
0.000289
0.000155
-0.000286
-0.000309
0.000193
0.000090
-0.000283
-0.000146
-0.000247
-0.000284
0.000030
-0.000220
0.000104
-0.000039
0.000264
0.000048
-0.000286
-0.000263
-0.000239
0.000076
0.000218
-0.000310
0.000158
0.000036
-0.000006
-0.000261
0.000271
-0.000073
-0.000306
-0.000311
-0.000307
0.000155
-0.000052
-0.000189
0.000255
0.000085
0.000128
0.000096
-0.000309
0.000147
0.000198
-0.000126
0.000229
0.000267
0.000307
0.000007
0.000244
0.000094
-0.000264
0.000284
0.000115
0.000254
0.000233
0.000288
-0.000088
0.000205
0.000179
0.000211
0.000123
0.000173
0.000258
-0.000164
0.000283
0.000191
-0.000243
0.000045
-0.000075
-0.000273
0.000242
-0.000205
0.000259
-0.000281
0.000238
-0.000294
0.000143
-0.000273
0.000137
0.000026
0.000077
-0.000305
0.000163
0.000077
-0.000202
0.000196
-0.000025
0.000089
0.000100
0.000216
-0.000108
-0.000298
-0.000291
-0.000264
-0.000279
0.000150
-0.000293
-0.000298
-0.000298
-0.000303
-0.000006
-0.000050
0.000027
-0.000176
0.000147
-0.000260
0.000068
0.000228
0.000275
0.000153
-0.000287
0.000088
0.000125
0.000212
0.000089
0.000287
0.000182
0.000246
0.000228
0.000264
-0.000118
-0.000174
0.000241
0.000242
0.000286
0.000006
-0.000157
0.000123
0.000111
0.000115
-0.000253
0.000209
-0.000077
-0.000175
0.000176
0.000182
0.000159
0.000293
0.000253
-0.000287
-0.000248
-0.000281
0.000015
0.000223
0.000102
-0.000177
-0.000295
-0.000278
0.000215
-0.000281
-0.000295
-0.000109
0.000099
0.000050
0.000223
-0.000281
0.000161
0.000200
0.000186
0.000076
0.000260
0.000174
-0.000227
0.000138
-0.000182
-0.000233
-0.000287
-0.000275
-0.000153
-0.000015
-0.000044
0.000089
0.000016
-0.000140
0.000273
0.000144
0.000113
0.000183
0.000031
-0.000051
-0.000283
0.000102
0.000057
0.000071
0.000165
0.000264
0.000245
0.000202
0.000221
-0.000251
0.000124
0.000240
0.000211
0.000081
-0.000271
-0.000108
0.000254
-0.000265
0.000226
0.000285
0.000083
0.000139
0.000171
-0.000070
-0.000176
-0.000267
0.000045
-0.000259
0.000238
-0.000182
0.000140
0.000199
-0.000285
-0.000210
0.000157
-0.000083
-0.000147
0.000088
0.000062
-0.000269
0.000207
0.000077
-0.000277
-0.000252
-0.000282
0.000237
0.000083
-0.000285
-0.000160
0.000087
-0.000015
0.000009
-0.000296
-0.000289
-0.000256
-0.000212
0.000253
0.000055
0.000132
0.000222
0.000165
0.000080
-0.000274
0.000180
0.000237
0.000195
0.000101
0.000110
0.000225
0.000148
-0.000136
-0.000277
0.000029
0.000199
-0.000042
0.000262
-0.000029
0.000191
0.000125
-0.000278
0.000188
-0.000096
0.000072
0.000209
0.000267
0.000118
-0.000269
-0.000241
-0.000279
0.000156
-0.000236
-0.000064
-0.000267
-0.000218
-0.000287
-0.000270
-0.000072
0.000213
-0.000234
-0.000190
0.000175
0.000134
-0.000135
0.000190
-0.000264
-0.000277
0.000073
0.000145
-0.000287
0.000178
0.000071
0.000064
0.000170
-0.000285
-0.000113
0.000020
-0.000129
-0.000007
-0.000187
0.000127
0.000232
-0.000009
0.000204
0.000084
0.000147
0.000110
0.000133
0.000245
0.000013
0.000238
-0.000255
0.000202
0.000064
0.000166
0.000221
-0.000216
0.000142
0.000148
0.000150
0.000099
-0.000240
0.000099
0.000034
-0.000276
0.000046
0.000075
-0.000034
0.000263
-0.000242
-0.000060
-0.000285
0.000067
0.000176
-0.000085
-0.000268
0.000192
0.000217
-0.000256
0.000047
-0.000258
-0.000000
-0.000197
0.000117
-0.000275
0.000196
0.000128
-0.000275
0.000122
-0.000105
-0.000198
-0.000096
0.000134
0.000048
0.000063
0.000134
0.000171
0.000222
0.000210
-0.000007
-0.000241
-0.000247
-0.000124
-0.000225
-0.000284
-0.000063
0.000215
0.000071
0.000180
-0.000049
-0.000116
-0.000286
0.000112
0.000086
0.000098
0.000189
0.000149
0.000013
0.000203
0.000203
-0.000157
-0.000153
0.000167
-0.000242
-0.000229
0.000241
0.000132
0.000085
0.000057
0.000060
0.000040
0.000153
0.000178
-0.000030
-0.000272
-0.000281
0.000048
-0.000271
-0.000168
-0.000146
-0.000225
-0.000137
0.000119
0.000025
0.000105
-0.000282
0.000154
-0.000206
0.000115
-0.000259
-0.000272
-0.000246
-0.000207
0.000036
0.000043
0.000057
0.000200
-0.000277
-0.000236
0.000138
0.000188
0.000218
-0.000171
0.000065
-0.000030
-0.000284
-0.000180
-0.000217
-0.000095
-0.000007
0.000097
0.000132
0.000194
0.000120
0.000129
-0.000258
0.000068
-0.000137
-0.000102
0.000053
0.000171
0.000184
0.000183
0.000112
0.000034
-0.000052
0.000017
0.000151
-0.000025
0.000160
0.000085
-0.000069
0.000158
-0.000208
-0.000190
0.000048
0.000166
-0.000240
0.000006
0.000126
-0.000071
-0.000151
0.000108
0.000177
0.000110
0.000015
-0.000189
0.000192
0.000034
0.000168
0.000085
-0.000196
-0.000046
-0.000262
-0.000116
-0.000239
0.000120
-0.000258
0.000055
-0.000222
0.000175
0.000117
0.000108
-0.000005
-0.000082
0.000099
0.000133
0.000153
-0.000275
0.000046
0.000070
-0.000120
0.000171
-0.000046
-0.000032
0.000149
0.000150
0.000025
-0.000179
-0.000275
0.000148
-0.000290
0.000084
-0.000020
0.000029
-0.000205
0.000106
-0.000124
-0.000220
0.000136
0.000136
-0.000263
-0.000062
0.000150
0.000171
0.000139
0.000095
-0.000181
-0.000090
-0.000010
-0.000163
0.000102
0.000024
0.000000
-0.000213
-0.000049
-0.000156
-0.000243
-0.000260
0.000162
0.000070
0.000102
0.000020
-0.000027
-0.000245
0.000054
0.000112
0.000100
-0.000072
0.000040
0.000135
-0.000113
0.000152
0.000173
-0.000230
-0.000263
0.000070
-0.000158
0.000083
0.000156
-0.000175
-0.000154
0.000015
0.000094
-0.000198
-0.000248
-0.000213
-0.000066
0.000116
-0.000090
0.000132
-0.000188
0.000091
0.000053
0.000153
-0.000129
-0.000005
0.000027
-0.000225
0.000085
-0.000172
0.000146
0.000092
0.000135
-0.000247
0.000014
-0.000168
0.000119
-0.000053
-0.000024
0.000101
0.000055
-0.000247
0.000040
0.000117
0.000134
0.000151
-0.000101
0.000156
0.000070
-0.000031
-0.000139
0.000113
0.000040
0.000111
-0.000131
-0.000231
-0.000100
0.000098
-0.000103
-0.000000
-0.000135
-0.000042
0.000077
0.000085
0.000000
0.000024
0.000006
0.000133
-0.000186
-0.000140
-0.000203
-0.000026
-0.000162
-0.000229
0.000086
0.000116
-0.000232
0.000077
0.000130
-0.000231
-0.000080
-0.000045
0.000115
-0.000022
0.000038
0.000055
0.000070
0.000144
-0.000082
0.000116
-0.000188
-0.000120
-0.000016
0.000096
0.000026
0.000064
-0.000215
-0.000196
0.000082
-0.000151
0.000096
-0.000097
0.000096
0.000128
-0.000003
-0.000131
-0.000208
-0.000213
0.000021
-0.000107
-0.000166
-0.000185
-0.000076
-0.000058
0.000101
0.000113
-0.000213
-0.000119
0.000072
0.000072
0.000078
-0.000073
-0.000046
0.000009
0.000039
0.000069
0.000134
-0.000020
0.000055
-0.000109
-0.000113
0.000053
-0.000099
-0.000190
-0.000052
0.000090
-0.000124
-0.000031
-0.000169
-0.000088
-0.000181
-0.000010
-0.000141
-0.000196
-0.000089
0.000021
0.000095
0.000068
0.000111
0.000062
-0.000198
-0.000065
0.000089
0.000079
0.000006
-0.000037
0.000054
0.000039
-0.000175
-0.000019
0.000050
0.000012
-0.000028
-0.000165
-0.000146
0.000073
0.000076
-0.000175
0.000042
-0.000089
-0.000064
-0.000070
0.000081
-0.000144
0.000075
-0.000110
-0.000011
0.000068
-0.000177
0.000054
0.000057
0.000022
-0.000117
0.000004
-0.000002
-0.000038
0.000096
0.000038
0.000111
0.000039