# vtk DataFile Version 2.0
Test
ASCII
DATASET POLYDATA
POINTS 858 float
0.000000 0.000000 0.000000
1.000000 0.000000 0.000000
1.000000 1.000000 0.000000
0.000000 1.000000 0.000000
0.300000 0.330000 0.000000
0.700000 0.680000 0.000000
0.100000 0.000000 0.000000
0.200000 0.000000 0.000000
0.300000 0.000000 0.000000
0.400000 0.000000 0.000000
0.500000 0.000000 0.000000
0.600000 0.000000 0.000000
0.700000 0.000000 0.000000
0.800000 0.000000 0.000000
0.900000 0.000000 0.000000
1.000000 0.100000 0.000000
1.000000 0.200000 0.000000
1.000000 0.300000 0.000000
1.000000 0.400000 0.000000
1.000000 0.500000 0.000000
1.000000 0.600000 0.000000
1.000000 0.700000 0.000000
1.000000 0.800000 0.000000
1.000000 0.900000 0.000000
0.900000 1.000000 0.000000
0.800000 1.000000 0.000000
0.700000 1.000000 0.000000
0.600000 1.000000 0.000000
0.500000 1.000000 0.000000
0.400000 1.000000 0.000000
0.300000 1.000000 0.000000
0.200000 1.000000 0.000000
0.100000 1.000000 0.000000
0.000000 0.900000 0.000000
0.000000 0.800000 0.000000
0.000000 0.700000 0.000000
0.000000 0.600000 0.000000
0.000000 0.500000 0.000000
0.000000 0.400000 0.000000
0.000000 0.300000 0.000000
0.000000 0.200000 0.000000
0.000000 0.100000 0.000000
0.307407 0.336481 0.000000
0.314815 0.342963 0.000000
0.322222 0.349444 0.000000
0.329630 0.355926 0.000000
0.337037 0.362407 0.000000
0.344444 0.368889 0.000000
0.351852 0.375370 0.000000
0.359259 0.381852 0.000000
0.366667 0.388333 0.000000
0.374074 0.394815 0.000000
0.381481 0.401296 0.000000
0.388889 0.407778 0.000000
0.396296 0.414259 0.000000
0.403704 0.420741 0.000000
0.411111 0.427222 0.000000
0.418519 0.433704 0.000000
0.425926 0.440185 0.000000
0.433333 0.446667 0.000000
0.440741 0.453148 0.000000
0.448148 0.459630 0.000000
0.455556 0.466111 0.000000
0.462963 0.472593 0.000000
0.470370 0.479074 0.000000
0.477778 0.485556 0.000000
0.485185 0.492037 0.000000
0.492593 0.498519 0.000000
0.500000 0.505000 0.000000
0.507407 0.511481 0.000000
0.514815 0.517963 0.000000
0.522222 0.524444 0.000000
0.529630 0.530926 0.000000
0.537037 0.537407 0.000000
0.544444 0.543889 0.000000
0.551852 0.550370 0.000000
0.559259 0.556852 0.000000
0.566667 0.563333 0.000000
0.574074 0.569815 0.000000
0.581481 0.576296 0.000000
0.588889 0.582778 0.000000
0.596296 0.589259 0.000000
0.603704 0.595741 0.000000
0.611111 0.602222 0.000000
0.618519 0.608704 0.000000
0.625926 0.615185 0.000000
0.633333 0.621667 0.000000
0.640741 0.628148 0.000000
0.648148 0.634630 0.000000
0.655556 0.641111 0.000000
0.662963 0.647593 0.000000
0.670370 0.654074 0.000000
0.677778 0.660556 0.000000
0.685185 0.667037 0.000000
0.692593 0.673519 0.000000
0.548037 0.570873 0.000000
0.554453 0.579695 0.000000
0.540788 0.582045 0.000000
0.550492 0.594703 0.000000
0.338797 0.350505 0.000000
0.329823 0.347064 0.000000
0.335712 0.339262 0.000000
0.451687 0.438509 0.000000
0.442642 0.430741 0.000000
0.457884 0.427703 0.000000
0.387297 0.847474 0.000000
0.374793 0.914734 0.000000
0.332869 0.847471 0.000000
0.447069 0.415163 0.000000
0.567391 0.482596 0.000000
0.554659 0.473874 0.000000
0.567453 0.464800 0.000000
0.301190 0.902112 0.000000
0.551747 0.457138 0.000000
0.356532 0.391813 0.000000
0.347986 0.386048 0.000000
0.176207 0.429241 0.000000
0.128375 0.468105 0.000000
0.136378 0.404291 0.000000
0.185621 0.475277 0.000000
0.497512 0.261165 0.000000
0.499167 0.296032 0.000000
0.469918 0.291504 0.000000
0.642232 0.687989 0.000000
0.624295 0.701188 0.000000
0.630549 0.678643 0.000000
0.647682 0.074905 0.000000
0.700945 0.096046 0.000000
0.657288 0.160421 0.000000
0.611443 0.684403 0.000000
0.559779 0.406431 0.000000
0.582162 0.394521 0.000000
0.580552 0.422827 0.000000
0.560788 0.374759 0.000000
0.541503 0.468043 0.000000
0.545465 0.480978 0.000000
0.428301 0.394826 0.000000
0.414860 0.384611 0.000000
0.432086 0.374027 0.000000
0.533961 0.477886 0.000000
0.527361 0.464336 0.000000
0.415481 0.368142 0.000000
0.484401 0.527206 0.000000
0.472984 0.524144 0.000000
0.481205 0.518972 0.000000
0.394266 0.424909 0.000000
0.401826 0.431399 0.000000
0.392742 0.434502 0.000000
0.642418 0.617836 0.000000
0.635302 0.612878 0.000000
0.644322 0.605726 0.000000
0.263646 0.464175 0.000000
0.250486 0.498376 0.000000
0.230296 0.467342 0.000000
0.491693 0.468898 0.000000
0.498004 0.479972 0.000000
0.487381 0.480785 0.000000
0.718619 0.489140 0.000000
0.756680 0.466072 0.000000
0.751564 0.516847 0.000000
0.497232 0.719177 0.000000
0.477497 0.748035 0.000000
0.465924 0.716726 0.000000
0.501292 0.467390 0.000000
0.529064 0.285755 0.000000
0.547173 0.240449 0.000000
0.474742 0.511943 0.000000
0.403118 0.392815 0.000000
0.412434 0.399392 0.000000
0.653057 0.614785 0.000000
0.659187 0.602396 0.000000
0.400247 0.379451 0.000000
0.459133 0.636583 0.000000
0.434636 0.647284 0.000000
0.440667 0.616932 0.000000
0.453650 0.664799 0.000000
0.666296 0.616100 0.000000
0.657731 0.628197 0.000000
0.420489 0.468863 0.000000
0.414183 0.459489 0.000000
0.424065 0.460120 0.000000
0.629321 0.574616 0.000000
0.630370 0.589442 0.000000
0.617226 0.584388 0.000000
0.422026 0.450877 0.000000
0.590180 0.614274 0.000000
0.596278 0.627413 0.000000
0.585881 0.628067 0.000000
0.630677 0.603443 0.000000
0.529117 0.486095 0.000000
0.517046 0.488781 0.000000
0.522040 0.477224 0.000000
0.308641 0.392803 0.000000
0.323746 0.398675 0.000000
0.304273 0.411173 0.000000
0.146020 0.514086 0.000000
0.087335 0.505198 0.000000
0.624982 0.561914 0.000000
0.643811 0.559907 0.000000
0.831909 0.406061 0.000000
0.881376 0.423788 0.000000
0.839177 0.457573 0.000000
0.509066 0.478681 0.000000
0.614792 0.620247 0.000000
0.608406 0.635616 0.000000
0.603251 0.619643 0.000000
0.640290 0.595050 0.000000
0.524731 0.497540 0.000000
0.338689 0.392113 0.000000
0.347423 0.395876 0.000000
0.340116 0.407012 0.000000
0.686563 0.659098 0.000000
0.682555 0.651347 0.000000
0.934704 0.856355 0.000000
0.940546 0.930926 0.000000
0.863552 0.916423 0.000000
0.172107 0.566287 0.000000
0.188105 0.516551 0.000000
0.221330 0.532895 0.000000
0.683914 0.680068 0.000000
0.692945 0.685712 0.000000
0.683376 0.697853 0.000000
0.672414 0.683990 0.000000
0.557147 0.529227 0.000000
0.554161 0.540325 0.000000
0.546244 0.533101 0.000000
0.391911 0.394487 0.000000
0.387591 0.383772 0.000000
0.385780 0.368800 0.000000
0.671617 0.628861 0.000000
0.664093 0.637808 0.000000
0.408700 0.450928 0.000000
0.406517 0.467364 0.000000
0.394366 0.455525 0.000000
0.388841 0.472148 0.000000
0.792728 0.486062 0.000000
0.461047 0.516036 0.000000
0.460182 0.532753 0.000000
0.450617 0.523703 0.000000
0.364207 0.398120 0.000000
0.371344 0.402923 0.000000
0.362621 0.408449 0.000000
0.235276 0.413110 0.000000
0.235915 0.390376 0.000000
0.260894 0.399649 0.000000
0.564107 0.604249 0.000000
0.558497 0.625526 0.000000
0.545610 0.611482 0.000000
0.542035 0.628852 0.000000
0.441269 0.401429 0.000000
0.443649 0.385779 0.000000
0.454140 0.398188 0.000000
0.456246 0.380948 0.000000
0.531090 0.597071 0.000000
0.528592 0.618783 0.000000
0.693800 0.600685 0.000000
0.675646 0.601117 0.000000
0.688895 0.583493 0.000000
0.466943 0.412411 0.000000
0.469666 0.393398 0.000000
0.215629 0.311290 0.000000
0.236374 0.342186 0.000000
0.194357 0.347185 0.000000
0.372859 0.289727 0.000000
0.362694 0.307734 0.000000
0.346245 0.295576 0.000000
0.824768 0.656091 0.000000
0.787989 0.680173 0.000000
0.787481 0.637866 0.000000
0.763354 0.658567 0.000000
0.564845 0.587843 0.000000
0.565674 0.575091 0.000000
0.575285 0.580662 0.000000
0.591463 0.532694 0.000000
0.606735 0.524365 0.000000
0.606700 0.541268 0.000000
0.696107 0.663701 0.000000
0.695223 0.651919 0.000000
0.114270 0.553146 0.000000
0.897846 0.490106 0.000000
0.941355 0.438159 0.000000
0.491870 0.442127 0.000000
0.508682 0.433741 0.000000
0.504276 0.453072 0.000000
0.616608 0.507977 0.000000
0.629719 0.487283 0.000000
0.643435 0.510566 0.000000
0.660659 0.486926 0.000000
0.584650 0.557787 0.000000
0.582076 0.545531 0.000000
0.595086 0.552412 0.000000
0.215445 0.494211 0.000000
0.502563 0.534321 0.000000
0.493623 0.527201 0.000000
0.502900 0.523550 0.000000
0.490744 0.536689 0.000000
0.303740 0.348241 0.000000
0.312638 0.354325 0.000000
0.302746 0.359450 0.000000
0.683727 0.548378 0.000000
0.666144 0.562133 0.000000
0.663581 0.542222 0.000000
0.366098 0.324774 0.000000
0.379406 0.309842 0.000000
0.251675 0.434611 0.000000
0.214900 0.437402 0.000000
0.581091 0.493223 0.000000
0.603283 0.484739 0.000000
0.593195 0.510449 0.000000
0.429738 0.356510 0.000000
0.412970 0.350726 0.000000
0.358920 0.356811 0.000000
0.352460 0.366146 0.000000
0.347463 0.357590 0.000000
0.353794 0.402394 0.000000
0.527483 0.436280 0.000000
0.546965 0.439869 0.000000
0.535210 0.453469 0.000000
0.624606 0.790385 0.000000
0.614250 0.755688 0.000000
0.654837 0.763041 0.000000
0.384960 0.332814 0.000000
0.619946 0.597007 0.000000
0.358705 0.265521 0.000000
0.397502 0.266486 0.000000
0.377869 0.228897 0.000000
0.471169 0.372235 0.000000
0.492664 0.362648 0.000000
0.488718 0.386734 0.000000
0.431288 0.062893 0.000000
0.512348 0.074893 0.000000
0.450325 0.128772 0.000000
0.515327 0.223180 0.000000
0.538419 0.183215 0.000000
0.367912 0.509419 0.000000
0.343175 0.515399 0.000000
0.351317 0.488263 0.000000
0.593186 0.193353 0.000000
0.476496 0.230456 0.000000
0.594140 0.256114 0.000000
0.629340 0.367381 0.000000
0.659922 0.374166 0.000000
0.641019 0.397588 0.000000
0.669525 0.412603 0.000000
0.510665 0.591750 0.000000
0.493263 0.584115 0.000000
0.507476 0.576852 0.000000
0.492575 0.790205 0.000000
0.516533 0.753914 0.000000
0.493265 0.606545 0.000000
0.794852 0.435952 0.000000
0.797754 0.379724 0.000000
0.755728 0.420083 0.000000
0.528549 0.642034 0.000000
0.507334 0.653897 0.000000
0.509532 0.626562 0.000000
0.580705 0.748031 0.000000
0.605192 0.727758 0.000000
0.748472 0.635779 0.000000
0.742539 0.660255 0.000000
0.323194 0.421808 0.000000
0.325468 0.445306 0.000000
0.301700 0.435431 0.000000
0.295276 0.460827 0.000000
0.622421 0.457821 0.000000
0.642814 0.468538 0.000000
0.320303 0.468200 0.000000
[...]
POINT_DATA 858
SCALARS UX float 1
LOOKUP_TABLE default
-0.000000
0.000000
0.097502
-0.131663
-0.065061
0.058643
0.000000
-0.000000
-0.000000
-0.000000
-0.000000
0.000000
0.000000
0.000000
-0.000000
0.055209
0.087879
0.109868
0.126619
0.137275
0.138022
0.127946
0.112467
0.101159
0.073034
0.048997
0.026687
0.006669
-0.014354
-0.036862
-0.060290
-0.084371
-0.108131
-0.133404
-0.137666
-0.144312
-0.150818
-0.153427
-0.145909
-0.125589
-0.094470
-0.058368
-0.062308
-0.058772
-0.055421
-0.055980
-0.052345
-0.048491
-0.049283
-0.046866
-0.044211
-0.041662
-0.043367
-0.040156
-0.037939
-0.034759
-0.034146
-0.031234
-0.030460
-0.028182
-0.024747
-0.024180
-0.020653
-0.019845
-0.017621
-0.013666
-0.011707
-0.011978
-0.007918
-0.006552
-0.003475
-0.001328
0.002822
0.002251
0.006207
0.009080
0.009325
0.013218
0.016814
0.017986
0.017500
0.019289
0.023355
0.025039
0.026857
0.031218
0.033057
0.034782
0.035835
0.040658
0.041821
0.043988
0.049504
0.049124
0.054700
-0.039015
-0.036801
-0.040466
-0.035946
-0.025283
-0.034167
-0.025979
0.023704
0.020154
0.024446
-0.042500
-0.043386
-0.055705
0.020050
0.051676
0.048356
0.048329
-0.061521
0.044738
-0.079495
-0.083298
-0.114549
-0.125759
-0.119242
-0.114532
0.003386
0.007196
0.001162
0.011393
0.008334
0.004647
0.006455
0.012984
0.017156
0.000255
0.036012
0.037549
0.042320
0.030421
0.045511
0.048400
0.012396
0.007596
0.008662
0.046248
0.042939
0.004335
-0.060374
-0.063047
-0.061650
-0.074175
-0.073596
-0.081061
0.068455
0.063712
0.076173
-0.099758
-0.101053
-0.105860
0.037138
0.038762
0.029578
0.076636
0.081711
0.086320
-0.023909
-0.025905
-0.031927
0.039428
0.011374
0.009851
-0.063087
0.005285
0.008637
0.077103
0.079206
0.003504
-0.044819
-0.048265
-0.051757
-0.041538
0.080414
0.074605
-0.077181
-0.078440
-0.075043
0.073094
0.073388
0.069782
-0.073225
-0.021930
-0.018160
-0.020850
0.070705
0.046634
0.044049
0.044318
-0.093376
-0.091899
-0.094141
-0.122372
-0.134874
0.071427
0.073470
0.090310
0.104069
0.098746
0.042120
-0.009101
-0.013136
-0.015998
0.075554
0.046202
-0.089149
-0.087431
-0.090145
0.071244
0.076060
0.089046
0.084492
0.066009
-0.114519
-0.113284
-0.105398
0.032953
0.042630
0.033627
0.023824
0.055376
0.048420
0.046514
0.000251
-0.000704
-0.001684
0.080583
0.069600
-0.079748
-0.079862
-0.082541
-0.081757
0.091754
-0.065981
-0.063735
-0.066452
-0.076422
-0.071376
-0.085639
-0.103899
-0.101969
-0.099760
-0.030840
-0.027438
-0.033173
-0.029897
0.016163
0.013275
0.017788
0.014315
-0.039329
-0.034776
0.083143
0.081052
0.081435
0.023119
0.019270
-0.081984
-0.091245
-0.098524
-0.020446
-0.021538
-0.028025
0.097767
0.086160
0.095307
0.088503
-0.032797
-0.027760
-0.019292
0.063358
0.064065
0.066771
0.076297
0.081388
-0.128051
0.114878
0.119134
0.033208
0.034029
0.037454
0.062617
0.061067
0.066628
0.065782
0.061906
0.063163
0.066425
-0.108278
-0.054864
-0.057638
-0.052658
-0.057866
-0.084683
-0.083052
-0.090049
0.077191
0.076413
0.073699
-0.017411
-0.016460
-0.102071
-0.108298
0.055419
0.056833
0.059979
0.004258
-0.000194
-0.013004
-0.022944
-0.019604
-0.086922
0.037218
0.040656
0.041831
0.013651
0.010639
0.021698
-0.010511
0.065127
-0.024022
-0.015457
-0.018195
0.014893
0.016591
0.020857
-0.003084
-0.000393
-0.005080
0.003728
0.004591
-0.079825
-0.082913
-0.084462
0.012339
-0.001919
0.019140
0.041529
0.048537
0.048581
0.056352
-0.044081
-0.048667
-0.047835
-0.019212
-0.015503
-0.043904
0.086201
0.078628
0.075344
-0.029571
-0.031591
-0.036683
0.000905
0.006250
0.090850
0.086229
-0.092004
-0.090966
-0.094368
-0.094503
0.055042
0.060053
-0.090423
0.005194
-0.008568
-0.007229
-0.010950
-0.107078
-0.117709
-0.134620
-0.108820
-0.098211
-0.096130
-0.024716
-0.027029
0.079175
0.081307
-0.096457
-0.094533
-0.123308
-0.105609
-0.124769
-0.136747
-0.032393
-0.073830
-0.065121
-0.069542
-0.066797
-0.012690
-0.009607
-0.110343
0.093005
0.108407
0.082898
-0.094492
-0.092591
-0.109810
-0.027218
-0.031077
-0.021804
-0.062509
-0.060615
-0.068152
-0.036797
0.092149
0.015831
0.012342
-0.090026
-0.017622
-0.011683
0.012396
0.013769
0.018123
0.020902
0.011696
0.093842
-0.036892
-0.046535
-0.031607
-0.050421
-0.053554
-0.037030
0.098344
0.076582
-0.052821
0.066785
0.065167
0.055243
-0.050649
-0.015943
-0.023216
-0.015869
0.009073
0.024239
-0.077675
-0.072756
0.013804
0.016439
0.026494
-0.107640
-0.101044
-0.039980
0.034330
0.048447
0.030809
-0.088151
-0.088535
-0.040651
-0.036143
0.070506
0.072183
-0.093999
-0.078097
-0.081992
0.102689
-0.087451
0.024379
0.026986
0.036894
0.061952
0.068854
-0.011673
-0.097798
-0.092292
-0.004006
-0.032752
-0.014626
-0.012339
-0.101654
-0.077306
-0.106963
-0.074592
-0.084990
-0.087631
-0.076555
0.087963
0.089343
0.086817
0.062779
0.067070
-0.068691
-0.065637
-0.016346
-0.009435
0.103680
0.103133
-0.068991
0.079085
0.085695
-0.081129
-0.007183
-0.012159
-0.065854
-0.061232
-0.086068
-0.084104
-0.084331
-0.084431
-0.058144
0.075757
0.077432
0.078514
-0.138946
0.047146
0.069081
0.003353
0.007973
0.000910
-0.004003
0.106393
0.112440
0.120776
0.124081
0.000136
-0.025619
-0.023901
0.016079
0.069811
0.066767
0.080962
0.079202
-0.039891
-0.044534
0.026653
0.023509
0.028555
0.027617
0.012383
0.003259
0.017575
0.023531
-0.007363
0.083595
0.085959
-0.046995
-0.037885
-0.037868
0.035891
0.032734
-0.030930
0.030118
-0.093208
-0.089844
-0.095967
-0.000373
-0.002219
-0.097390
-0.098100
-0.091943
-0.057616
-0.058199
0.085348
0.090329
-0.055057
-0.060231
-0.053756
-0.027067
-0.037052
-0.057693
-0.007090
-0.002546
-0.091751
-0.012755
-0.007302
0.017456
0.016924
-0.041205
-0.042653
-0.045677
0.038099
0.003662
0.003276
0.082499
-0.007846
-0.020741
-0.013552
-0.016831
-0.071528
-0.074620
-0.073890
0.007289
-0.081391
0.009074
0.015912
-0.005500
-0.013126
-0.031472
0.026745
0.029153
0.025446
0.058057
0.054705
-0.087614
-0.089313
0.041623
0.029802
0.036611
0.056811
-0.005769
-0.060444
-0.083607
0.031240
-0.064171
-0.069103
0.022420
-0.069324
-0.056845
0.084243
0.082439
0.016646
0.110098
-0.092823
0.040387
-0.032677
-0.058378
-0.051899
-0.026149
-0.087617
-0.064533
-0.088594
0.075558
0.059824
0.060301
0.043191
0.100166
0.064166
0.017140
-0.033705
-0.031710
-0.054904
-0.052076
-0.047318
-0.047978
-0.047165
0.032020
0.035920
0.033351
0.018605
0.016841
0.048214
0.047782
0.043350
-0.047596
0.039273
0.075041
0.027269
0.035286
0.032751
-0.044414
0.066388
0.070233
0.028672
0.059540
0.057331
0.001946
-0.060638
-0.062443
-0.061617
-0.058870
0.045410
0.039838
0.057056
-0.079694
0.043973
-0.063167
-0.037123
-0.034313
-0.057311
-0.005600
0.076936
-0.075083
-0.077204
-0.074087
-0.026421
-0.078274
0.028642
-0.025341
-0.000828
-0.086781
-0.085208
-0.051361
0.004452
-0.048163
-0.047564
-0.006829
0.096281
0.098090
-0.068624
-0.046609
-0.079030
-0.005903
0.070523
0.061319
0.085382
0.073783
-0.006703
0.091439
-0.081394
-0.079639
-0.048801
-0.073797
-0.012663
-0.021606
-0.015254
-0.068072
-0.071543
-0.010136
-0.007246
-0.072931
-0.083929
-0.000865
-0.001542
-0.078961
-0.023467
-0.087362
-0.062453
-0.060423
-0.068143
-0.025666
0.009749
0.019277
0.024069
-0.025958
-0.064198
-0.069901
-0.006038
0.066919
-0.004103
0.045065
0.041587
0.049822
0.052670
0.038979
0.045419
-0.076910
-0.073611
-0.095510
0.052062
-0.062399
-0.004655
-0.002374
0.029969
-0.090831
0.044350
-0.011483
-0.009809
0.025611
0.038345
-0.099069
-0.119761
-0.015135
0.085749
-0.032311
0.053357
0.041299
-0.127926
-0.114254
-0.092492
0.106992
0.093295
-0.063430
-0.063341
-0.071957
0.028231
-0.036398
0.074530
0.001276
-0.015174
0.073023
0.042712
-0.089996
-0.127451
0.017839
-0.011021
-0.005469
-0.015926
0.047218
0.061158
0.025776
-0.040166
-0.048157
0.063222
0.023646
-0.084174
-0.083035
-0.089179
0.027984
0.047893
-0.084971
0.054066
0.063293
-0.064843
0.078252
0.051264
-0.076775
-0.081033
0.052050
-0.085894
-0.086535
-0.067701
0.003229
-0.009220
-0.015111
0.016957
-0.032252
0.075927
-0.074964
-0.072913
-0.057107
0.041273
-0.062704
-0.047741
-0.042764
0.054325
0.051205
-0.067404
-0.070588
-0.034799
0.030099
-0.075487
0.066062
-0.055454
0.058042
0.057677
0.057988
0.061070
0.045359
0.040666
0.048886
-0.051703
0.015653
-0.015636
0.022816
-0.042051
-0.040083
0.004256
0.008344
-0.079567
-0.066183
-0.059066
0.056995
0.056455
0.011127
0.053154
0.038558
-0.054626
-0.057776
0.013007
0.052321
0.009992
-0.071109
-0.071937
0.050848
0.044791
SCALARS UY float 1
LOOKUP_TABLE default
-0.000000
-0.000000
-0.765000
-0.765000
-0.219934
-0.538783
-0.000000
-0.000000
-0.000000
-0.000000
-0.000000
-0.000000
-0.000000
-0.000000
-0.000000
-0.095960
-0.173642
-0.247165
-0.317448
-0.384742
-0.451229
-0.520581
-0.597361
-0.680139
-0.765000
-0.765000
-0.765000
-0.765000
-0.765000
-0.765000
-0.765000
-0.765000
-0.765000
-0.685639
-0.607354
-0.531030
-0.458056
-0.389650
-0.323844
-0.257172
-0.183143
-0.100084
-0.228640
-0.236896
-0.244828
-0.247345
-0.254772
-0.262376
-0.264903
-0.271284
-0.277942
-0.285018
-0.288838
-0.294063
-0.299198
-0.305608
-0.309935
-0.315525
-0.320247
-0.326078
-0.333239
-0.336432
-0.343217
-0.346812
-0.352461
-0.360446
-0.365657
-0.368652
-0.375316
-0.379902
-0.386664
-0.391756
-0.398961
-0.400134
-0.407504
-0.413698
-0.416530
-0.424190
-0.431617
-0.434634
-0.443339
-0.447863
-0.454540
-0.457801
-0.462544
-0.470919
-0.476331
-0.482528
-0.486265
-0.494962
-0.499125
-0.505734
-0.515362
-0.518276
-0.529070
-0.470386
-0.478090
-0.479253
-0.489234
-0.220490
-0.224453
-0.211121
-0.280243
-0.273371
-0.271493
-0.654052
-0.702849
-0.652069
-0.261709
-0.323578
-0.315330
-0.311571
-0.692070
-0.303631
-0.306566
-0.302833
-0.327611
-0.359964
-0.311670
-0.362551
-0.163875
-0.187800
-0.182284
-0.558250
-0.566326
-0.551368
-0.047225
-0.063143
-0.105136
-0.554097
-0.270578
-0.265462
-0.285075
-0.248813
-0.309131
-0.318455
-0.246708
-0.239080
-0.233396
-0.314494
-0.304376
-0.228443
-0.434324
-0.431123
-0.427482
-0.339735
-0.345818
-0.352087
-0.445445
-0.441414
-0.429154
-0.354659
-0.381035
-0.355826
-0.304059
-0.313617
-0.319768
-0.356466
-0.343376
-0.382824
-0.568153
-0.587083
-0.563637
-0.303405
-0.183352
-0.153540
-0.422287
-0.245468
-0.249562
-0.438747
-0.429415
-0.235464
-0.505939
-0.510760
-0.489922
-0.525268
-0.442107
-0.453299
-0.383618
-0.375547
-0.375722
-0.400883
-0.412654
-0.407812
-0.365882
-0.504447
-0.514093
-0.514366
-0.426558
-0.319587
-0.320145
-0.312302
-0.303952
-0.312576
-0.317772
-0.393685
-0.389594
-0.390760
-0.393889
-0.303904
-0.321804
-0.344210
-0.312148
-0.505259
-0.520657
-0.506831
-0.419092
-0.327936
-0.310186
-0.314360
-0.322946
-0.495053
-0.482573
-0.648877
-0.708771
-0.700188
-0.432976
-0.394533
-0.407278
-0.547722
-0.552886
-0.565086
-0.554719
-0.355980
-0.370484
-0.363074
-0.248628
-0.240244
-0.228091
-0.454521
-0.468867
-0.367802
-0.380612
-0.369736
-0.380789
-0.362604
-0.424127
-0.435430
-0.427799
-0.313031
-0.315171
-0.327859
-0.312741
-0.294482
-0.302107
-0.497335
-0.510570
-0.499957
-0.510850
-0.252044
-0.242030
-0.251164
-0.240264
-0.488478
-0.502542
-0.438625
-0.433337
-0.423792
-0.261914
-0.249843
-0.232607
-0.255872
-0.263435
-0.175456
-0.187243
-0.179181
-0.495167
-0.514396
-0.481398
-0.497862
-0.484885
-0.469717
-0.469258
-0.363051
-0.360406
-0.372337
-0.500867
-0.484704
-0.424044
-0.372540
-0.337632
-0.284531
-0.281334
-0.293644
-0.351096
-0.339183
-0.358696
-0.344982
-0.383608
-0.371157
-0.378542
-0.376969
-0.440742
-0.434660
-0.429869
-0.442090
-0.258322
-0.266361
-0.271930
-0.395683
-0.401405
-0.386208
-0.198659
-0.188947
-0.330239
-0.332264
-0.333464
-0.332107
-0.347749
-0.222049
-0.217241
-0.221715
-0.237104
-0.226400
-0.321363
-0.285861
-0.291310
-0.298439
-0.625592
-0.602498
-0.607986
-0.204310
-0.422875
-0.159888
-0.161026
-0.136624
-0.236235
-0.232312
-0.247788
-0.036144
-0.044271
-0.075741
-0.139485
-0.114322
-0.403219
-0.403603
-0.385067
-0.124462
-0.141851
-0.168319
-0.252160
-0.260928
-0.275836
-0.290954
-0.482256
-0.474764
-0.471912
-0.618310
-0.594373
-0.489693
-0.323681
-0.280254
-0.307329
-0.517935
-0.523468
-0.505243
-0.595203
-0.583065
-0.479123
-0.500263
-0.330348
-0.348475
-0.336512
-0.355265
-0.316794
-0.328173
-0.364894
-0.073256
-0.063538
-0.102173
-0.093415
-0.272555
-0.282299
-0.335140
-0.293881
-0.446538
-0.413542
-0.720523
-0.672181
-0.409991
-0.409938
-0.370017
-0.392502
-0.469869
-0.478216
-0.527944
-0.484524
-0.166392
-0.497391
-0.514648
-0.532528
-0.492350
-0.494059
-0.496587
-0.517333
-0.247763
-0.291266
-0.449077
-0.519936
-0.484484
-0.571181
-0.145753
-0.137327
-0.120380
-0.474613
-0.492367
-0.471325
-0.162688
-0.280040
-0.257374
-0.257042
-0.337224
-0.209696
-0.212055
-0.215523
-0.206807
-0.226811
-0.639756
-0.655313
-0.456812
-0.627420
-0.583455
-0.603812
-0.476704
-0.465204
-0.571600
-0.456577
-0.236220
-0.460599
-0.275238
-0.294864
-0.258480
-0.615622
-0.111977
-0.105051
-0.090451
-0.217829
-0.154946
-0.698346
-0.641940
-0.263295
-0.057568
-0.107785
-0.241463
-0.245019
-0.177442
-0.590018
-0.583887
-0.619520
-0.339152
-0.350879
-0.505077
-0.525102
-0.368155
-0.360931
-0.564574
-0.554634
-0.510209
-0.379192
-0.366645
-0.565787
-0.581363
-0.573189
-0.320434
-0.336921
-0.060245
-0.277140
-0.260820
-0.028889
-0.091502
-0.039901
-0.046481
-0.281932
-0.421196
-0.306941
-0.418007
-0.473673
-0.440067
-0.464757
-0.469197
-0.455233
-0.489044
-0.391618
-0.390624
-0.425110
-0.435156
-0.522783
-0.532392
-0.438479
-0.468579
-0.418958
-0.385516
-0.410152
-0.429091
-0.130173
-0.120672
-0.605651
-0.572912
-0.362285
-0.369185
-0.375180
-0.359673
-0.546360
-0.409600
-0.420392
-0.416640
-0.435711
-0.403069
-0.384424
-0.526684
-0.531961
-0.224993
-0.215858
-0.491569
-0.452957
-0.478931
-0.425647
-0.084843
-0.202003
-0.194614
-0.585965
-0.380734
-0.366753
-0.513046
-0.515734
-0.493243
-0.475127
-0.266600
-0.257909
-0.275698
-0.263619
-0.715176
-0.668637
-0.674451
-0.246862
-0.708978
-0.471091
-0.474712
-0.197278
-0.183544
-0.196704
-0.277679
-0.273508
-0.192691
-0.260729
-0.281941
-0.282297
-0.280402
-0.520671
-0.532676
-0.319826
-0.338058
-0.264400
-0.471250
-0.477791
-0.432873
-0.434365
-0.497683
-0.457843
-0.475167
-0.487684
-0.409067
-0.426465
-0.528310
-0.542522
-0.377549
-0.258275
-0.244598
-0.543853
-0.556824
-0.463376
-0.471302
-0.465241
-0.324157
-0.639109
-0.614487
-0.495802
-0.224085
-0.521200
-0.533240
-0.533017
-0.436458
-0.438239
-0.451266
-0.201532
-0.359587
-0.546149
-0.532742
-0.626887
-0.655195
-0.204164
-0.278791
-0.283661
-0.285937
-0.407646
-0.403815
-0.401228
-0.415532
-0.229332
-0.194250
-0.189559
-0.310307
-0.513563
-0.441214
-0.348176
-0.148269
-0.455634
-0.434236
-0.226691
-0.453520
-0.449390
-0.461858
-0.460130
-0.182611
-0.412418
-0.293037
-0.285596
-0.544667
-0.135164
-0.149950
-0.095640
-0.185941
-0.128594
-0.330197
-0.631892
-0.666250
-0.625610
-0.666117
-0.580436
-0.310479
-0.266468
-0.449424
-0.456587
-0.449628
-0.446965
-0.490230
-0.186369
-0.193053
-0.287592
-0.295250
-0.297412
-0.298803
-0.293315
-0.297447
-0.304450
-0.274244
-0.547473
-0.294615
-0.188904
-0.225666
-0.248353
-0.223771
-0.456143
-0.401761
-0.395389
-0.293505
-0.352173
-0.342914
-0.539565
-0.444629
-0.442690
-0.213086
-0.453520
-0.190120
-0.150939
-0.186981
-0.597176
-0.296964
-0.205920
-0.442234
-0.433939
-0.452498
-0.595623
-0.514226
-0.409315
-0.399100
-0.406986
-0.496336
-0.402234
-0.312601
-0.507819
-0.207344
-0.351101
-0.340136
-0.455861
-0.214630
-0.458294
-0.449593
-0.216940
-0.434321
-0.403958
-0.198101
-0.167547
-0.193589
-0.204219
-0.377383
-0.591303
-0.570546
-0.552861
-0.543529
-0.413483
-0.389756
-0.392378
-0.464841
-0.352786
-0.556948
-0.540306
-0.543329
-0.431952
-0.420262
-0.545390
-0.559045
-0.322488
-0.329987
-0.257978
-0.560781
-0.390094
-0.525424
-0.382963
-0.392427
-0.398840
-0.406166
-0.634849
-0.229506
-0.205952
-0.200728
-0.547720
-0.413654
-0.399393
-0.159909
-0.453467
-0.181878
-0.351696
-0.345528
-0.335583
-0.347040
-0.340668
-0.554749
-0.393408
-0.400542
-0.299459
-0.320490
-0.446544
-0.574143
-0.112060
-0.656787
-0.296767
-0.712116
-0.143249
-0.177386
-0.062526
-0.073232
-0.697090
-0.691646
-0.178536
-0.454916
-0.067892
-0.122596
-0.123363
-0.287830
-0.629488
-0.628148
-0.529156
-0.525029
-0.377769
-0.386716
-0.390769
-0.705967
-0.130740
-0.379590
-0.199228
-0.568150
-0.325874
-0.627409
-0.234712
-0.583484
-0.569484
-0.191101
-0.192585
-0.488083
-0.563943
-0.235505
-0.243445
-0.544574
-0.523571
-0.534691
-0.308706
-0.291811
-0.297123
-0.302869
-0.539312
-0.221643
-0.281977
-0.389279
-0.534441
-0.443469
-0.467974
-0.294427
-0.231020
-0.240670
-0.314762
-0.247360
-0.248528
-0.353411
-0.263633
-0.236813
-0.234935
-0.287011
-0.463921
-0.405736
-0.390666
-0.381999
-0.516147
-0.303692
-0.218252
-0.431810
-0.436359
-0.334253
-0.325952
-0.415486
-0.408407
-0.216849
-0.274263
-0.332697
-0.542234
-0.465422
-0.415962
-0.365153
-0.354814
-0.361053
-0.380728
-0.361687
-0.323843
-0.398865
-0.310296
-0.477741
-0.335861
-0.208422
-0.401646
-0.272766
-0.288490
-0.270738
-0.365629
-0.367443
-0.425887
-0.345656
-0.273696
-0.335925
-0.331770
-0.409095
-0.417236
-0.500155
-0.379892
-0.279698
-0.416266
-0.409796
-0.329669
-0.336166
SCALARS DAMAGE float 1
LOOKUP_TABLE default
0.999876
0.999882
0.999911
0.999921
0.000000
0.000000
0.999923
0.999939
0.999950
0.999955
0.999953
0.999949
0.999942
0.999935
0.999919
0.999901
0.999925
0.999934
0.999940
0.999942
0.999942
0.999931
0.999919
0.999911
0.999921
0.999929
0.999940
0.999943
0.999940
0.999934
0.999930
0.999927
0.999924
0.999921
0.999924
0.999929
0.999936
0.999941
0.999945
0.999935
0.999924
0.999885
-0.000000
0.000000
0.000000
0.000000
0.000000
0.000000
0.000000
0.000000
0.000000
0.000000
0.000000
0.000000
0.000000
0.000000
0.000000
0.000000
0.000000
0.000000
0.000000
0.000000
0.000000
0.000000
0.000000
0.000000
0.000000
0.000000
0.000000
0.000000
0.000000
0.000000
0.000000
0.000000
0.000000
0.000000
0.000000
0.000000
0.000000
0.000000
0.000000
0.000000
0.000000
0.000000
0.000000
0.000000
0.000000
0.000000
0.000000
0.000000
0.000000
0.000000
0.000000
0.000000
-0.000000
0.678557
0.728277
0.862952
0.890159
0.481488
0.344879
0.649583
0.685415
0.689929
0.857607
0.999932
0.999932
0.999930
0.879908
0.980415
0.977541
0.991697
0.999929
0.988701
0.443543
0.491304
0.999924
0.999929
0.999929
0.999925
0.999940
0.999917
0.999881
0.943709
0.987883
0.947239
0.999944
0.999940
0.999938
0.981961
0.999346
0.999818
0.999439
0.999877
0.970230
0.952851
0.900990
0.890066
0.970625
0.933798
0.954960
0.953405
0.820276
0.870453
0.763496
0.448032
0.444757
0.670061
0.433185
0.389592
0.708119
0.999735
0.999911
0.999905
0.748513
0.668586
0.466542
0.999910
0.999922
0.999923
0.999924
0.999934
0.999931
0.844326
0.999937
0.999940
0.751251
0.726518
0.752569
0.683840
0.868607
0.844853
0.999695
0.999891
0.999662
0.999895
0.811602
0.516045
0.798279
0.754490
0.638202
0.879360
0.761417
0.673276
0.496183
0.768675
0.834903
0.898368
0.539695
0.879028
0.775384
0.895559
0.930934
0.904086
0.978110
0.999927
0.999933
0.917954
0.970535
0.999925
0.999928
0.999926
0.807223
0.510058
0.827953
0.681238
0.790147
0.752006
0.744905
0.687462
0.869936
0.350987
0.474918
0.999917
0.999916
0.999923
0.999925
0.999924
0.999923
0.513383
0.484298
0.845153
0.747217
0.706920
0.439373
0.448506
0.544019
0.656948
0.834296
0.718142
0.392435
0.715329
0.881218
0.873462
0.957040
0.999923
0.887832
0.952068
0.948556
0.433413
0.382464
0.675714
0.999366
0.998304
0.996212
0.881053
0.967040
0.960621
0.985261
0.916127
0.966064
0.959889
0.983822
0.957809
0.987228
0.972644
0.939289
0.986254
0.955179
0.984063
0.999040
0.996255
0.999891
0.994759
0.977152
0.981031
0.999910
0.999465
0.999499
0.994340
0.717042
0.454014
0.373279
0.922736
0.971575
0.936913
0.475878
0.689597
0.999929
0.999931
0.999935
0.931576
0.978884
0.931574
0.991990
0.998425
0.997495
0.999657
0.630879
0.782353
0.823509
0.999920
0.726870
0.732562
0.540988
0.850510
0.525939
0.473259
0.729965
0.997017
0.985819
0.994877
0.955741
0.987975
0.999645
0.999879
0.981818
0.996170
0.976718
0.985901
0.977784
0.692232
0.366627
0.493438
0.703204
0.988802
0.994071
0.980912
0.999932
0.999675
0.999979
0.970980
0.462729
0.998469
0.999580
0.999931
0.994638
0.998665
0.994815
0.999954
0.999951
0.999951
0.999943
0.999943
0.997131
0.999349
0.996312
0.999940
0.999944
0.999937
0.999931
0.999929
0.999925
0.999928