# vtk DataFile Version 2.0
Test
ASCII
DATASET POLYDATA
POINTS 858 float
0.000000 0.000000 0.000000
1.000000 0.000000 0.000000
1.000000 1.000000 0.000000
0.000000 1.000000 0.000000
0.300000 0.330000 0.000000
0.700000 0.680000 0.000000
0.100000 0.000000 0.000000
0.200000 0.000000 0.000000
0.300000 0.000000 0.000000
0.400000 0.000000 0.000000
0.500000 0.000000 0.000000
0.600000 0.000000 0.000000
0.700000 0.000000 0.000000
0.800000 0.000000 0.000000
0.900000 0.000000 0.000000
1.000000 0.100000 0.000000
1.000000 0.200000 0.000000
1.000000 0.300000 0.000000
1.000000 0.400000 0.000000
1.000000 0.500000 0.000000
1.000000 0.600000 0.000000
1.000000 0.700000 0.000000
1.000000 0.800000 0.000000
1.000000 0.900000 0.000000
0.900000 1.000000 0.000000
0.800000 1.000000 0.000000
0.700000 1.000000 0.000000
0.600000 1.000000 0.000000
0.500000 1.000000 0.000000
0.400000 1.000000 0.000000
0.300000 1.000000 0.000000
0.200000 1.000000 0.000000
0.100000 1.000000 0.000000
0.000000 0.900000 0.000000
0.000000 0.800000 0.000000
0.000000 0.700000 0.000000
0.000000 0.600000 0.000000
0.000000 0.500000 0.000000
0.000000 0.400000 0.000000
0.000000 0.300000 0.000000
0.000000 0.200000 0.000000
0.000000 0.100000 0.000000
0.307407 0.336481 0.000000
0.314815 0.342963 0.000000
0.322222 0.349444 0.000000
0.329630 0.355926 0.000000
0.337037 0.362407 0.000000
0.344444 0.368889 0.000000
0.351852 0.375370 0.000000
0.359259 0.381852 0.000000
0.366667 0.388333 0.000000
0.374074 0.394815 0.000000
0.381481 0.401296 0.000000
0.388889 0.407778 0.000000
0.396296 0.414259 0.000000
0.403704 0.420741 0.000000
0.411111 0.427222 0.000000
0.418519 0.433704 0.000000
0.425926 0.440185 0.000000
0.433333 0.446667 0.000000
0.440741 0.453148 0.000000
0.448148 0.459630 0.000000
0.455556 0.466111 0.000000
0.462963 0.472593 0.000000
0.470370 0.479074 0.000000
0.477778 0.485556 0.000000
0.485185 0.492037 0.000000
0.492593 0.498519 0.000000
0.500000 0.505000 0.000000
0.507407 0.511481 0.000000
0.514815 0.517963 0.000000
0.522222 0.524444 0.000000
0.529630 0.530926 0.000000
0.537037 0.537407 0.000000
0.544444 0.543889 0.000000
0.551852 0.550370 0.000000
0.559259 0.556852 0.000000
0.566667 0.563333 0.000000
0.574074 0.569815 0.000000
0.581481 0.576296 0.000000
0.588889 0.582778 0.000000
0.596296 0.589259 0.000000
0.603704 0.595741 0.000000
0.611111 0.602222 0.000000
0.618519 0.608704 0.000000
0.625926 0.615185 0.000000
0.633333 0.621667 0.000000
0.640741 0.628148 0.000000
0.648148 0.634630 0.000000
0.655556 0.641111 0.000000
0.662963 0.647593 0.000000
0.670370 0.654074 0.000000
0.677778 0.660556 0.000000
0.685185 0.667037 0.000000
0.692593 0.673519 0.000000
0.548037 0.570873 0.000000
0.554453 0.579695 0.000000
0.540788 0.582045 0.000000
0.550492 0.594703 0.000000
0.338797 0.350505 0.000000
0.329823 0.347064 0.000000
0.335712 0.339262 0.000000
0.451687 0.438509 0.000000
0.442642 0.430741 0.000000
0.457884 0.427703 0.000000
0.387297 0.847474 0.000000
0.374793 0.914734 0.000000
0.332869 0.847471 0.000000
0.447069 0.415163 0.000000
0.567391 0.482596 0.000000
0.554659 0.473874 0.000000
0.567453 0.464800 0.000000
0.301190 0.902112 0.000000
0.551747 0.457138 0.000000
0.356532 0.391813 0.000000
0.347986 0.386048 0.000000
0.176207 0.429241 0.000000
0.128375 0.468105 0.000000
0.136378 0.404291 0.000000
0.185621 0.475277 0.000000
0.497512 0.261165 0.000000
0.499167 0.296032 0.000000
0.469918 0.291504 0.000000
0.642232 0.687989 0.000000
0.624295 0.701188 0.000000
0.630549 0.678643 0.000000
0.647682 0.074905 0.000000
0.700945 0.096046 0.000000
0.657288 0.160421 0.000000
0.611443 0.684403 0.000000
0.559779 0.406431 0.000000
0.582162 0.394521 0.000000
0.580552 0.422827 0.000000
0.560788 0.374759 0.000000
0.541503 0.468043 0.000000
0.545465 0.480978 0.000000
0.428301 0.394826 0.000000
0.414860 0.384611 0.000000
0.432086 0.374027 0.000000
0.533961 0.477886 0.000000
0.527361 0.464336 0.000000
0.415481 0.368142 0.000000
0.484401 0.527206 0.000000
0.472984 0.524144 0.000000
0.481205 0.518972 0.000000
0.394266 0.424909 0.000000
0.401826 0.431399 0.000000
0.392742 0.434502 0.000000
0.642418 0.617836 0.000000
0.635302 0.612878 0.000000
0.644322 0.605726 0.000000
0.263646 0.464175 0.000000
0.250486 0.498376 0.000000
0.230296 0.467342 0.000000
0.491693 0.468898 0.000000
0.498004 0.479972 0.000000
0.487381 0.480785 0.000000
0.718619 0.489140 0.000000
0.756680 0.466072 0.000000
0.751564 0.516847 0.000000
0.497232 0.719177 0.000000
0.477497 0.748035 0.000000
0.465924 0.716726 0.000000
0.501292 0.467390 0.000000
0.529064 0.285755 0.000000
0.547173 0.240449 0.000000
0.474742 0.511943 0.000000
0.403118 0.392815 0.000000
0.412434 0.399392 0.000000
0.653057 0.614785 0.000000
0.659187 0.602396 0.000000
0.400247 0.379451 0.000000
0.459133 0.636583 0.000000
0.434636 0.647284 0.000000
0.440667 0.616932 0.000000
0.453650 0.664799 0.000000
0.666296 0.616100 0.000000
0.657731 0.628197 0.000000
0.420489 0.468863 0.000000
0.414183 0.459489 0.000000
0.424065 0.460120 0.000000
0.629321 0.574616 0.000000
0.630370 0.589442 0.000000
0.617226 0.584388 0.000000
0.422026 0.450877 0.000000
0.590180 0.614274 0.000000
0.596278 0.627413 0.000000
0.585881 0.628067 0.000000
0.630677 0.603443 0.000000
0.529117 0.486095 0.000000
0.517046 0.488781 0.000000
0.522040 0.477224 0.000000
0.308641 0.392803 0.000000
0.323746 0.398675 0.000000
0.304273 0.411173 0.000000
0.146020 0.514086 0.000000
0.087335 0.505198 0.000000
0.624982 0.561914 0.000000
0.643811 0.559907 0.000000
0.831909 0.406061 0.000000
0.881376 0.423788 0.000000
0.839177 0.457573 0.000000
0.509066 0.478681 0.000000
0.614792 0.620247 0.000000
0.608406 0.635616 0.000000
0.603251 0.619643 0.000000
0.640290 0.595050 0.000000
0.524731 0.497540 0.000000
0.338689 0.392113 0.000000
0.347423 0.395876 0.000000
0.340116 0.407012 0.000000
0.686563 0.659098 0.000000
0.682555 0.651347 0.000000
0.934704 0.856355 0.000000
0.940546 0.930926 0.000000
0.863552 0.916423 0.000000
0.172107 0.566287 0.000000
0.188105 0.516551 0.000000
0.221330 0.532895 0.000000
0.683914 0.680068 0.000000
0.692945 0.685712 0.000000
0.683376 0.697853 0.000000
0.672414 0.683990 0.000000
0.557147 0.529227 0.000000
0.554161 0.540325 0.000000
0.546244 0.533101 0.000000
0.391911 0.394487 0.000000
0.387591 0.383772 0.000000
0.385780 0.368800 0.000000
0.671617 0.628861 0.000000
0.664093 0.637808 0.000000
0.408700 0.450928 0.000000
0.406517 0.467364 0.000000
0.394366 0.455525 0.000000
0.388841 0.472148 0.000000
0.792728 0.486062 0.000000
0.461047 0.516036 0.000000
0.460182 0.532753 0.000000
0.450617 0.523703 0.000000
0.364207 0.398120 0.000000
0.371344 0.402923 0.000000
0.362621 0.408449 0.000000
0.235276 0.413110 0.000000
0.235915 0.390376 0.000000
0.260894 0.399649 0.000000
0.564107 0.604249 0.000000
0.558497 0.625526 0.000000
0.545610 0.611482 0.000000
0.542035 0.628852 0.000000
0.441269 0.401429 0.000000
0.443649 0.385779 0.000000
0.454140 0.398188 0.000000
0.456246 0.380948 0.000000
0.531090 0.597071 0.000000
0.528592 0.618783 0.000000
0.693800 0.600685 0.000000
0.675646 0.601117 0.000000
0.688895 0.583493 0.000000
0.466943 0.412411 0.000000
0.469666 0.393398 0.000000
0.215629 0.311290 0.000000
0.236374 0.342186 0.000000
0.194357 0.347185 0.000000
0.372859 0.289727 0.000000
0.362694 0.307734 0.000000
0.346245 0.295576 0.000000
0.824768 0.656091 0.000000
0.787989 0.680173 0.000000
0.787481 0.637866 0.000000
0.763354 0.658567 0.000000
0.564845 0.587843 0.000000
0.565674 0.575091 0.000000
0.575285 0.580662 0.000000
0.591463 0.532694 0.000000
0.606735 0.524365 0.000000
0.606700 0.541268 0.000000
0.696107 0.663701 0.000000
0.695223 0.651919 0.000000
0.114270 0.553146 0.000000
0.897846 0.490106 0.000000
0.941355 0.438159 0.000000
0.491870 0.442127 0.000000
0.508682 0.433741 0.000000
0.504276 0.453072 0.000000
0.616608 0.507977 0.000000
0.629719 0.487283 0.000000
0.643435 0.510566 0.000000
0.660659 0.486926 0.000000
0.584650 0.557787 0.000000
0.582076 0.545531 0.000000
0.595086 0.552412 0.000000
0.215445 0.494211 0.000000
0.502563 0.534321 0.000000
0.493623 0.527201 0.000000
0.502900 0.523550 0.000000
0.490744 0.536689 0.000000
0.303740 0.348241 0.000000
0.312638 0.354325 0.000000
0.302746 0.359450 0.000000
0.683727 0.548378 0.000000
0.666144 0.562133 0.000000
0.663581 0.542222 0.000000
0.366098 0.324774 0.000000
0.379406 0.309842 0.000000
0.251675 0.434611 0.000000
0.214900 0.437402 0.000000
0.581091 0.493223 0.000000
0.603283 0.484739 0.000000
0.593195 0.510449 0.000000
0.429738 0.356510 0.000000
0.412970 0.350726 0.000000
0.358920 0.356811 0.000000
0.352460 0.366146 0.000000
0.347463 0.357590 0.000000
0.353794 0.402394 0.000000
0.527483 0.436280 0.000000
0.546965 0.439869 0.000000
0.535210 0.453469 0.000000
0.624606 0.790385 0.000000
0.614250 0.755688 0.000000
0.654837 0.763041 0.000000
0.384960 0.332814 0.000000
0.619946 0.597007 0.000000
0.358705 0.265521 0.000000
0.397502 0.266486 0.000000
0.377869 0.228897 0.000000
0.471169 0.372235 0.000000
0.492664 0.362648 0.000000
0.488718 0.386734 0.000000
0.431288 0.062893 0.000000
0.512348 0.074893 0.000000
0.450325 0.128772 0.000000
0.515327 0.223180 0.000000
0.538419 0.183215 0.000000
0.367912 0.509419 0.000000
0.343175 0.515399 0.000000
0.351317 0.488263 0.000000
0.593186 0.193353 0.000000
0.476496 0.230456 0.000000
0.594140 0.256114 0.000000
0.629340 0.367381 0.000000
0.659922 0.374166 0.000000
0.641019 0.397588 0.000000
0.669525 0.412603 0.000000
0.510665 0.591750 0.000000
0.493263 0.584115 0.000000
0.507476 0.576852 0.000000
0.492575 0.790205 0.000000
0.516533 0.753914 0.000000
0.493265 0.606545 0.000000
0.794852 0.435952 0.000000
0.797754 0.379724 0.000000
0.755728 0.420083 0.000000
0.528549 0.642034 0.000000
0.507334 0.653897 0.000000
0.509532 0.626562 0.000000
0.580705 0.748031 0.000000
0.605192 0.727758 0.000000
0.748472 0.635779 0.000000
0.742539 0.660255 0.000000
0.323194 0.421808 0.000000
0.325468 0.445306 0.000000
0.301700 0.435431 0.000000
0.295276 0.460827 0.000000
0.622421 0.457821 0.000000
0.642814 0.468538 0.000000
0.320303 0.468200 0.000000
[...]
POINT_DATA 858
SCALARS UX float 1
LOOKUP_TABLE default
-0.000000
0.000000
0.000717
-0.003007
-0.002093
0.001082
0.000000
-0.000000
0.000000
-0.000000
-0.000000
0.000000
0.000000
0.000000
-0.000000
0.000899
0.001539
0.002109
0.002650
0.003024
0.003007
0.002298
0.001462
0.000914
0.000155
-0.000308
-0.000705
-0.000889
-0.001170
-0.001493
-0.001861
-0.002237
-0.002596
-0.003139
-0.003379
-0.003716
-0.004055
-0.004266
-0.004041
-0.003139
-0.002042
-0.001069
-0.002235
-0.002267
-0.002211
-0.002149
-0.002066
-0.001963
-0.001878
-0.001790
-0.001707
-0.001628
-0.001564
-0.001496
-0.001421
-0.001347
-0.001285
-0.001226
-0.001161
-0.001098
-0.001037
-0.000983
-0.000927
-0.000873
-0.000816
-0.000757
-0.000703
-0.000652
-0.000598
-0.000544
-0.000488
-0.000427
-0.000364
-0.000309
-0.000246
-0.000184
-0.000125
-0.000056
0.000016
0.000086
0.000148
0.000226
0.000311
0.000388
0.000470
0.000564
0.000663
0.000768
0.000861
0.000963
0.001068
0.001170
0.001245
0.001276
0.001255
-0.000637
-0.000615
-0.000888
-0.000821
-0.001772
-0.001930
-0.001610
-0.000524
-0.000602
-0.000306
-0.001725
-0.001724
-0.001982
-0.000378
0.000704
0.000597
0.000713
-0.002048
0.000592
-0.002058
-0.002187
-0.003679
-0.003811
-0.003709
-0.003603
0.000011
0.000064
-0.000094
0.000005
-0.000298
-0.000071
0.000134
0.000267
0.000353
-0.000341
0.000605
0.000706
0.000755
0.000544
0.000487
0.000486
-0.000511
-0.000644
-0.000378
0.000371
0.000356
-0.000551
-0.001313
-0.001456
-0.001269
-0.001679
-0.001613
-0.001870
0.000978
0.000853
0.001157
-0.003259
-0.003231
-0.003430
-0.000166
-0.000193
-0.000431
0.001776
0.001889
0.002092
-0.001292
-0.001367
-0.001489
0.000019
0.000188
0.000179
-0.001302
-0.000930
-0.000819
0.001275
0.001495
-0.000829
-0.001691
-0.001822
-0.001842
-0.001671
0.001551
0.001233
-0.001769
-0.001771
-0.001579
0.001129
0.001022
0.000816
-0.001475
-0.000274
-0.000287
-0.000470
0.000872
0.000262
0.000050
0.000232
-0.003075
-0.002848
-0.003119
-0.003684
-0.003923
0.001128
0.001393
0.002026
0.002344
0.002274
0.000029
0.000181
-0.000127
-0.000066
0.001166
0.000081
-0.002503
-0.002349
-0.002609
0.001526
0.001571
0.000809
0.000548
0.000179
-0.003454
-0.003493
-0.003287
0.000829
0.000736
0.000198
0.000512
0.000299
0.000064
0.000005
-0.001180
-0.001135
-0.000975
0.001552
0.001258
-0.001778
-0.001987
-0.002085
-0.002244
0.002161
-0.001568
-0.001673
-0.001742
-0.001964
-0.001864
-0.002170
-0.003537
-0.003470
-0.003463
-0.000673
-0.000845
-0.000957
-0.001024
-0.000379
-0.000285
-0.000205
-0.000157
-0.001099
-0.001156
0.002006
0.001777
0.001927
-0.000106
-0.000044
-0.002350
-0.002931
-0.003116
-0.000642
-0.000814
-0.000802
0.002184
0.001728
0.002360
0.002022
-0.000496
-0.000296
-0.000152
0.000821
0.001022
0.000978
0.001656
0.001855
-0.003758
0.002619
0.002660
0.000052
0.000253
0.000151
0.001122
0.001195
0.001340
0.001403
0.000463
0.000574
0.000732
-0.003426
-0.001063
-0.001141
-0.000895
-0.001295
-0.002722
-0.002631
-0.002963
0.001759
0.001622
0.001574
-0.000908
-0.000697
-0.003427
-0.003570
0.000815
0.001004
0.000912
-0.000366
-0.000520
-0.001389
-0.001690
-0.001664
-0.002285
0.000411
0.000558
0.000457
-0.000644
-0.000589
-0.000476
-0.000747
0.000703
-0.000578
-0.000441
-0.000395
-0.000025
0.000122
0.000115
-0.000060
-0.000016
-0.000118
0.000042
0.000075
-0.002463
-0.002628
-0.002610
0.000247
-0.000088
0.000390
0.000865
0.001039
0.001021
0.001219
-0.001310
-0.001468
-0.001300
-0.001238
-0.001134
-0.001479
0.001966
0.001741
0.001698
-0.001157
-0.001321
-0.001332
-0.000753
-0.000551
0.002355
0.001952
-0.002890
-0.002865
-0.003091
-0.003065
0.001085
0.001236
-0.002874
0.000104
-0.000146
-0.000165
-0.000212
-0.003295
-0.003465
-0.003963
-0.003535
-0.003067
-0.003054
-0.001390
-0.001406
0.001801
0.001959
-0.003117
-0.003036
-0.003591
-0.003194
-0.003467
-0.003789
-0.000693
-0.002464
-0.002257
-0.002352
-0.002287
0.000057
0.000133
-0.003228
0.001948
0.002337
0.001879
-0.002900
-0.002902
-0.003093
-0.000522
-0.000539
-0.000384
-0.002139
-0.002126
-0.002302
-0.000705
0.002018
-0.000562
-0.000759
-0.002658
-0.001279
-0.001055
0.000099
0.000193
0.000234
-0.000595
-0.000738
0.002455
-0.001614
-0.001836
-0.001502
-0.001640
-0.001612
-0.001619
0.002498
0.001639
-0.001393
0.001480
0.001445
0.001201
-0.001906
-0.000302
-0.000372
-0.000258
-0.000049
0.000505
-0.002292
-0.002308
-0.000749
0.000320
0.000536
-0.002831
-0.002815
-0.000829
-0.000214
0.000073
-0.000416
-0.002376
-0.002592
-0.001522
-0.001500
0.001506
0.001619
-0.002822
-0.002517
-0.002644
0.002418
-0.002684
0.000094
-0.000172
-0.000011
0.001337
0.001536
-0.000157
-0.003342
-0.003078
-0.000058
-0.000571
-0.000242
-0.000166
-0.003401
-0.002453
-0.003573
-0.002286
-0.002734
-0.002806
-0.002521
0.002304
0.002371
0.002189
0.000459
0.000679
-0.001914
-0.001881
-0.000425
-0.000264
0.002566
0.002496
-0.001756
0.001867
0.002146
-0.002619
-0.000190
-0.000270
-0.002219
-0.002155
-0.002440
-0.002291
-0.002466
-0.002159
-0.002099
0.001326
0.001368
0.001634
-0.003963
0.000250
0.000942
0.000513
0.000628
-0.000690
-0.000702
0.002340
0.002655
0.002642
0.002831
-0.000012
-0.001308
-0.001023
-0.000361
0.001190
0.001192
0.001646
0.001542
-0.001287
-0.001101
0.000059
0.000062
-0.000088
0.000231
-0.000796
-0.000867
-0.000690
0.000280
-0.001076
0.001870
0.002149
-0.001280
-0.000920
-0.001285
0.000502
0.000373
-0.001114
0.000432
-0.003179
-0.002857
-0.003347
0.000430
0.000180
-0.003311
-0.003262
-0.003122
-0.001940
-0.002006
0.002173
0.002338
-0.001979
-0.001929
-0.001802
-0.000305
-0.000789
-0.001059
0.000029
-0.000160
-0.002948
-0.001374
-0.001342
0.000738
0.000248
-0.000685
-0.000857
-0.000930
-0.000264
-0.000825
-0.000769
0.001960
-0.001195
-0.000679
-0.000567
-0.000750
-0.002290
-0.002420
-0.002427
0.000012
-0.001871
0.000353
0.000780
-0.000966
-0.001135
-0.001512
-0.000318
-0.000255
-0.000480
0.000455
0.000378
-0.002806
-0.002865
0.000887
0.000626
0.000777
0.001190
0.000296
-0.001505
-0.002002
0.000648
-0.002103
-0.002143
0.000382
-0.002290
-0.001409
0.002016
0.001773
0.000321
0.002608
-0.003100
0.000645
-0.001472
-0.001187
-0.001026
-0.000415
-0.002002
-0.001326
-0.002446
0.000541
0.000079
0.000186
-0.000282
0.001335
0.001417
-0.000660
-0.000475
-0.000410
-0.001238
-0.000992
-0.001664
-0.001011
-0.001022
-0.000150
-0.000047
-0.000262
-0.000695
-0.000752
0.000918
0.000815
0.000863
-0.001860
0.000314
0.001480
0.000532
0.000701
0.000680
-0.000757
0.000690
0.000914
-0.000424
0.000699
0.000721
0.000205
-0.001650
-0.001779
-0.001484
-0.001752
0.000958
0.000816
0.001186
-0.002495
0.000689
-0.001524
-0.000541
-0.000555
-0.001568
-0.000908
0.001541
-0.002175
-0.002151
-0.001996
-0.000366
-0.002333
-0.000482
-0.000583
-0.000359
-0.002331
-0.002077
-0.001119
-0.000218
-0.000962
-0.000824
-0.000925
0.002453
0.002401
-0.001650
-0.000907
-0.001895
-0.000531
0.001388
0.000367
0.001089
0.000963
-0.000446
0.002300
-0.002413
-0.002269
-0.001153
-0.001569
-0.000902
-0.001085
-0.000850
-0.002025
-0.002084
-0.000658
-0.000738
-0.001789
-0.002001
-0.001155
-0.000547
-0.002115
-0.000966
-0.002768
-0.001156
-0.001107
-0.001418
-0.001378
-0.000194
0.000354
0.000488
-0.001283
-0.001309
-0.001464
-0.000213
0.001034
-0.000242
-0.000080
-0.000151
0.000187
0.000217
-0.000204
0.000337
-0.001941
-0.001757
-0.003300
0.000837
-0.001878
-0.000786
-0.000076
-0.000502
-0.002824
-0.000315
-0.000301
-0.000387
0.000462
0.000652
-0.002616
-0.002939
-0.000541
0.002183
-0.000585
0.000983
0.000804
-0.003595
-0.003009
-0.002668
0.001920
0.001743
-0.001241
-0.001210
-0.001509
-0.000590
-0.000655
0.001677
-0.000183
-0.001055
0.001654
-0.000202
-0.002539
-0.003329
-0.000101
-0.000541
-0.000360
-0.000043
0.000202
0.001323
0.000406
-0.001676
-0.001851
0.000830
-0.000580
-0.002395
-0.002271
-0.002603
0.000915
0.001031
-0.002506
0.000261
0.000870
-0.002004
0.001508
0.001054
-0.002174
-0.002384
0.000938
-0.002695
-0.002664
-0.001456
-0.001072
-0.001401
-0.001538
-0.000783
-0.000388
0.001479
-0.001700
-0.001505
-0.002064
0.000189
-0.001576
-0.000781
-0.000681
0.000640
0.000555
-0.001532
-0.001637
-0.001902
0.000117
-0.001763
0.000839
-0.001755
0.000522
0.000351
0.000480
0.000617
0.000074
-0.000095
0.000357
-0.000988
-0.000694
-0.000091
-0.000455
-0.001842
-0.000832
-0.001030
-0.000901
-0.002473
-0.001340
-0.001229
0.000555
0.000528
-0.000905
0.000449
-0.000222
-0.001018
-0.001041
0.000545
0.000197
-0.000894
-0.001924
-0.001813
0.000400
-0.000013
SCALARS UY float 1
LOOKUP_TABLE default
-0.000000
-0.000000
-0.010000
-0.010000
-0.002057
-0.007644
-0.000000
-0.000000
-0.000000
-0.000000
-0.000000
-0.000000
-0.000000
-0.000000
-0.000000
-0.001325
-0.002359
-0.003287
-0.004088
-0.004737
-0.005389
-0.006044
-0.007210
-0.008511
-0.010000
-0.010000
-0.010000
-0.010000
-0.010000
-0.010000
-0.010000
-0.010000
-0.010000
-0.008874
-0.007833
-0.006878
-0.006045
-0.005341
-0.004692
-0.004071
-0.002951
-0.001646
-0.001957
-0.001958
-0.002066
-0.002173
-0.002306
-0.002461
-0.002596
-0.002732
-0.002864
-0.002992
-0.003104
-0.003217
-0.003338
-0.003456
-0.003562
-0.003665
-0.003774
-0.003880
-0.003985
-0.004080
-0.004176
-0.004271
-0.004370
-0.004471
-0.004567
-0.004659
-0.004755
-0.004849
-0.004946
-0.005048
-0.005153
-0.005248
-0.005354
-0.005457
-0.005557
-0.005670
-0.005788
-0.005902
-0.006013
-0.006136
-0.006265
-0.006384
-0.006512
-0.006657
-0.006804
-0.006964
-0.007107
-0.007263
-0.007418
-0.007575
-0.007696
-0.007771
-0.007789
-0.006095
-0.006267
-0.006397
-0.006626
-0.001904
-0.001894
-0.001640
-0.003441
-0.003319
-0.003162
-0.008856
-0.009390
-0.008802
-0.002953
-0.003884
-0.003747
-0.003630
-0.009238
-0.003511
-0.003096
-0.003007
-0.004335
-0.004843
-0.004206
-0.004804
-0.001361
-0.001652
-0.001498
-0.008403
-0.008483
-0.008213
-0.000412
-0.000597
-0.000995
-0.008224
-0.002918
-0.002850
-0.003148
-0.002582
-0.003661
-0.003860
-0.002624
-0.002453
-0.002276
-0.003829
-0.003617
-0.002172
-0.005541
-0.005541
-0.005377
-0.003711
-0.003817
-0.004004
-0.006611
-0.006497
-0.006229
-0.004620
-0.005052
-0.004663
-0.003850
-0.004069
-0.004203
-0.004366
-0.004181
-0.004803
-0.008058
-0.008239
-0.007919
-0.003749
-0.001659
-0.001355
-0.005264
-0.002673
-0.002778
-0.006454
-0.006090
-0.002383
-0.007080
-0.007129
-0.006820
-0.007364
-0.006412
-0.006819
-0.004655
-0.004477
-0.004400
-0.005503
-0.005856
-0.005799
-0.004165
-0.006896
-0.007164
-0.007210
-0.006243
-0.003993
-0.004114
-0.003848
-0.003480
-0.003542
-0.003852
-0.005288
-0.005316
-0.005242
-0.005186
-0.003634
-0.003893
-0.004222
-0.003942
-0.006904
-0.007330
-0.006949
-0.005960
-0.004260
-0.003283
-0.003315
-0.003667
-0.007493
-0.007318
-0.008289
-0.009154
-0.009154
-0.005850
-0.005279
-0.005463
-0.008122
-0.007994
-0.008352
-0.008327
-0.004791
-0.005123
-0.005002
-0.002793
-0.002552
-0.002207
-0.006727
-0.007068
-0.004296
-0.004701
-0.004499
-0.004829
-0.004493
-0.005434
-0.005740
-0.005608
-0.003214
-0.003286
-0.003538
-0.004017
-0.003794
-0.003783
-0.006779
-0.007161
-0.006935
-0.007192
-0.002717
-0.002458
-0.002646
-0.002403
-0.006695
-0.007025
-0.005968
-0.006007
-0.005667
-0.002866
-0.002591
-0.003071
-0.003365
-0.003551
-0.001112
-0.001211
-0.001104
-0.006208
-0.006486
-0.006099
-0.006340
-0.006401
-0.006044
-0.006110
-0.004708
-0.004555
-0.004847
-0.007411
-0.007124
-0.005753
-0.004578
-0.004144
-0.003309
-0.003166
-0.003472
-0.004314
-0.004063
-0.004413
-0.004152
-0.005322
-0.005021
-0.005116
-0.005000
-0.005563
-0.005466
-0.005276
-0.005705
-0.002418
-0.002391
-0.002764
-0.005069
-0.005257
-0.004934
-0.001404
-0.001300
-0.004238
-0.004332
-0.004049
-0.003961
-0.004321
-0.002032
-0.001913
-0.001996
-0.002294
-0.002077
-0.003449
-0.003214
-0.003281
-0.003451
-0.009032
-0.008863
-0.008890
-0.001584
-0.006132
-0.000961
-0.001039
-0.000810
-0.002324
-0.002268
-0.002535
-0.000232
-0.000313
-0.000491
-0.001142
-0.000946
-0.005385
-0.005413
-0.005068
-0.001124
-0.001080
-0.001604
-0.002702
-0.002863
-0.003053
-0.003302
-0.006619
-0.006501
-0.006386
-0.008632
-0.008442
-0.006805
-0.003904
-0.003277
-0.003634
-0.007338
-0.007413
-0.007091
-0.008673
-0.008633
-0.006202
-0.006452
-0.004014
-0.004411
-0.004243
-0.004607
-0.003673
-0.003867
-0.004735
-0.000611
-0.000381
-0.000662
-0.000561
-0.003720
-0.003927
-0.004626
-0.003918
-0.006058
-0.005560
-0.009595
-0.009118
-0.005373
-0.005315
-0.004867
-0.005230
-0.006381
-0.006508
-0.007078
-0.006477
-0.001132
-0.006846
-0.007108
-0.007324
-0.006801
-0.006647
-0.006735
-0.007030
-0.002975
-0.003574
-0.006344
-0.007093
-0.006615
-0.007690
-0.000966
-0.001099
-0.000787
-0.006566
-0.006825
-0.006501
-0.001357
-0.003319
-0.002904
-0.002951
-0.004038
-0.001637
-0.001734
-0.002012
-0.001932
-0.002210
-0.009084
-0.009227
-0.005890
-0.008593
-0.008038
-0.008369
-0.006579
-0.006345
-0.007964
-0.005813
-0.002720
-0.006168
-0.003162
-0.003411
-0.002878
-0.008394
-0.000675
-0.000807
-0.000583
-0.002005
-0.001519
-0.009285
-0.008646
-0.003099
-0.000567
-0.001084
-0.003435
-0.003391
-0.001485
-0.008401
-0.007896
-0.008760
-0.003921
-0.004318
-0.007082
-0.007404
-0.004566
-0.004430
-0.007669
-0.007583
-0.006994
-0.004728
-0.004718
-0.008512
-0.008629
-0.008190
-0.003751
-0.004030
-0.000433
-0.003544
-0.003304
-0.000179
-0.001021
-0.000441
-0.000418
-0.003702
-0.005712
-0.004011
-0.005628
-0.006482
-0.005987
-0.006381
-0.006290
-0.005992
-0.006501
-0.005499
-0.005432
-0.005633
-0.005828
-0.007423
-0.007681
-0.005551
-0.005901
-0.005425
-0.004854
-0.005271
-0.005840
-0.000897
-0.000743
-0.008236
-0.007852
-0.004518
-0.004594
-0.004810
-0.004312
-0.007538
-0.005622
-0.005880
-0.005632
-0.005912
-0.005600
-0.005160
-0.007527
-0.007714
-0.002093
-0.001869
-0.006120
-0.005660
-0.005871
-0.005251
-0.000646
-0.001415
-0.001295
-0.008752
-0.004949
-0.004623
-0.006675
-0.006604
-0.006846
-0.006386
-0.002921
-0.002740
-0.003172
-0.002817
-0.009652
-0.009300
-0.009352
-0.002522
-0.009542
-0.006896
-0.006629
-0.001673
-0.001299
-0.001360
-0.003039
-0.002984
-0.001246
-0.002751
-0.003186
-0.002830
-0.003417
-0.007335
-0.007691
-0.003992
-0.004324
-0.003023
-0.006515
-0.006622
-0.005713
-0.005627
-0.006926
-0.006282
-0.006573
-0.006423
-0.005023
-0.005260
-0.007552
-0.007976
-0.004980
-0.002820
-0.002629
-0.008070
-0.008408
-0.005949
-0.006196
-0.006082
-0.004315
-0.009079
-0.008883
-0.006918
-0.002096
-0.007410
-0.007691
-0.007670
-0.005953
-0.005989
-0.006192
-0.001795
-0.004161
-0.008123
-0.007815
-0.008878
-0.009042
-0.001444
-0.003337
-0.003423
-0.003563
-0.005813
-0.005711
-0.005378
-0.005606
-0.002438
-0.001963
-0.001962
-0.003578
-0.007121
-0.005784
-0.003960
-0.001501
-0.006265
-0.005892
-0.002246
-0.006233
-0.005923
-0.006551
-0.006741
-0.001712
-0.005165
-0.003257
-0.003166
-0.007687
-0.001748
-0.001733
-0.000878
-0.002652
-0.001871
-0.003749
-0.008153
-0.008744
-0.008233
-0.008934
-0.007254
-0.003621
-0.003158
-0.005648
-0.005784
-0.005847
-0.005685
-0.006827
-0.001858
-0.001846
-0.003467
-0.003595
-0.003736
-0.003850
-0.003747
-0.003352
-0.003475
-0.002993
-0.007600
-0.003426
-0.002236
-0.002279
-0.002613
-0.002307
-0.005818
-0.005685
-0.005459
-0.003704
-0.004516
-0.004299
-0.007898
-0.005928
-0.005938
-0.002465
-0.006155
-0.002023
-0.001580
-0.002058
-0.008104
-0.003360
-0.002448
-0.005536
-0.005415
-0.006060
-0.008586
-0.007225
-0.005419
-0.005198
-0.005287
-0.006682
-0.005332
-0.004088
-0.007050
-0.001755
-0.004191
-0.003793
-0.005942
-0.001921
-0.005934
-0.005687
-0.001895
-0.005549
-0.005108
-0.002499
-0.001732
-0.002607
-0.001653
-0.004795
-0.007784
-0.007219
-0.007097
-0.007949
-0.005277
-0.005099
-0.005094
-0.006164
-0.003936
-0.008074
-0.007744
-0.007856
-0.005817
-0.005600
-0.007935
-0.008152
-0.003453
-0.003544
-0.002987
-0.008276
-0.004977
-0.007497
-0.005056
-0.004629
-0.004736
-0.004981
-0.008746
-0.002190
-0.001981
-0.001978
-0.007794
-0.005076
-0.004844
-0.001183
-0.006762
-0.001433
-0.004792
-0.004682
-0.004386
-0.004635
-0.004591
-0.007660
-0.004970
-0.005020
-0.003578
-0.003778
-0.006050
-0.008373
-0.000821
-0.009079
-0.003109
-0.009399
-0.000931
-0.001277
-0.000686
-0.000936
-0.009218
-0.009029
-0.001217
-0.006202
-0.000884
-0.001459
-0.001326
-0.004157
-0.008328
-0.008441
-0.006549
-0.006574
-0.004378
-0.004510
-0.004685
-0.009497
-0.001266
-0.004770
-0.001685
-0.008166
-0.003889
-0.008525
-0.003201
-0.007669
-0.008605
-0.001408
-0.001518
-0.006518
-0.007713
-0.002631
-0.002485
-0.007618
-0.007298
-0.007043
-0.004017
-0.002762
-0.002873
-0.003128
-0.008033
-0.002391
-0.002593
-0.005436
-0.007144
-0.006035
-0.007108
-0.003320
-0.002950
-0.003069
-0.003650
-0.002513
-0.002974
-0.003975
-0.003122
-0.002450
-0.002341
-0.003631
-0.005917
-0.005425
-0.004782
-0.004510
-0.007160
-0.003677
-0.002515
-0.005335
-0.005408
-0.004144
-0.003996
-0.005233
-0.005131
-0.001729
-0.003063
-0.003592
-0.007056
-0.006386
-0.005974
-0.004970
-0.004686
-0.004767
-0.005269
-0.004948
-0.004041
-0.004763
-0.004000
-0.006362
-0.004393
-0.001604
-0.004950
-0.003299
-0.003610
-0.002414
-0.004204
-0.004242
-0.006117
-0.004456
-0.003339
-0.004272
-0.004456
-0.004920
-0.005091
-0.007075
-0.005300
-0.003465
-0.005450
-0.005252
-0.004149
-0.004460
SCALARS DAMAGE float 1
LOOKUP_TABLE default
0.862960
0.924169
0.855777
0.921245
0.000000
0.000000
0.853174
0.834843
0.821672
0.817661
0.834634
0.862707
0.886244
0.906185
0.919332
0.917992
0.904449
0.879763
0.846884
0.818954
0.796678
0.801903
0.822264
0.845472
0.846734
0.827152
0.811589
0.809618
0.826011
0.852613
0.881155
0.902175
0.916152
0.914882
0.900559
0.875830
0.843672
0.815949
0.796057
0.803581
0.826843
0.851142
-0.000000
0.000000
0.000000
0.000000
0.000000
0.000000
0.000000
0.000000
0.000000
0.000000
0.000000
0.000000
0.000000
0.000000
0.000000
0.000000
0.000000
0.000000
0.000000
0.000000
0.000000
0.000000
0.000000
0.000000
0.000000
0.000000
0.000000
0.000000
0.000000
0.000000
0.000000
0.000000
0.000000
0.000000
0.000000
0.000000
0.000000
0.000000
0.000000
0.000000
0.000000
0.000000
0.000000
0.000000
0.000000
0.000000
0.000000
0.000000
0.000000
0.000000
0.000000
0.000000
-0.000000
0.089932
0.101992
0.151351
0.166648
0.068410
0.049316
0.117400
0.091464
0.091607
0.148622
0.813876
0.848357
0.837496
0.160455
0.273902
0.266362
0.323059
0.867213
0.306190
0.053301
0.062197
0.675216
0.751204
0.722847
0.688595
0.639700
0.579148
0.552148
0.269791
0.360860
0.256075
0.864003
0.874392
0.838032
0.322040
0.448386
0.512785
0.452287
0.516892
0.249506
0.221040
0.177036
0.174649
0.258194
0.199234
0.223424
0.235092
0.130424
0.153696
0.111662
0.049543
0.048637
0.090843
0.050859
0.044521
0.106003
0.534398
0.606617
0.607802
0.106572
0.086761
0.050048
0.582589
0.669754
0.604838
0.591873
0.659944
0.623644
0.140579
0.632122
0.712801
0.107012
0.108224
0.112793
0.103443
0.172132
0.150640
0.484799
0.545338
0.476014
0.549728
0.149406
0.067258
0.124256
0.111158
0.081873
0.166381
0.117712
0.091645
0.054583
0.118207
0.148727
0.181789
0.065671
0.159071
0.114322
0.167951
0.245126
0.204692
0.313808
0.755807
0.793752
0.194535
0.258216
0.789714
0.810295
0.765396
0.125154
0.061066
0.143573
0.097016
0.131300
0.107277
0.123099
0.104115
0.172394
0.055514
0.073495
0.829741
0.846345
0.829469
0.764494
0.713551
0.687430
0.101863
0.117129
0.247672
0.169690
0.096322
0.046307
0.047306
0.065017
0.093366
0.148116
0.121836
0.051316
0.098462
0.161896
0.159476
0.229138
0.697839
0.161675
0.217187
0.215159
0.050447
0.043669
0.096910
0.539358
0.516817
0.444951
0.160515
0.247542
0.235530
0.298317
0.190633
0.249183
0.236335
0.295370
0.227917
0.300484
0.302782
0.235847
0.331305
0.224732
0.290283
0.589973
0.503108
0.622119
0.428801
0.343076
0.373936
0.658869
0.584884
0.575713
0.497596
0.099340
0.048986
0.038420
0.188686
0.256981
0.205806
0.091252
0.140984
0.797192
0.791984
0.827191
0.197016
0.267094
0.196157
0.328209
0.409599
0.387302
0.476621
0.081390
0.117174
0.134028
0.658803
0.100184
0.102491
0.060452
0.143740
0.101035
0.077878
0.157722
0.400401
0.317149
0.361407
0.276869
0.363895
0.522252
0.609723
0.278818
0.356295
0.261530
0.309250
0.289002
0.111473
0.044950
0.066445
0.105628
0.305609
0.341208
0.275933
0.625784
0.548714
0.551387
0.287878
0.052772
0.500202
0.527417
0.608915
0.354618
0.423302
0.352753
0.811009
0.824252
0.776423
0.708969
0.766361