# vtk DataFile Version 2.0
Test
ASCII
DATASET POLYDATA
POINTS 858 float
0.000000 0.000000 0.000000
1.000000 0.000000 0.000000
1.000000 1.000000 0.000000
0.000000 1.000000 0.000000
0.300000 0.330000 0.000000
0.700000 0.680000 0.000000
0.100000 0.000000 0.000000
0.200000 0.000000 0.000000
0.300000 0.000000 0.000000
0.400000 0.000000 0.000000
0.500000 0.000000 0.000000
0.600000 0.000000 0.000000
0.700000 0.000000 0.000000
0.800000 0.000000 0.000000
0.900000 0.000000 0.000000
1.000000 0.100000 0.000000
1.000000 0.200000 0.000000
1.000000 0.300000 0.000000
1.000000 0.400000 0.000000
1.000000 0.500000 0.000000
1.000000 0.600000 0.000000
1.000000 0.700000 0.000000
1.000000 0.800000 0.000000
1.000000 0.900000 0.000000
0.900000 1.000000 0.000000
0.800000 1.000000 0.000000
0.700000 1.000000 0.000000
0.600000 1.000000 0.000000
0.500000 1.000000 0.000000
0.400000 1.000000 0.000000
0.300000 1.000000 0.000000
0.200000 1.000000 0.000000
0.100000 1.000000 0.000000
0.000000 0.900000 0.000000
0.000000 0.800000 0.000000
0.000000 0.700000 0.000000
0.000000 0.600000 0.000000
0.000000 0.500000 0.000000
0.000000 0.400000 0.000000
0.000000 0.300000 0.000000
0.000000 0.200000 0.000000
0.000000 0.100000 0.000000
0.307407 0.336481 0.000000
0.314815 0.342963 0.000000
0.322222 0.349444 0.000000
0.329630 0.355926 0.000000
0.337037 0.362407 0.000000
0.344444 0.368889 0.000000
0.351852 0.375370 0.000000
0.359259 0.381852 0.000000
0.366667 0.388333 0.000000
0.374074 0.394815 0.000000
0.381481 0.401296 0.000000
0.388889 0.407778 0.000000
0.396296 0.414259 0.000000
0.403704 0.420741 0.000000
0.411111 0.427222 0.000000
0.418519 0.433704 0.000000
0.425926 0.440185 0.000000
0.433333 0.446667 0.000000
0.440741 0.453148 0.000000
0.448148 0.459630 0.000000
0.455556 0.466111 0.000000
0.462963 0.472593 0.000000
0.470370 0.479074 0.000000
0.477778 0.485556 0.000000
0.485185 0.492037 0.000000
0.492593 0.498519 0.000000
0.500000 0.505000 0.000000
0.507407 0.511481 0.000000
0.514815 0.517963 0.000000
0.522222 0.524444 0.000000
0.529630 0.530926 0.000000
0.537037 0.537407 0.000000
0.544444 0.543889 0.000000
0.551852 0.550370 0.000000
0.559259 0.556852 0.000000
0.566667 0.563333 0.000000
0.574074 0.569815 0.000000
0.581481 0.576296 0.000000
0.588889 0.582778 0.000000
0.596296 0.589259 0.000000
0.603704 0.595741 0.000000
0.611111 0.602222 0.000000
0.618519 0.608704 0.000000
0.625926 0.615185 0.000000
0.633333 0.621667 0.000000
0.640741 0.628148 0.000000
0.648148 0.634630 0.000000
0.655556 0.641111 0.000000
0.662963 0.647593 0.000000
0.670370 0.654074 0.000000
0.677778 0.660556 0.000000
0.685185 0.667037 0.000000
0.692593 0.673519 0.000000
0.548037 0.570873 0.000000
0.554453 0.579695 0.000000
0.540788 0.582045 0.000000
0.550492 0.594703 0.000000
0.338797 0.350505 0.000000
0.329823 0.347064 0.000000
0.335712 0.339262 0.000000
0.451687 0.438509 0.000000
0.442642 0.430741 0.000000
0.457884 0.427703 0.000000
0.387297 0.847474 0.000000
0.374793 0.914734 0.000000
0.332869 0.847471 0.000000
0.447069 0.415163 0.000000
0.567391 0.482596 0.000000
0.554659 0.473874 0.000000
0.567453 0.464800 0.000000
0.301190 0.902112 0.000000
0.551747 0.457138 0.000000
0.356532 0.391813 0.000000
0.347986 0.386048 0.000000
0.176207 0.429241 0.000000
0.128375 0.468105 0.000000
0.136378 0.404291 0.000000
0.185621 0.475277 0.000000
0.497512 0.261165 0.000000
0.499167 0.296032 0.000000
0.469918 0.291504 0.000000
0.642232 0.687989 0.000000
0.624295 0.701188 0.000000
0.630549 0.678643 0.000000
0.647682 0.074905 0.000000
0.700945 0.096046 0.000000
0.657288 0.160421 0.000000
0.611443 0.684403 0.000000
0.559779 0.406431 0.000000
0.582162 0.394521 0.000000
0.580552 0.422827 0.000000
0.560788 0.374759 0.000000
0.541503 0.468043 0.000000
0.545465 0.480978 0.000000
0.428301 0.394826 0.000000
0.414860 0.384611 0.000000
0.432086 0.374027 0.000000
0.533961 0.477886 0.000000
0.527361 0.464336 0.000000
0.415481 0.368142 0.000000
0.484401 0.527206 0.000000
0.472984 0.524144 0.000000
0.481205 0.518972 0.000000
0.394266 0.424909 0.000000
0.401826 0.431399 0.000000
0.392742 0.434502 0.000000
0.642418 0.617836 0.000000
0.635302 0.612878 0.000000
0.644322 0.605726 0.000000
0.263646 0.464175 0.000000
0.250486 0.498376 0.000000
0.230296 0.467342 0.000000
0.491693 0.468898 0.000000
0.498004 0.479972 0.000000
0.487381 0.480785 0.000000
0.718619 0.489140 0.000000
0.756680 0.466072 0.000000
0.751564 0.516847 0.000000
0.497232 0.719177 0.000000
0.477497 0.748035 0.000000
0.465924 0.716726 0.000000
0.501292 0.467390 0.000000
0.529064 0.285755 0.000000
0.547173 0.240449 0.000000
0.474742 0.511943 0.000000
0.403118 0.392815 0.000000
0.412434 0.399392 0.000000
0.653057 0.614785 0.000000
0.659187 0.602396 0.000000
0.400247 0.379451 0.000000
0.459133 0.636583 0.000000
0.434636 0.647284 0.000000
0.440667 0.616932 0.000000
0.453650 0.664799 0.000000
0.666296 0.616100 0.000000
0.657731 0.628197 0.000000
0.420489 0.468863 0.000000
0.414183 0.459489 0.000000
0.424065 0.460120 0.000000
0.629321 0.574616 0.000000
0.630370 0.589442 0.000000
0.617226 0.584388 0.000000
0.422026 0.450877 0.000000
0.590180 0.614274 0.000000
0.596278 0.627413 0.000000
0.585881 0.628067 0.000000
0.630677 0.603443 0.000000
0.529117 0.486095 0.000000
0.517046 0.488781 0.000000
0.522040 0.477224 0.000000
0.308641 0.392803 0.000000
0.323746 0.398675 0.000000
0.304273 0.411173 0.000000
0.146020 0.514086 0.000000
0.087335 0.505198 0.000000
0.624982 0.561914 0.000000
0.643811 0.559907 0.000000
0.831909 0.406061 0.000000
0.881376 0.423788 0.000000
0.839177 0.457573 0.000000
0.509066 0.478681 0.000000
0.614792 0.620247 0.000000
0.608406 0.635616 0.000000
0.603251 0.619643 0.000000
0.640290 0.595050 0.000000
0.524731 0.497540 0.000000
0.338689 0.392113 0.000000
0.347423 0.395876 0.000000
0.340116 0.407012 0.000000
0.686563 0.659098 0.000000
0.682555 0.651347 0.000000
0.934704 0.856355 0.000000
0.940546 0.930926 0.000000
0.863552 0.916423 0.000000
0.172107 0.566287 0.000000
0.188105 0.516551 0.000000
0.221330 0.532895 0.000000
0.683914 0.680068 0.000000
0.692945 0.685712 0.000000
0.683376 0.697853 0.000000
0.672414 0.683990 0.000000
0.557147 0.529227 0.000000
0.554161 0.540325 0.000000
0.546244 0.533101 0.000000
0.391911 0.394487 0.000000
0.387591 0.383772 0.000000
0.385780 0.368800 0.000000
0.671617 0.628861 0.000000
0.664093 0.637808 0.000000
0.408700 0.450928 0.000000
0.406517 0.467364 0.000000
0.394366 0.455525 0.000000
0.388841 0.472148 0.000000
0.792728 0.486062 0.000000
0.461047 0.516036 0.000000
0.460182 0.532753 0.000000
0.450617 0.523703 0.000000
0.364207 0.398120 0.000000
0.371344 0.402923 0.000000
0.362621 0.408449 0.000000
0.235276 0.413110 0.000000
0.235915 0.390376 0.000000
0.260894 0.399649 0.000000
0.564107 0.604249 0.000000
0.558497 0.625526 0.000000
0.545610 0.611482 0.000000
0.542035 0.628852 0.000000
0.441269 0.401429 0.000000
0.443649 0.385779 0.000000
0.454140 0.398188 0.000000
0.456246 0.380948 0.000000
0.531090 0.597071 0.000000
0.528592 0.618783 0.000000
0.693800 0.600685 0.000000
0.675646 0.601117 0.000000
0.688895 0.583493 0.000000
0.466943 0.412411 0.000000
0.469666 0.393398 0.000000
0.215629 0.311290 0.000000
0.236374 0.342186 0.000000
0.194357 0.347185 0.000000
0.372859 0.289727 0.000000
0.362694 0.307734 0.000000
0.346245 0.295576 0.000000
0.824768 0.656091 0.000000
0.787989 0.680173 0.000000
0.787481 0.637866 0.000000
0.763354 0.658567 0.000000
0.564845 0.587843 0.000000
0.565674 0.575091 0.000000
0.575285 0.580662 0.000000
0.591463 0.532694 0.000000
0.606735 0.524365 0.000000
0.606700 0.541268 0.000000
0.696107 0.663701 0.000000
0.695223 0.651919 0.000000
0.114270 0.553146 0.000000
0.897846 0.490106 0.000000
0.941355 0.438159 0.000000
0.491870 0.442127 0.000000
0.508682 0.433741 0.000000
0.504276 0.453072 0.000000
0.616608 0.507977 0.000000
0.629719 0.487283 0.000000
0.643435 0.510566 0.000000
0.660659 0.486926 0.000000
0.584650 0.557787 0.000000
0.582076 0.545531 0.000000
0.595086 0.552412 0.000000
0.215445 0.494211 0.000000
0.502563 0.534321 0.000000
0.493623 0.527201 0.000000
0.502900 0.523550 0.000000
0.490744 0.536689 0.000000
0.303740 0.348241 0.000000
0.312638 0.354325 0.000000
0.302746 0.359450 0.000000
0.683727 0.548378 0.000000
0.666144 0.562133 0.000000
0.663581 0.542222 0.000000
0.366098 0.324774 0.000000
0.379406 0.309842 0.000000
0.251675 0.434611 0.000000
0.214900 0.437402 0.000000
0.581091 0.493223 0.000000
0.603283 0.484739 0.000000
0.593195 0.510449 0.000000
0.429738 0.356510 0.000000
0.412970 0.350726 0.000000
0.358920 0.356811 0.000000
0.352460 0.366146 0.000000
0.347463 0.357590 0.000000
0.353794 0.402394 0.000000
0.527483 0.436280 0.000000
0.546965 0.439869 0.000000
0.535210 0.453469 0.000000
0.624606 0.790385 0.000000
0.614250 0.755688 0.000000
0.654837 0.763041 0.000000
0.384960 0.332814 0.000000
0.619946 0.597007 0.000000
0.358705 0.265521 0.000000
0.397502 0.266486 0.000000
0.377869 0.228897 0.000000
0.471169 0.372235 0.000000
0.492664 0.362648 0.000000
0.488718 0.386734 0.000000
0.431288 0.062893 0.000000
0.512348 0.074893 0.000000
0.450325 0.128772 0.000000
0.515327 0.223180 0.000000
0.538419 0.183215 0.000000
0.367912 0.509419 0.000000
0.343175 0.515399 0.000000
0.351317 0.488263 0.000000
0.593186 0.193353 0.000000
0.476496 0.230456 0.000000
0.594140 0.256114 0.000000
0.629340 0.367381 0.000000
0.659922 0.374166 0.000000
0.641019 0.397588 0.000000
0.669525 0.412603 0.000000
0.510665 0.591750 0.000000
0.493263 0.584115 0.000000
0.507476 0.576852 0.000000
0.492575 0.790205 0.000000
0.516533 0.753914 0.000000
0.493265 0.606545 0.000000
0.794852 0.435952 0.000000
0.797754 0.379724 0.000000
0.755728 0.420083 0.000000
0.528549 0.642034 0.000000
0.507334 0.653897 0.000000
0.509532 0.626562 0.000000
0.580705 0.748031 0.000000
0.605192 0.727758 0.000000
0.748472 0.635779 0.000000
0.742539 0.660255 0.000000
0.323194 0.421808 0.000000
0.325468 0.445306 0.000000
0.301700 0.435431 0.000000
0.295276 0.460827 0.000000
0.622421 0.457821 0.000000
0.642814 0.468538 0.000000
0.320303 0.468200 0.000000
[...]
POINT_DATA 858
SCALARS UX float 1
LOOKUP_TABLE default
-3976128507167.298828
-2528858166905.439941
-1844184209091.233398
-3233523288859.661133
-3070011868075.292480
-2272435105045.293457
-3807560505060.373047
-3641744661414.624023
-3480298038342.533203
-3326949270322.011719
-3178536811333.147461
-3034605256945.541016
-2898532333021.387695
-2769753422800.318848
-2646637118300.956055
-2412959915440.619629
-2299433923965.499512
-2196205230826.050781
-2104571958800.994873
-2025039340686.033203
-1960494967071.090820
-1908725630737.948975
-1872960227277.157227
-1851236272572.986328
-1956537809199.785645
-2073858416356.848633
-2196205252094.144531
-2326981341871.158203
-2463336396176.127930
-2604942576750.922852
-2751009191456.554688
-2906277129122.357422
-3067285200300.658203
-3242072113662.867676
-3261035517565.891113
-3296150252117.075684
-3345853654119.515625
-3409242271350.329102
-3488478028278.176270
-3581469213378.300293
-3693418360569.530762
-3825051073463.993652
-3052724768967.560547
-3035550841975.463867
-3018468349997.514160
-3001500886877.975098
-2984640604536.569824
-2967871366798.481934
-2951209394305.017578
-2934651331222.495605
-2918178125945.311035
-2901807428204.450195
-2885535012530.614258
-2869372619142.364258
-2853312059706.794434
-2837337650780.727539
-2821452295117.606445
-2805665306660.862793
-2789968056058.903320
-2774378375645.819336
-2758873132752.763672
-2743462133254.165527
-2728141269179.660645
-2712915217818.556641
-2697774701498.914551
-2682721494641.957520
-2667753928774.080078
-2652887714434.160156
-2638115620772.659180
-2623425983782.526855
-2608835626631.355469
-2594330557964.667969
-2579905349949.024414
-2565573016307.867188
-2551333902168.662598
-2537176116296.363770
-2523105971315.678711
-2509123283088.103027
-2495232572884.670898
-2481425408015.737793
-2467704781151.747070
-2454083332701.519531
-2440546263119.288574
-2427089222424.172363
-2413719364809.946289
-2400434946852.830566
-2387249783211.144043
-2374135290968.424316
-2361109639761.661621
-2348174076732.238281
-2335335736278.887207
-2322565347122.670410
-2309894610138.131836
-2297322319202.501953
-2284843645452.451660
-2529357338676.970215
-2515378294287.693359
-2532321766021.961914
-2511799176249.371094
-2993015503394.629395
-3009455703539.719727
-3008134939937.654297
-2755113471372.284180
-2774051544785.022461
-2755225087018.990234
-2639735506855.813477
-2645557092253.100098
-2719435974168.711426
-2780693979016.854492
-2563484523502.052246
-2586978914223.999023
-2576864712413.049316
-2757824304286.842285
-2603702487759.690918
-2929894549650.085938
-2947422063801.760742
-3172809008947.580078
-3219281640207.216309
-3257409462061.297363
-3122290164636.109863
-2856585873254.734863
-2818516620802.757812
-2863181628932.672363
-2342609150676.468750
-2360034901132.623535
-2362046738931.435547
-2872501122346.666992
-2777455961551.145508
-2756362916454.956055
-2384353321816.705566
-2634268583126.950195
-2614879635643.364746
-2592969541121.210938
-2660511310307.210938
-2609014350940.240234
-2593961107646.895020
-2824339436309.093262
-2852280171749.382812
-2837309109686.183105
-2611722829841.678711
-2630893993690.248047
-2866075886705.620117
-2644188862376.378906
-2662070053397.243164
-2654229006242.985352
-2847407925714.225586
-2831284595379.659180
-2841787661010.293457
-2377597301820.988281
-2389561534075.115723
-2381934118618.176270
-3009568385713.301758
-3004430526053.145996
-3058379225535.536133
-2675996503853.943359
-2659020897567.596680
-2673000788950.164062
-2364046580739.109863
-2334458992261.040527
-2303249578461.898926
-2523074426319.698242
-2539429388022.721191
-2567725964492.572266
-2663982297712.055176
-2788177671423.505371
-2811241219343.702148
-2668031821575.015625
-2861835306737.866699
-2842891224696.563477
-2365576713168.858398
-2364717481010.061523
-2877623594257.069824
-2614025796256.318848
-2643086086532.099121
-2650426473546.732422
-2607724338417.756348
-2347861060582.963867
-2352207960145.256348
-2775383046319.647461
-2791481098674.008301
-2776993171171.308105
-2419758348237.601074
-2409453321728.515137
-2429554153975.313477
-2787032798595.213867
-2447802606709.097168
-2432586187120.413574
-2445964822049.659668
-2400883884166.118652
-2612175558651.989746
-2626545055975.872070
-2628324681605.650391
-2999681202138.170898
-2972132708864.102051
-2990483501605.540039
-3157887564069.244629
-3259919032130.702637
-2433345734081.335449
-2410190170219.374023
-2292608818290.458984
-2219162611483.027344
-2241703065578.546387
-2644860947232.679199
-2412163847216.583984
-2412271583813.109375
-2427623862796.002930
-2393312375695.829102
-2609764581979.338867
-2955771810507.813477
-2939694094866.231445
-2940869899913.145020
-2299458580410.917969
-2308421736700.047852
-1931341306186.500732
-1913601239901.808105
-2002724639686.296631
-3081909899377.607422
-3089306105913.547852
-3025985076974.115723
-2292761281777.147949
-2278695933540.488770
-2285375342055.010742
-2305601486854.312988
-2544046481676.627441
-2540642792143.044434
-2556052081690.918457
-2876389812035.870117
-2891982002559.442383
-2907889906874.961426
-2334087095379.656250
-2338957065441.441406
-2805913018247.788574
-2796364130632.050293
-2822812031744.768066
-2818085890240.442871
-2275439323731.478516
-2684216480826.035645
-2674090087315.313965
-2693560706508.781250
-2913273794305.131836
-2898812423107.866211
-2906769666950.130371
-3093589732277.144531
-3112055745530.384766
-3065608612927.229980
-2488049888319.413086
-2483777292350.094727
-2508811509685.698730
-2504184115672.378906
-2800451794451.173340
-2810649838184.580078
-2785213176624.967285
-2797349909931.510254
-2536577993683.637207
-2527809080628.568848
-2321678014760.913574
-2344412957636.331543
-2338049948147.061523
-2755306349863.438477
-2767799980577.054199
-3217153704508.407227
-3155088604715.927734
-3215883862782.370605
-3002720205306.822266
-2999314792725.222656
-3035526776185.309082
-2130966538521.816406
-2163523961376.735840
-2184962343358.141357
-2203916562086.218262
-2496612286042.119141
-2503174202429.261230
-2487007823751.497559
-2496167769215.680664
-2481815191220.488770
-2470468627178.532227
-2285120817418.645020
-2292090192693.571777
-3183743194913.966797
-2148090604422.274902
-2138326837953.158691
-2696587653229.292480
-2680326895801.656738
-2670965711343.056152
-2480368571738.325684
-2478345604522.145508
-2443814240663.427246
-2438805168612.400879
-2488777572550.261230
-2500063192962.541504
-2478429352956.379883
-3061811314538.252930
-2614472390692.506836
-2631512103405.063965
-2621258481305.964355
-2629129779231.207031
-3047118547964.782227
-3028178815199.087402
-3038234008798.565918
-2366668875132.718750
-2380210392181.164062
-2396342936855.148438
-2977589882048.304199
-2972978945876.370117
-3050708639362.265137
-3105358565772.925293
-2537539450980.114258
-2514550663489.895020
-2509221227157.751953
-2856529128200.947266
-2885619475295.578613
-2957737469651.655762
-2958627683816.510254
-2973746498787.499023
-2924782204302.706543
-2652829136541.398438
-2623760316493.708008
-2628735747595.105957
-2326796772838.145508
-2351813988683.888672
-2296260792609.207031
-2942535927097.619629
-2418561132215.631836
-3048515172878.517090
-2991301245683.890625
-3060392613540.348633
-2784398471662.707031
-2763458211615.077637
-2747346986889.549316
-3189749151316.385742
-3057062786949.214844
-3075441150903.545898
-2873268392307.341309
-2887189336681.829590
-2821422548879.872559
-2853435904763.991211
-2860646851107.235840
-2802395586396.652344
-2918820454252.830078
-2732361377961.798828
-2577468284345.237793
-2532410066991.272949
-2535788833488.426758
-2486393521604.055664
-2567458616572.057129
-2595860062790.888184
-2580718101137.190918
-2504654086599.029297
-2483304091151.826172
-2582829761259.699219
-2312067477661.587891
-2356297009220.647949
-2372751254696.990723
-2515514658665.471680
-2538493826372.583008
-2549575710173.828125
-2399030260571.004883
-2374177563413.775879
-2233885686002.154297
-2228793227138.630371
-2953493234450.656250
-2931137004676.493652
-2974406478917.369141
-2964162243998.493164
-2510073885658.884766
-2475548153060.212891
-2921244861618.321777
-2908334985753.414551
-3206143502894.211914
-3040076547469.357910
-3114635197682.213867
-3272399224248.586426
-3347439419409.798340
-3341745771490.442383
-3201218746275.311035
-2967464464563.104004
-2957625627993.400391
-2529994696434.594727
-2547257763000.677246
-2355545923407.089355
-2335828491754.181641
-2974194019017.909180
-2950775907888.257812
-3137685485463.476074
-3016174648097.294434
-3151816304985.825195
-3236060907151.384766
-3088283460770.511719
-2809486330857.856445
-2756959789922.990723
-2789100156699.592773
-2761244212657.674805
-2436511880520.886719
-2424896468646.205566
-3050098143085.729492
-2283340116491.239258
-2202122394965.684082
-2323949788669.585938
-2945857149649.173340
-2930454630526.696777
-3054525892658.841309
-3116965557537.738770
-3201239866298.654297
-3156539821956.335938
-2721607329328.389648
-2718405638823.384766
-2762432474327.160156
-3151853548834.645996
-2285691429411.948730
-2804905033319.060547
-2823090023833.484375
-2922874800694.414551
-2981132948107.615723
-2953955323633.052734
-2784241479630.138184
-2770001356889.251953
-2745513737732.037109
-2277753442810.215332
-2322412144330.013184
-2230565626585.988770
-2605977119264.042969
-2658247346415.482910
-2573786831319.266602
-2618720276924.608887
-2625581182362.101562
-2600060550814.070801
-2194342952670.765381
-2368320427427.055664
-2606228290296.317383
-2422119651081.804688
-2431728783676.046875
-2488749273208.895508
-2686190032018.585449
-3115994114373.357422
-3258519166080.492676
-3210435693941.692383
-2811638860292.035156
-2694348276455.247070
-2860217083251.751953
-2823824626612.207520
-2807923450043.384277
-2704594997117.466309
-2663385288498.334473
-3440788635288.245117
-3348519224757.053223
-3115038960744.039062
-2251273172412.375488
-2190161461978.205811
-2237535991962.226074
-2897883272224.069336
-2896584942764.432129
-2581361397054.894531
-2571273378557.047363
-2413445770613.873047
-2395131205865.548828
-2948507964379.136230
-2845900516236.368164
-2864582481798.002441
-2210691260900.729004
-2888197740327.462891
-2306986237576.569336
-2294109369787.556152
-2262770161931.502930
-2456571573064.604980
-2412710662206.046387
-3327985715504.027344
-3109575383925.665039
-3100935566314.175781
-3314837604253.566406
-3497901729096.653320
-3622517249178.693359
-3485888996001.892090
-3154906609102.132324
-2810065941050.518555
-3139335455134.276367
-2778765253200.313965
-2879177944696.719727
-2895345296013.341309
-2820351435986.378906
-2270020784386.119141
-2266541939949.679688
-2255429356027.313965
-2477930864107.081055
-2461819992431.569336
-2716577495800.493652
-2698592081845.319336
-2430169028288.559570
-2405392496426.803223
-2173872606418.519775
-2143166559834.529297
-2709731802717.566895
-2349691004500.597168
-2303519059614.687012
-2845812875187.620605
-2979255111078.340332
-3046388941151.743164
-2776899130999.048340
-2744673735439.328125
-2866246633753.560059
-2841446172678.515625
-2850492662534.878418
-2847391604241.860840
-2720972035752.382812
-2396023163164.510742
-2380804831716.114258
-2368476665256.272461
-3259074926189.745605
-2488484476720.423828
-2454791274039.134277
-2361228876612.250977
-2346673886147.668945
-2888069826418.805664
-2911042965809.614746
-2082033876062.669922
-2103349874938.087158
-2018908962439.682861
-2065212560596.899658
-2975429693345.288574
-3011693340196.767090
-3006368714904.077148
-2333299369736.224121
-2441523330287.432129
-2456854600810.744629
-2244529084333.549805
-2210402528822.034180
-2553006267308.004883
-2556920774159.365723
-2728056538792.583008
-2741409935641.988281
-2726882529141.425781
-2709125969892.900391
-2295667209791.742188
-2367296730694.809082
-2278477611581.145996
-2719390363046.598145
-2422616386976.033203
-2303795913264.831543
-2284730910113.185547
-3075070123872.435547
-3072303327422.490723
-3051342206152.992188
-2648007179113.360840
-2674429477046.280273
-3034193247331.314453
-2676899088017.898926
-3038081444988.719238
-3017824976629.582031
-3067165470144.987305
-2376993931528.128418
-2374792432506.106445
-3019510111574.018066
-3008003332003.629883
-3063240807946.295410
-2677636450199.600586
-2689759951959.519531
-2303652908034.494141
-2267104079786.240723
-2682046921207.624512
-2682637410358.789062
-2648114452728.795410
-2478225380966.231445
-2633567915119.281250
-2640484740622.016113
-2391118966210.169922
-2383609907656.154297
-2932020164121.593262
-2892270566566.402344
-2905986455074.568359
-2320087164749.401367
-2323870230268.222656
-2545812614737.378906
-2544603584748.203125
-2559818188447.749023
-2643397607495.225098
-2374729169862.950684
-2384738691283.497559
-2271538827607.767578
-2935922280085.291016
-2455296899941.026855
-2430245355554.374023
-2450733501678.417969
-2767310330253.222656
-2796053348308.563477
-2796797508295.310547
-2817731416922.985352
-2827430136850.083984
-2341268043662.870117
-2333113767772.241211
-2428836524745.458008
-2466752556062.590820
-3029157690682.509277
-2740003603246.550781
-2725258932999.630371
-2737775382018.488770
-2456708635225.424316
-2469054310755.051758
-2894300608854.737793
-2907436116397.681152
-2572519831855.139160
-2651635725645.095703
-2604361643334.591797
-2490211318281.774414
-2394549148448.855469
-2648181520486.259766
-2858501283359.992676
-2637547731823.055664
-2718383425934.798340
-2739599625790.625000
-2711030803089.552246
-2761393079318.481934
-2626126238774.571777
-2305444719362.680664
-2318968303607.739258
-2748918819013.638672
-2153459237920.384277
-3015234748471.819336
-2614427826802.534668
-2563502846191.147461
-3524596066531.461914
-3368598153340.770508
-3369556105102.919922
-3545404794051.349609
-3670300439608.345703
-2918542232307.229492
-2011779374333.129883
-2056101959086.353516
-2089393873374.661621
-2138129492011.710938
-1960537665879.732178
-2439077105655.211914
-2793405447498.176758
-2549277194718.899902
-2531932390379.005371
-2610660053130.682617
-2597506950964.982422
-2614145689964.739258
-3158096801951.029297
-3109071255656.708496
-2708009215644.801270
-2684910274778.055176
-2696895549864.445801
-2734166309210.905273
-2750822453570.207520
-2552676312493.268066
-2567650692875.187012
-2573575843396.310547
-2656504102204.340332
-2652064860275.188477
-2371046527119.998047
-2673341481351.069824
-2621852153544.724609
-2632939111553.139160
-2562265124655.243164
-2446005721384.287109
-2440777986027.695801
-2718132683444.069824
-2521741531672.326660
-2534145538542.642090
-2361484234945.565918
-2657431423637.994141
-2675463170122.007324
-3141761528793.205566
-2658266434770.829590
-2545415268695.754883
-2572942606168.078613
-2473898406308.799805
-2861742267535.236328
-2596351425159.187500
-3199667353758.309082
-2564025200493.887695
-2575843503842.430176
-2636843004960.777832
-2431439930463.257812
-2268195855123.668945
-2771120031087.224121
-2781870740668.063477
-2752575304836.847168
-2466750372978.149414
-2801520277807.553223
-2688788349261.169434
-2464450090964.555176
-2880277714035.068848
-2874476898339.187988
-2876788466174.316895
-2591057490046.613281
-2846101699895.693848
-2574321551865.400879
-2580095187342.815918
-2929826671899.063477
-2226061376311.578125
-2228668942625.847656
-3283241272507.321777
-3235238032606.328125
-3399938003893.567871
-2913590424854.363770
-2424583268049.277832
-2125343540421.938965
-2048130212919.012939
-2134270123852.821533
-2406807132546.719727
-2265627987084.837891
-2825940691035.795410
-2804671578517.846680
-2578084955723.905273
-2815849935281.749023
-2453966563585.244629
-2491710866404.101074
-2455540330980.582031
-2723083427094.366699
-2744443587576.788086
-2428219231054.127441
-2426951580805.485352
-2876501819998.444824
-2890299721460.328125
-2856877485283.330566
-2399982783794.880859
-2791632824166.647949
-2483348879350.309082
-2891175322620.715332
-2709371916133.070312
-2694759080862.834961
-2706172713826.002930
-2540637786374.772949
-2820266742016.536621
-2728683412540.177734
-2693009204453.956543
-2524411293253.307129
-2685420602210.267578
-2723495543352.536133
-2929233323087.242188
-2367429470035.602539
-2900083970152.037109
-2582422705947.690918
-2597787016767.809082
-2587781977547.324219
-2564878679302.671387
-2611237858085.612305
-2258512277615.244629
-2770503967008.840820
-2742260022506.382812
-3027620340696.150879
-2549972393771.053711
-2684378324440.059082
-2422351800148.660645
-2962523437392.800781
-2215192379087.223145
-2993477013185.785156
-2108446181832.522461
-2992954630026.412109
-2939523096404.775879
-2592329484752.936035
-2487715033563.021973
-3001506425165.650879
-3145051710280.870605
-2970750855246.582520
-2296296655895.392090
-3695664274137.564453
-2457352067913.849121
-2544676946553.761230
-3437291880139.483887
-3097183711435.954102
-2948779022095.288086
-2011307565503.459473
-2093871440804.918457
-2742638684291.054688
-2726449523587.763672
-2743316866809.924316
-2202009892266.248047
-3296912428319.986816
-2384035857662.444824
-2861112601420.141602
-2474907944824.439453
-2385520786316.472656
-2170123063329.578125
-3287901203084.680664
-3181023012088.780273
-2326553993267.634766
-2941842123556.328613
-2906955963457.039062
-2451518863061.340820
-2230394680331.218750
-2453268897186.064941
-2695668826759.705566
-2609708359573.621094
-2650201647201.831543
-2230564657286.306641
-2705396870623.262695
-2979778024838.291504
-2962342632572.604004
-2972622316405.751953
-2305253113743.804688
-2532662823952.478516
-2998182316359.057129
-2499192701620.104492
-2251194879779.465820
-2707527059353.158203
-2323137893659.032715
-2524318934925.215332
-3166880353818.589355
-3125141192090.434570
-2538617799849.567871
-3065239394597.505859
-3087332080381.873047
-2801149641526.862793
-2839454220371.890625
-2924291094781.562988
-2943656748408.271973
-2765018582782.119141
-2519514857423.015625
-2389944926518.573242
-2757513554131.005371
-2759852896603.133301
-2705582256208.189941
-2648719156626.838867
-3100653564559.234863
-2604339681986.968262
-2589159056025.260254
-2554892898397.751465
-2575568106754.984863
-2698146964580.636230
-2718460113173.188965
-3024770315779.990234
-2708075600087.585449
-2863589960339.358887
-2192474636935.728271
-2646933400037.842773
-2441927144723.590332
-2524498999679.922852
-2532881620252.243652
-2512817843330.917480
-2527751292512.852539
-2570236940700.691406
-2596476667710.456543
-2679659009383.825195
-2719861806534.487305
-2463812590955.180664
-2657547287011.383789
-3048252468476.713867
-2644719256127.591797
-2819560096676.310059
-2778832242861.680664
-3012320817131.440430
-2769457978917.934570
-2754902512899.491211
-2431083941694.888672
-2545886112185.416504
-2802577984512.731934
-2568522416678.125488
-2625483880169.928223
-2668014964307.345215
-2654666477162.412109
-2382212429968.933594
-2513889041046.545410
-2790708509204.331543
-2730763877727.304688
-2730906413371.167480
-2582745773113.823730
-2602474002863.847168
SCALARS UY float 1
LOOKUP_TABLE default
0.000000
0.000000
-0.020000
-0.020000
2363671245676.396484
947380087806.637085
0.000000
0.000000
0.000000
0.000000
0.000000
0.000000
0.000000
0.000000
0.000000
2316727674107.666992
2050689271328.037598
1786857339993.441650
1527751837162.033447
1271764314332.926758
1016022576634.328247
761476273782.573730
507233833625.517456
253649996355.361816
-0.020000
-0.020000
-0.020000
-0.020000
-0.020000
-0.020000
-0.020000
-0.020000
-0.020000
396606628904.715515
792394875214.080200
1190268836460.508057
1588444150972.119629
1987242637411.625488
2386488836359.496094
2789968956955.547363
3194004253486.474121
3604939899264.653809
2333455660398.172852
2303412884640.077148
2273507542367.853027
2243787296086.682129
2214240627712.453125
2184834205585.375977
2155595358497.534668
2126519034556.250732
2097589219790.029785
2068819627026.119385
2040220827606.181396
2011760602225.891602
1983464058101.999756
1955308715937.070312
1927306962129.931885
1899471751987.780029
1871771935220.933350
1844239439014.064453
1816839183556.370605