# vtk DataFile Version 2.0
Test
ASCII
DATASET POLYDATA
POINTS 5816 float
0.000000 0.000000 0.000000
2.000000 0.000000 0.000000
2.000000 4.000000 0.000000
0.000000 4.000000 0.000000
0.000000 0.500000 0.000000
1.500000 2.000000 0.000000
2.000000 2.500000 0.000000
0.285714 0.000000 0.000000
0.571429 0.000000 0.000000
0.857143 0.000000 0.000000
1.142857 0.000000 0.000000
1.428571 0.000000 0.000000
1.714286 0.000000 0.000000
2.000000 0.275040 0.000000
2.000000 0.520628 0.000000
2.000000 0.739917 0.000000
2.000000 0.935725 0.000000
2.000000 1.110565 0.000000
2.000000 1.266683 0.000000
2.000000 1.406084 0.000000
2.000000 1.530557 0.000000
2.000000 1.641701 0.000000
2.000000 1.740944 0.000000
2.000000 1.829560 0.000000
2.000000 1.908686 0.000000
2.000000 1.979340 0.000000
2.000000 2.042428 0.000000
2.000000 2.098760 0.000000
2.000000 2.149060 0.000000
2.000000 2.193974 0.000000
2.000000 2.234078 0.000000
2.000000 2.269888 0.000000
2.000000 2.301863 0.000000
2.000000 2.330415 0.000000
2.000000 2.355908 0.000000
2.000000 2.378673 0.000000
2.000000 2.398999 0.000000
2.000000 2.417149 0.000000
2.000000 2.433355 0.000000
2.000000 2.447826 0.000000
2.000000 2.460747 0.000000
2.000000 2.472285 0.000000
2.000000 2.482587 0.000000
2.000000 2.491786 0.000000
2.000000 2.508637 0.000000
2.000000 2.519089 0.000000
2.000000 2.531737 0.000000
2.000000 2.547044 0.000000
2.000000 2.565568 0.000000
2.000000 2.587985 0.000000
2.000000 2.615113 0.000000
2.000000 2.647942 0.000000
2.000000 2.687670 0.000000
2.000000 2.735749 0.000000
2.000000 2.793931 0.000000
2.000000 2.864341 0.000000
2.000000 2.949549 0.000000
2.000000 3.052664 0.000000
2.000000 3.177450 0.000000
2.000000 3.328462 0.000000
2.000000 3.511210 0.000000
2.000000 3.732366 0.000000
1.714286 4.000000 0.000000
1.428571 4.000000 0.000000
1.142857 4.000000 0.000000
0.857143 4.000000 0.000000
0.571429 4.000000 0.000000
0.285714 4.000000 0.000000
0.000000 3.715673 0.000000
0.000000 3.453827 0.000000
0.000000 3.212685 0.000000
0.000000 2.990611 0.000000
0.000000 2.786096 0.000000
0.000000 2.597752 0.000000
0.000000 2.424300 0.000000
0.000000 2.264564 0.000000
0.000000 2.117457 0.000000
0.000000 1.981983 0.000000
0.000000 1.857220 0.000000
0.000000 1.742322 0.000000
0.000000 1.636510 0.000000
0.000000 1.539064 0.000000
0.000000 1.449323 0.000000
0.000000 1.366678 0.000000
0.000000 1.290567 0.000000
0.000000 1.220475 0.000000
0.000000 1.155925 0.000000
0.000000 1.096479 0.000000
0.000000 1.041733 0.000000
0.000000 0.991316 0.000000
0.000000 0.944886 0.000000
0.000000 0.902126 0.000000
0.000000 0.862748 0.000000
0.000000 0.826483 0.000000
0.000000 0.793086 0.000000
0.000000 0.762330 0.000000
0.000000 0.734005 0.000000
0.000000 0.707920 0.000000
0.000000 0.683898 0.000000
0.000000 0.661775 0.000000
0.000000 0.641402 0.000000
0.000000 0.622639 0.000000
0.000000 0.605360 0.000000
0.000000 0.589447 0.000000
0.000000 0.574792 0.000000
0.000000 0.561296 0.000000
0.000000 0.548868 0.000000
0.000000 0.537421 0.000000
0.000000 0.526881 0.000000
0.000000 0.517173 0.000000
0.000000 0.508233 0.000000
0.000000 0.491468 0.000000
0.000000 0.479827 0.000000
0.000000 0.463944 0.000000
0.000000 0.442273 0.000000
0.000000 0.412707 0.000000
0.000000 0.372368 0.000000
0.000000 0.317330 0.000000
0.000000 0.242238 0.000000
0.000000 0.139785 0.000000
0.005639 0.505639 0.000000
0.011278 0.511278 0.000000
0.016917 0.516917 0.000000
0.022556 0.522556 0.000000
0.028195 0.528195 0.000000
0.033835 0.533835 0.000000
0.039474 0.539474 0.000000
0.045113 0.545113 0.000000
0.050752 0.550752 0.000000
0.056391 0.556391 0.000000
0.062030 0.562030 0.000000
0.067669 0.567669 0.000000
0.073308 0.573308 0.000000
0.078947 0.578947 0.000000
0.084586 0.584586 0.000000
0.090226 0.590226 0.000000
0.095865 0.595865 0.000000
0.101504 0.601504 0.000000
0.107143 0.607143 0.000000
0.112782 0.612782 0.000000
0.118421 0.618421 0.000000
0.124060 0.624060 0.000000
0.129699 0.629699 0.000000
0.135338 0.635338 0.000000
0.140977 0.640977 0.000000
0.146617 0.646617 0.000000
0.152256 0.652256 0.000000
0.157895 0.657895 0.000000
0.163534 0.663534 0.000000
0.169173 0.669173 0.000000
0.174812 0.674812 0.000000
0.180451 0.680451 0.000000
0.186090 0.686090 0.000000
0.191729 0.691729 0.000000
0.197368 0.697368 0.000000
0.203008 0.703008 0.000000
0.208647 0.708647 0.000000
0.214286 0.714286 0.000000
0.219925 0.719925 0.000000
0.225564 0.725564 0.000000
0.231203 0.731203 0.000000
0.236842 0.736842 0.000000
0.242481 0.742481 0.000000
0.248120 0.748120 0.000000
0.253759 0.753759 0.000000
0.259398 0.759398 0.000000
0.265038 0.765038 0.000000
0.270677 0.770677 0.000000
0.276316 0.776316 0.000000
0.281955 0.781955 0.000000
0.287594 0.787594 0.000000
0.293233 0.793233 0.000000
0.298872 0.798872 0.000000
0.304511 0.804511 0.000000
0.310150 0.810150 0.000000
0.315789 0.815789 0.000000
0.321429 0.821429 0.000000
0.327068 0.827068 0.000000
0.332707 0.832707 0.000000
0.338346 0.838346 0.000000
0.343985 0.843985 0.000000
0.349624 0.849624 0.000000
0.355263 0.855263 0.000000
0.360902 0.860902 0.000000
0.366541 0.866541 0.000000
0.372180 0.872180 0.000000
0.377820 0.877820 0.000000
0.383459 0.883459 0.000000
0.389098 0.889098 0.000000
0.394737 0.894737 0.000000
0.400376 0.900376 0.000000
0.406015 0.906015 0.000000
0.411654 0.911654 0.000000
0.417293 0.917293 0.000000
0.422932 0.922932 0.000000
0.428571 0.928571 0.000000
0.434211 0.934211 0.000000
0.439850 0.939850 0.000000
0.445489 0.945489 0.000000
0.451128 0.951128 0.000000
0.456767 0.956767 0.000000
0.462406 0.962406 0.000000
0.468045 0.968045 0.000000
0.473684 0.973684 0.000000
0.479323 0.979323 0.000000
0.484962 0.984962 0.000000
0.490602 0.990602 0.000000
0.496241 0.996241 0.000000
0.501880 1.001880 0.000000
0.507519 1.007519 0.000000
0.513158 1.013158 0.000000
0.518797 1.018797 0.000000
0.524436 1.024436 0.000000
0.530075 1.030075 0.000000
0.535714 1.035714 0.000000
0.541353 1.041353 0.000000
0.546992 1.046992 0.000000
0.552632 1.052632 0.000000
0.558271 1.058271 0.000000
0.563910 1.063910 0.000000
0.569549 1.069549 0.000000
0.575188 1.075188 0.000000
0.580827 1.080827 0.000000
0.586466 1.086466 0.000000
0.592105 1.092105 0.000000
0.597744 1.097744 0.000000
0.603383 1.103383 0.000000
0.609023 1.109023 0.000000
0.614662 1.114662 0.000000
0.620301 1.120301 0.000000
0.625940 1.125940 0.000000
0.631579 1.131579 0.000000
0.637218 1.137218 0.000000
0.642857 1.142857 0.000000
0.648496 1.148496 0.000000
0.654135 1.154135 0.000000
0.659774 1.159774 0.000000
0.665414 1.165414 0.000000
0.671053 1.171053 0.000000
0.676692 1.176692 0.000000
0.682331 1.182331 0.000000
0.687970 1.187970 0.000000
0.693609 1.193609 0.000000
0.699248 1.199248 0.000000
0.704887 1.204887 0.000000
0.710526 1.210526 0.000000
0.716165 1.216165 0.000000
0.721805 1.221805 0.000000
0.727444 1.227444 0.000000
0.733083 1.233083 0.000000
0.738722 1.238722 0.000000
0.744361 1.244361 0.000000
0.750000 1.250000 0.000000
0.755639 1.255639 0.000000
0.761278 1.261278 0.000000
0.766917 1.266917 0.000000
0.772556 1.272556 0.000000
0.778195 1.278195 0.000000
0.783835 1.283835 0.000000
0.789474 1.289474 0.000000
0.795113 1.295113 0.000000
0.800752 1.300752 0.000000
0.806391 1.306391 0.000000
0.812030 1.312030 0.000000
0.817669 1.317669 0.000000
0.823308 1.323308 0.000000
0.828947 1.328947 0.000000
0.834586 1.334586 0.000000
0.840226 1.340226 0.000000
0.845865 1.345865 0.000000
0.851504 1.351504 0.000000
0.857143 1.357143 0.000000
0.862782 1.362782 0.000000
0.868421 1.368421 0.000000
0.874060 1.374060 0.000000
0.879699 1.379699 0.000000
0.885338 1.385338 0.000000
0.890977 1.390977 0.000000
0.896617 1.396617 0.000000
0.902256 1.402256 0.000000
0.907895 1.407895 0.000000
0.913534 1.413534 0.000000
0.919173 1.419173 0.000000
0.924812 1.424812 0.000000
0.930451 1.430451 0.000000
0.936090 1.436090 0.000000
0.941729 1.441729 0.000000
0.947368 1.447368 0.000000
0.953008 1.453008 0.000000
0.958647 1.458647 0.000000
0.964286 1.464286 0.000000
0.969925 1.469925 0.000000
0.975564 1.475564 0.000000
0.981203 1.481203 0.000000
0.986842 1.486842 0.000000
0.992481 1.492481 0.000000
0.998120 1.498120 0.000000
1.003759 1.503759 0.000000
1.009398 1.509398 0.000000
1.015038 1.515038 0.000000
1.020677 1.520677 0.000000
1.026316 1.526316 0.000000
1.031955 1.531955 0.000000
1.037594 1.537594 0.000000
1.043233 1.543233 0.000000
1.048872 1.548872 0.000000
1.054511 1.554511 0.000000
1.060150 1.560150 0.000000
1.065789 1.565789 0.000000
1.071429 1.571429 0.000000
1.077068 1.577068 0.000000
1.082707 1.582707 0.000000
1.088346 1.588346 0.000000
1.093985 1.593985 0.000000
1.099624 1.599624 0.000000
1.105263 1.605263 0.000000
1.110902 1.610902 0.000000
1.116541 1.616541 0.000000
1.122180 1.622180 0.000000
1.127820 1.627820 0.000000
1.133459 1.633459 0.000000
1.139098 1.639098 0.000000
1.144737 1.644737 0.000000
1.150376 1.650376 0.000000
1.156015 1.656015 0.000000
1.161654 1.661654 0.000000
1.167293 1.667293 0.000000
1.172932 1.672932 0.000000
1.178571 1.678571 0.000000
1.184211 1.684211 0.000000
1.189850 1.689850 0.000000
1.195489 1.695489 0.000000
1.201128 1.701128 0.000000
1.206767 1.706767 0.000000
1.212406 1.712406 0.000000
1.218045 1.718045 0.000000
1.223684 1.723684 0.000000
1.229323 1.729323 0.000000
1.234962 1.734962 0.000000
1.240602 1.740602 0.000000
1.246241 1.746241 0.000000
1.251880 1.751880 0.000000
1.257519 1.757519 0.000000
1.263158 1.763158 0.000000
1.268797 1.768797 0.000000
1.274436 1.774436 0.000000
1.280075 1.780075 0.000000
1.285714 1.785714 0.000000
1.291353 1.791353 0.000000
1.296992 1.796992 0.000000
1.302632 1.802632 0.000000
1.308271 1.808271 0.000000
1.313910 1.813910 0.000000
1.319549 1.819549 0.000000
1.325188 1.825188 0.000000
1.330827 1.830827 0.000000
1.336466 1.836466 0.000000
1.342105 1.842105 0.000000
1.347744 1.847744 0.000000
1.353383 1.853383 0.000000
1.359023 1.859023 0.000000
1.364662 1.864662 0.000000
1.370301 1.870301 0.000000
1.375940 1.875940 0.000000
1.381579 1.881579 0.000000
1.387218 1.887218 0.000000
1.392857 1.892857 0.000000
[...]
POINT_DATA 5816
SCALARS UX float 1
LOOKUP_TABLE default
-121336077389403738387302464741479581785601867776.000000
11006909408259380124405142718618891017483452416.000000
3094249488171745018883091412655239501709234785077952512.000000
-37521838098040596839921689568647552580876936096614711296.000000
221900622513621260788333911824295797932039322046824448.000000
36799600786772747291214356935894319352020336914273927168.000000
19413136054970633190623305741073385619564545532724510720.000000
187735744942479835618101446460295550959072837632.000000
-493195707785777202637453640761902480772588109824.000000
395767052663864376912277931942802194877753851904.000000
-24549864004786910100063376919196967107282599936.000000
-19023290852467062167092478283938110560282869760.000000
8430673357521168653195821821576734546975522816.000000
3129675203513401809333593535206604907767679516883812352.000000
-463720752150440551518453588708335959473736457073459200.000000
23096880469466796600860196560855621537789639390813749248.000000
36219004119673428427218160812009993799436524384791035904.000000
17726358621428778746427153374291603522141891091207553024.000000
27495555804011804172179818159148654566189235681391280128.000000
58764346679936368738092383614495595534594092108055838720.000000
69462855459565986419042286049286876347425850459298988032.000000
82799171210135638885666111424418755530069047925754822656.000000
96963716890055244991258685477810560272610411584916815872.000000
43798264764953815739795947586172044217813012264586838016.000000
42214544743733468053368934343642913829335721229141671936.000000
-56444973927795687875107674677819462617497268992910295040.000000
-25360816066536091267979758684762703374494662681400705024.000000
38702783679168796733904507205218208675738818329163333632.000000
58784099986569134691169742574207672939080824188171190272.000000
64823088549654206723892890091138641414762404502784966656.000000
63747450491489391672527204370466832208726309468664496128.000000
164555917176912675201787800142321522174492248979409993728.000000
189076404479062385408507438644418532309885970132911521792.000000
57092299871987966096186850532052587071002865961990619136.000000
105069926767811663710368750116777421475405718566639501312.000000
51683181451827390850564979704838267124886377096747679744.000000
30120326865227014900402279076096078256482856706548695040.000000
52192050588058343952199578010556469707701852574297620480.000000
46068967641255762227678454381532095817749406955528519680.000000
37960705432801698561057492903625219887669723287758307328.000000
23358661660044292611085121854099046670493115522310209536.000000
22961040181134593023849760328380837153085229072654532608.000000
22302448859286319245938750508268842728444642439280459776.000000
34940604361234468470970482674953567917502736237055705088.000000
18672888325040807208153471593974161669474206638384611328.000000
17039803358467850194335824773313450341950276264525824000.000000
14635447074167285872003252146661411998210301334191603712.000000
13807971926460856553235009612469936786262751415766089728.000000
12501564988153636706277608874367175748138457014693003264.000000
9911970999919804350754691774554713660924216183154016256.000000
3441879494626495386927963361946640175416459266860515328.000000
20465726065561353242385843612333158778150056012984352768.000000
38041421171914395492379336996444077251079695605212119040.000000
29132269205082721966190788781323141378519840045116948480.000000
15521822139720340428344380694788636324440841024771719168.000000
24468020558454013113768718900311476792210479418464796672.000000
28525942788539577746122760527380089071721986560540803072.000000
8669219096422343019486133345956744793811757985850982400.000000
17231044579070742869481007723231759019529372046341439488.000000
-17476629222344614169404258935478904161629775758123597824.000000
24594587692673030182300183858350058377523467636004880384.000000
7829785886004318162710627541808620093188967788527484928.000000
4369253876504307075747775044049549031640733180655304704.000000
2373327561109588654493896179303038913671215630130348032.000000
-4016243028233324923184196734573980127725978580477280256.000000
-31335698891901770389385022821799431268546833663848873984.000000
-37487210796836074672048359817984792112597343892701970432.000000
-38277008916229782070646535722814235807649123644553035776.000000
-34866513198049127289141900679823769238802983794430181376.000000
-29597560678760579995563990914465723463604028366093549568.000000
-21077755705707320828194630973574071510926774079747784704.000000
-11859453130456457778367822867398090061691818537268543488.000000
-4348421937129379279212440932857721040660876389938888704.000000
1175913005415417288214893696229453939202605637791907840.000000
5134791188726609659571881228473964734732902953459384320.000000
7342620131126602174153222256550047176212691434730422272.000000
11704410917167857008142973088827009313729653419930550272.000000
18057704909423329878527677093820962602706844416913440768.000000
20037089658387184828118194949436205257367946974688444416.000000
21391910381195394875318876590811030919657303475490914304.000000
25215701486418930778398902309518960228382158470950944768.000000
23897694817104319797577842709327632726377455186406801408.000000
25058741413530614392349003327022106809470395525221056512.000000
33571778355559445809270163997501344425766580441426427904.000000
39673677251010711196791756881414207077162725143352442880.000000
40891597523528924639677631907987851656825898316219809792.000000
34996882747250029486819484195277307131358974622625169408.000000
67157382497135821796784425450569513805110542221596164096.000000
26421745007518378239403963732267155659941204902522388480.000000
29686019603655375220305534933612037880260137843309936640.000000
39910352935543561347172052462724447980634315200741244928.000000
22235241279016041259232183786337799083196166248457043968.000000
6969824470649490067774560140254640433975714902169354240.000000
27650113398263287916857369618142471477935850957899300864.000000
-22915103346734385898296939804353880469975217699523919872.000000
-355914482716775479317991396979987958965504828510188863488.000000
-519548339589997405405858541096660139458239504759537008640.000000
-51581763560592874466072510512554930074019496080384720896.000000
-18967735999513757282755923429699895516857432166212042752.000000
-10211121909165122581616529268366379640221452635358625792.000000
-14435904778591345704331243244280717701639650923123834880.000000
-8580785261150795553541748773761920356732550867696222208.000000
-3906526406987361645748701512463828645473581990915604480.000000
929609632085015816748994426077349069288864499701383168.000000
-13948726862637438069170888184757558468575449549086130176.000000
-3777087203292748770952238982562609206672148310721036288.000000
22780267062927427397641780729725625181365037205517500416.000000
16515876549376938672902631678096538096966624381025386496.000000
11842060647962982264076282340365154284529785887573147648.000000
4680370046293200625134475546685982530961125290891280384.000000
-7828156149637160729632362135843335318041532719148564480.000000
-7615103028629538804387310216706173881603958731679203328.000000
69364710363655523460488352737538338568289327690515742720.000000
-25673924701095484157588001381082817611685112596838481920.000000
-12217962255378249554809800135886969754670104619000004608.000000
12615621669090973254143493753096773578168557953511063552.000000
15007093854980094623283794024831515389792518463287197696.000000
16651511214225143608509336018719287714820931205866717184.000000
12583898769671969618701771195727719491738145552089481216.000000
2981056202777602396730584699629999389886792458219552768.000000
-11175265767290107486545288037482883640344592948410712064.000000
1506667265120449901971909576792290219487567926991519744.000000
4125896471320168295544028053280289822379309457232363520.000000
-29909140062195528675037304096025747730086676126574313472.000000
-56800673102606802034829525280343065295994509181583360.000000
8387110303110153417408290739701009061546419741872095232.000000
6651204701336320554112584541369370526603135200549404672.000000
34077158974794706472184741674492819465069218510017658880.000000
30300549616846000974382094770682256696072054991524724736.000000
34494790113098690265925537123930490583285841726114103296.000000
33876202485626213923231619215398195759974497620571717632.000000
-5002954513495746704879219330707227607163637086803722240.000000
-9715184700761199390669192042672742444818052524103696384.000000
-8522827076169060755322618038838055503203669502299471872.000000
-3454686769294837551251507575461528200209616563037274112.000000
-6907868879491746866931298362949896566920983986311266304.000000
-18262156707700998708066950402360619129068795459568402432.000000
-21032555139237249628925532042390087768696073439007473664.000000
-23413386920612519844048353592112680166023578996459962368.000000
-26772434431691468707534004718054950121501603965238771712.000000
-26228906793837480202053812592892649362850968988945481728.000000
-24804947424177600170751540198106669656184576078577139712.000000
-22320591507446240667131991148767565128579221285488295936.000000
-22203330059969507685324336907548601299681544107538251776.000000
7924613568572517985376337989075714704755028089527861248.000000
5838645130502757963681483140797051234516145941505900544.000000
3975173981561561816915226422643778382919970489987235840.000000
-3677566653237011033971206694173816262761334547930939392.000000
-10040754364904070457809361648177444253064834144691814400.000000
-10654827810842843601575838767659007019151219946367746048.000000
-11434817077881892976304095620941940017738297576769191936.000000
-12590795700490578096015621030141511611241746769706483712.000000
-14293805692624435445072545742298329513890723966144741376.000000
-6969090972553646345787577512579487243724873391084142592.000000
-5650338149369246669687931312098218514094954971786117120.000000
-3095386952288722763153701059770379851408990799048736768.000000
-2793049248877605999132604896991737868317962687886655488.000000
8575440570882490029182222679470583450360944057949093888.000000
14856883172536709308617376917340912923827823049804087296.000000
30471702306784299768509425486111752994684584812785696768.000000
5645395110914798801667554670059623231206383982066270208.000000
45684114465643120243230272140381727166523688105807970304.000000
101211692576234553857438971670604238256832238664120532992.000000
69385108246985160115355333630292263996488940791550443520.000000
24243622376328481180733667164142381862855492662951149568.000000
-13249288441286780515155438707864293790131293671521255424.000000
9721873504013933255908115811993281600412880820072611840.000000
13068594401563763940578660170363363044422385527332798464.000000
3533948903418739837344990402250576519439748282655440896.000000
26106928765547106036418590116068840172348201990868697088.000000
-10938609314059862394487991536449378723025179583587549184.000000
6641854439187867185332807867066756605282047921022304256.000000
6329296130378442786862346805709322736902303848448655360.000000
-2892380982181379987122784972605989229533606942315905024.000000
-32568309061258681424765655084547722066009462028070027264.000000
578609333233519644979966837282361882702677200907272192.000000
16912496462921890717700078513130693576169393937736269824.000000
17311337247739309367969379873114025137876197436368617472.000000
16793750436050699524409443327458732691079820994278326272.000000
16083531419117281023117783861420688567390464761651003392.000000
12200816020835723965021147248349180002967328744345174016.000000
14189301857211091432313329712404113781371284621839302656.000000
15309001161774667811201147786023245200471322566984728576.000000
13784649197541374114754749454452372974944273147321384960.000000
14034761822596270136017710500773195285458185128150827008.000000
14366162664716800300534425152164648010443406903751999488.000000
15678679867739946349649847103511934723028389023241469952.000000
16386454496503908476996681180476229931042580990252810240.000000
16681807677114347964983332547883454248501584379758247936.000000
17376889008560442711529412810935257901393618949124390912.000000
17830201550127892321017988886582111324461267138084077568.000000
18287846708615557449389912039790248657856108768295649280.000000
17202413318145547208775519689106979305521542639220948992.000000
17452336068961055972426509403862053468678260068496441344.000000
20740085659019092561684417750744070753380997340067790848.000000
21989145949710552989601075417157355855396977280903282688.000000
21209674606792620928167543924635797223093005298926878720.000000
21146409850624298229459464064541947982367264011219632128.000000
18424429320207995494440313391089574257549434070251864064.000000
19503106211632995595075993412174172997318874428623290368.000000
20674196926785192399962528680988372814999669034050387968.000000
20815529060337757031264377961858574161461705349928058880.000000
21736168027737673226316963314268328505615497219134193664.000000
21842018171487856244276623838070238140006509487977398272.000000
22556706067708107979932886413552400590448929847839293440.000000
21527269693598680291640563500514203952536136802654748672.000000
22226067060258693293654586324858751628474631387938291712.000000
23136473460925229027796674926815212732041790898342723584.000000
24044169306263980545694504307101767731153849191478853632.000000
23887685825311719066590422133618590503491350711108632576.000000
25416217458013288353498898108158389711785261081624051712.000000
27984736774688215674010316964051961348459488263064780800.000000
30062575965940546567361991413808622654549405796698947584.000000
31060738697138568961273038569905665253145690268338487296.000000
31817449582539017284815596786838524611050094726712655872.000000
31855394977719204050969254026904998252717873408407240704.000000
31850789368713789039618277376871654086163833452736020480.000000
32200822955327975449240460385909838210446530025965486080.000000
32171470560191381647534636261191703607152035524809588736.000000
32028005987678849473996864837981992409460640320896106496.000000
30025287949458141756271588321223264306593591646754963456.000000
32821748055193623163324528654827794356501692565510160384.000000
45040568337809255573203945375911858448464150737211883520.000000
36294844306309104865754395158277729669740710615882661888.000000
32007537417105292102061059875303849337484029328292315136.000000
25264508551431362492885372971275063210952266061302464512.000000
33629896934438164723237835367447552949815595318544171008.000000
31989372737920403283820456512843250580070837076776452096.000000
31362503438317685834938142289941974251821176408107909120.000000
30208557220191933686518690346265318090322820749483573248.000000
30193150524210857072789591127025384711018467623193018368.000000
29390796236856008202148103327580932639363321925740789760.000000
29569850491476002864970025830023731999236196354226126848.000000
40142224239823100183776853986908372201735975383316037632.000000
43054336314195779405449354281758227774094445453084983296.000000
38402062749312870045703301625518586900670053649454465024.000000
39285579275536016415911524323784506471774767321788186624.000000
-1707473096770312339087872723433062616413015431538802688.000000
14983990120938212679648821698790605319970595146305634304.000000
20808772787873593846173538980200337358917554614336225280.000000
22029111542146940959131501786986501937753149487645196288.000000
25006011179557069060284000206693769798705658844426534912.000000
24029766080584370594826427211028442896527936307050053632.000000
23764160622582644640263680183385576841684012992093487104.000000
26827373374821352056920832550877457760910222736683433984.000000
24776319841619989837295208970458615620422256418376122368.000000
22607009653677932496444583725757981789222073951762513920.000000
21232284811436899066270371366257987897807837959544635392.000000
21857364820227177741187665370575957974783969819642298368.000000
23515419283618571266151396854023720778581414716851093504.000000
25553206778907002383433604572715248951116825985755906048.000000
26592611053836527011940878720362513860965096695873404928.000000
15267237186685461465801845677064173585017318639616917504.000000
16655208762370656645088228687942960038695421417665593344.000000
19184261136660693705345157265490178471496642034950733824.000000
25552828286926677024343012509542737329504632830833983488.000000
24789866329747170790598959258131311130602602906521698304.000000
29007368156455677669481250566071187761637833278146740224.000000
27790511079458094119546249971100471247942939152442458112.000000
23354256431035628439099578962870122958645779205338431488.000000
21996676193565067453704177578610669259047966345818800128.000000
32316863694277630417761778683864772979965858381591216128.000000
30268060375166569250679104552772620618635474122525638656.000000
36751809924060681537264268245540549596253140850799804416.000000
59603707431397692341556834276751909812590695715449077760.000000
27492321051624873768370684515891927862676183313645830144.000000
14167728701505732352062523954634383871273301496632967168.000000
13755376838573780859294039290669275538369128094226186240.000000
17391305720695125211454375685583436632500148913326522368.000000
16599319741851782048545318017758197727034814522588135424.000000
12561450838857269448589234638320659885134577054852841472.000000
17440772490690606425781907828576968808671073841679695872.000000
18653411858863558168068274670391903762068958151876542464.000000
21103956753328716206101153963408583787877867052381241344.000000
22938412214837691549178001738598849711128312429869531136.000000
24540113929586335205755411662511340891176510329674792960.000000
25158060336772734007907427094983605166873295327405801472.000000
26812030038106941676395241537747928422196848553235578880.000000
22331186891764280092700602626744195141474386312620408832.000000
24936611551354625762558701864004790109120960855984308224.000000
26088294436166977902471076182311036390218442926406500352.000000
27712135753697471153817780564962382117254608165986631680.000000
28150135963016091442711220799607707498116451822148255744.000000
28796043600488940392095347511175915339799057017606242304.000000
41375019829706734406739931490303502348530765923201581056.000000
37253655105641917530658406952873842649489643383434510336.000000
52532359203310938978984395879411234925242090864710254592.000000
31006761298549383518206074014387195218575544967799767040.000000
24511622103195736282774797991209033075216299159279632384.000000
25945148219026166078209964075423619796067200304813178880.000000
22171819132013107250412038865070466319989744288476954624.000000
19509662568587695368476321902790984661378077890317385728.000000
15487176334065384122679094579699180866842500107859918848.000000
36632496169176399371356953633129243181350868661498281984.000000
40743345690089918514867552259957525662941803838875631616.000000
43915241378538890982330721680856778139980131880906260480.000000
45707564834232010402380839877497485864386775343553314816.000000
46768936817847643668984687233178558559989490574637924352.000000
43023174870828698709239309291152067151742131343737225216.000000
52773014746124989215313112431207061012364954402029568000.000000
55711120036226413456827108766934982416065307363283828736.000000
45050913964417952518857116348230046239426372397296517120.000000
50728871532809678791922521086411904784523006815781257216.000000
51993914666014951649698208190502884531872887167923519488.000000
53744883674673110200047679233210513583847536924697821184.000000
54369686924771498926889138481520056427778514772868202496.000000
70856370511846216588029117778971159897030024644169564160.000000
82773570233124415789262563038824093205216171827235127296.000000
86929409308402823927311222554879913668440185171781615616.000000
93884307682447508997750717427163658261034665034924425216.000000
96484442278081299498719941089967051390801026487125278720.000000
96954491125038247530849736672570278144402494745273696256.000000