# vtk DataFile Version 2.0
Test
ASCII
DATASET POLYDATA
POINTS 5816 float
0.000000 0.000000 0.000000
2.000000 0.000000 0.000000
2.000000 4.000000 0.000000
0.000000 4.000000 0.000000
0.000000 0.500000 0.000000
1.500000 2.000000 0.000000
2.000000 2.500000 0.000000
0.285714 0.000000 0.000000
0.571429 0.000000 0.000000
0.857143 0.000000 0.000000
1.142857 0.000000 0.000000
1.428571 0.000000 0.000000
1.714286 0.000000 0.000000
2.000000 0.275040 0.000000
2.000000 0.520628 0.000000
2.000000 0.739917 0.000000
2.000000 0.935725 0.000000
2.000000 1.110565 0.000000
2.000000 1.266683 0.000000
2.000000 1.406084 0.000000
2.000000 1.530557 0.000000
2.000000 1.641701 0.000000
2.000000 1.740944 0.000000
2.000000 1.829560 0.000000
2.000000 1.908686 0.000000
2.000000 1.979340 0.000000
2.000000 2.042428 0.000000
2.000000 2.098760 0.000000
2.000000 2.149060 0.000000
2.000000 2.193974 0.000000
2.000000 2.234078 0.000000
2.000000 2.269888 0.000000
2.000000 2.301863 0.000000
2.000000 2.330415 0.000000
2.000000 2.355908 0.000000
2.000000 2.378673 0.000000
2.000000 2.398999 0.000000
2.000000 2.417149 0.000000
2.000000 2.433355 0.000000
2.000000 2.447826 0.000000
2.000000 2.460747 0.000000
2.000000 2.472285 0.000000
2.000000 2.482587 0.000000
2.000000 2.491786 0.000000
2.000000 2.508637 0.000000
2.000000 2.519089 0.000000
2.000000 2.531737 0.000000
2.000000 2.547044 0.000000
2.000000 2.565568 0.000000
2.000000 2.587985 0.000000
2.000000 2.615113 0.000000
2.000000 2.647942 0.000000
2.000000 2.687670 0.000000
2.000000 2.735749 0.000000
2.000000 2.793931 0.000000
2.000000 2.864341 0.000000
2.000000 2.949549 0.000000
2.000000 3.052664 0.000000
2.000000 3.177450 0.000000
2.000000 3.328462 0.000000
2.000000 3.511210 0.000000
2.000000 3.732366 0.000000
1.714286 4.000000 0.000000
1.428571 4.000000 0.000000
1.142857 4.000000 0.000000
0.857143 4.000000 0.000000
0.571429 4.000000 0.000000
0.285714 4.000000 0.000000
0.000000 3.715673 0.000000
0.000000 3.453827 0.000000
0.000000 3.212685 0.000000
0.000000 2.990611 0.000000
0.000000 2.786096 0.000000
0.000000 2.597752 0.000000
0.000000 2.424300 0.000000
0.000000 2.264564 0.000000
0.000000 2.117457 0.000000
0.000000 1.981983 0.000000
0.000000 1.857220 0.000000
0.000000 1.742322 0.000000
0.000000 1.636510 0.000000
0.000000 1.539064 0.000000
0.000000 1.449323 0.000000
0.000000 1.366678 0.000000
0.000000 1.290567 0.000000
0.000000 1.220475 0.000000
0.000000 1.155925 0.000000
0.000000 1.096479 0.000000
0.000000 1.041733 0.000000
0.000000 0.991316 0.000000
0.000000 0.944886 0.000000
0.000000 0.902126 0.000000
0.000000 0.862748 0.000000
0.000000 0.826483 0.000000
0.000000 0.793086 0.000000
0.000000 0.762330 0.000000
0.000000 0.734005 0.000000
0.000000 0.707920 0.000000
0.000000 0.683898 0.000000
0.000000 0.661775 0.000000
0.000000 0.641402 0.000000
0.000000 0.622639 0.000000
0.000000 0.605360 0.000000
0.000000 0.589447 0.000000
0.000000 0.574792 0.000000
0.000000 0.561296 0.000000
0.000000 0.548868 0.000000
0.000000 0.537421 0.000000
0.000000 0.526881 0.000000
0.000000 0.517173 0.000000
0.000000 0.508233 0.000000
0.000000 0.491468 0.000000
0.000000 0.479827 0.000000
0.000000 0.463944 0.000000
0.000000 0.442273 0.000000
0.000000 0.412707 0.000000
0.000000 0.372368 0.000000
0.000000 0.317330 0.000000
0.000000 0.242238 0.000000
0.000000 0.139785 0.000000
0.005639 0.505639 0.000000
0.011278 0.511278 0.000000
0.016917 0.516917 0.000000
0.022556 0.522556 0.000000
0.028195 0.528195 0.000000
0.033835 0.533835 0.000000
0.039474 0.539474 0.000000
0.045113 0.545113 0.000000
0.050752 0.550752 0.000000
0.056391 0.556391 0.000000
0.062030 0.562030 0.000000
0.067669 0.567669 0.000000
0.073308 0.573308 0.000000
0.078947 0.578947 0.000000
0.084586 0.584586 0.000000
0.090226 0.590226 0.000000
0.095865 0.595865 0.000000
0.101504 0.601504 0.000000
0.107143 0.607143 0.000000
0.112782 0.612782 0.000000
0.118421 0.618421 0.000000
0.124060 0.624060 0.000000
0.129699 0.629699 0.000000
0.135338 0.635338 0.000000
0.140977 0.640977 0.000000
0.146617 0.646617 0.000000
0.152256 0.652256 0.000000
0.157895 0.657895 0.000000
0.163534 0.663534 0.000000
0.169173 0.669173 0.000000
0.174812 0.674812 0.000000
0.180451 0.680451 0.000000
0.186090 0.686090 0.000000
0.191729 0.691729 0.000000
0.197368 0.697368 0.000000
0.203008 0.703008 0.000000
0.208647 0.708647 0.000000
0.214286 0.714286 0.000000
0.219925 0.719925 0.000000
0.225564 0.725564 0.000000
0.231203 0.731203 0.000000
0.236842 0.736842 0.000000
0.242481 0.742481 0.000000
0.248120 0.748120 0.000000
0.253759 0.753759 0.000000
0.259398 0.759398 0.000000
0.265038 0.765038 0.000000
0.270677 0.770677 0.000000
0.276316 0.776316 0.000000
0.281955 0.781955 0.000000
0.287594 0.787594 0.000000
0.293233 0.793233 0.000000
0.298872 0.798872 0.000000
0.304511 0.804511 0.000000
0.310150 0.810150 0.000000
0.315789 0.815789 0.000000
0.321429 0.821429 0.000000
0.327068 0.827068 0.000000
0.332707 0.832707 0.000000
0.338346 0.838346 0.000000
0.343985 0.843985 0.000000
0.349624 0.849624 0.000000
0.355263 0.855263 0.000000
0.360902 0.860902 0.000000
0.366541 0.866541 0.000000
0.372180 0.872180 0.000000
0.377820 0.877820 0.000000
0.383459 0.883459 0.000000
0.389098 0.889098 0.000000
0.394737 0.894737 0.000000
0.400376 0.900376 0.000000
0.406015 0.906015 0.000000
0.411654 0.911654 0.000000
0.417293 0.917293 0.000000
0.422932 0.922932 0.000000
0.428571 0.928571 0.000000
0.434211 0.934211 0.000000
0.439850 0.939850 0.000000
0.445489 0.945489 0.000000
0.451128 0.951128 0.000000
0.456767 0.956767 0.000000
0.462406 0.962406 0.000000
0.468045 0.968045 0.000000
0.473684 0.973684 0.000000
0.479323 0.979323 0.000000
0.484962 0.984962 0.000000
0.490602 0.990602 0.000000
0.496241 0.996241 0.000000
0.501880 1.001880 0.000000
0.507519 1.007519 0.000000
0.513158 1.013158 0.000000
0.518797 1.018797 0.000000
0.524436 1.024436 0.000000
0.530075 1.030075 0.000000
0.535714 1.035714 0.000000
0.541353 1.041353 0.000000
0.546992 1.046992 0.000000
0.552632 1.052632 0.000000
0.558271 1.058271 0.000000
0.563910 1.063910 0.000000
0.569549 1.069549 0.000000
0.575188 1.075188 0.000000
0.580827 1.080827 0.000000
0.586466 1.086466 0.000000
0.592105 1.092105 0.000000
0.597744 1.097744 0.000000
0.603383 1.103383 0.000000
0.609023 1.109023 0.000000
0.614662 1.114662 0.000000
0.620301 1.120301 0.000000
0.625940 1.125940 0.000000
0.631579 1.131579 0.000000
0.637218 1.137218 0.000000
0.642857 1.142857 0.000000
0.648496 1.148496 0.000000
0.654135 1.154135 0.000000
0.659774 1.159774 0.000000
0.665414 1.165414 0.000000
0.671053 1.171053 0.000000
0.676692 1.176692 0.000000
0.682331 1.182331 0.000000
0.687970 1.187970 0.000000
0.693609 1.193609 0.000000
0.699248 1.199248 0.000000
0.704887 1.204887 0.000000
0.710526 1.210526 0.000000
0.716165 1.216165 0.000000
0.721805 1.221805 0.000000
0.727444 1.227444 0.000000
0.733083 1.233083 0.000000
0.738722 1.238722 0.000000
0.744361 1.244361 0.000000
0.750000 1.250000 0.000000
0.755639 1.255639 0.000000
0.761278 1.261278 0.000000
0.766917 1.266917 0.000000
0.772556 1.272556 0.000000
0.778195 1.278195 0.000000
0.783835 1.283835 0.000000
0.789474 1.289474 0.000000
0.795113 1.295113 0.000000
0.800752 1.300752 0.000000
0.806391 1.306391 0.000000
0.812030 1.312030 0.000000
0.817669 1.317669 0.000000
0.823308 1.323308 0.000000
0.828947 1.328947 0.000000
0.834586 1.334586 0.000000
0.840226 1.340226 0.000000
0.845865 1.345865 0.000000
0.851504 1.351504 0.000000
0.857143 1.357143 0.000000
0.862782 1.362782 0.000000
0.868421 1.368421 0.000000
0.874060 1.374060 0.000000
0.879699 1.379699 0.000000
0.885338 1.385338 0.000000
0.890977 1.390977 0.000000
0.896617 1.396617 0.000000
0.902256 1.402256 0.000000
0.907895 1.407895 0.000000
0.913534 1.413534 0.000000
0.919173 1.419173 0.000000
0.924812 1.424812 0.000000
0.930451 1.430451 0.000000
0.936090 1.436090 0.000000
0.941729 1.441729 0.000000
0.947368 1.447368 0.000000
0.953008 1.453008 0.000000
0.958647 1.458647 0.000000
0.964286 1.464286 0.000000
0.969925 1.469925 0.000000
0.975564 1.475564 0.000000
0.981203 1.481203 0.000000
0.986842 1.486842 0.000000
0.992481 1.492481 0.000000
0.998120 1.498120 0.000000
1.003759 1.503759 0.000000
1.009398 1.509398 0.000000
1.015038 1.515038 0.000000
1.020677 1.520677 0.000000
1.026316 1.526316 0.000000
1.031955 1.531955 0.000000
1.037594 1.537594 0.000000
1.043233 1.543233 0.000000
1.048872 1.548872 0.000000
1.054511 1.554511 0.000000
1.060150 1.560150 0.000000
1.065789 1.565789 0.000000
1.071429 1.571429 0.000000
1.077068 1.577068 0.000000
1.082707 1.582707 0.000000
1.088346 1.588346 0.000000
1.093985 1.593985 0.000000
1.099624 1.599624 0.000000
1.105263 1.605263 0.000000
1.110902 1.610902 0.000000
1.116541 1.616541 0.000000
1.122180 1.622180 0.000000
1.127820 1.627820 0.000000
1.133459 1.633459 0.000000
1.139098 1.639098 0.000000
1.144737 1.644737 0.000000
1.150376 1.650376 0.000000
1.156015 1.656015 0.000000
1.161654 1.661654 0.000000
1.167293 1.667293 0.000000
1.172932 1.672932 0.000000
1.178571 1.678571 0.000000
1.184211 1.684211 0.000000
1.189850 1.689850 0.000000
1.195489 1.695489 0.000000
1.201128 1.701128 0.000000
1.206767 1.706767 0.000000
1.212406 1.712406 0.000000
1.218045 1.718045 0.000000
1.223684 1.723684 0.000000
1.229323 1.729323 0.000000
1.234962 1.734962 0.000000
1.240602 1.740602 0.000000
1.246241 1.746241 0.000000
1.251880 1.751880 0.000000
1.257519 1.757519 0.000000
1.263158 1.763158 0.000000
1.268797 1.768797 0.000000
1.274436 1.774436 0.000000
1.280075 1.780075 0.000000
1.285714 1.785714 0.000000
1.291353 1.791353 0.000000
1.296992 1.796992 0.000000
1.302632 1.802632 0.000000
1.308271 1.808271 0.000000
1.313910 1.813910 0.000000
1.319549 1.819549 0.000000
1.325188 1.825188 0.000000
1.330827 1.830827 0.000000
1.336466 1.836466 0.000000
1.342105 1.842105 0.000000
1.347744 1.847744 0.000000
1.353383 1.853383 0.000000
1.359023 1.859023 0.000000
1.364662 1.864662 0.000000
1.370301 1.870301 0.000000
1.375940 1.875940 0.000000
1.381579 1.881579 0.000000
1.387218 1.887218 0.000000
1.392857 1.892857 0.000000
[...]
POINT_DATA 5816
SCALARS UX float 1
LOOKUP_TABLE default
-0.000000
0.000000
0.012687
-0.013308
-0.015368
0.007608
0.013081
-0.000000
-0.000000
-0.000000
-0.000000
0.000000
0.000000
0.007648
0.010633
0.012163
0.013017
0.013529
0.013845
0.014091
0.014250
0.014348
0.014390
0.014367
0.014298
0.014194
0.014069
0.013941
0.013814
0.013701
0.013600
0.013514
0.013441
0.013378
0.013325
0.013280
0.013242
0.013210
0.013182
0.013158
0.013138
0.013121
0.013105
0.013092
0.013069
0.013055
0.013039
0.013021
0.012999
0.012975
0.012948
0.012918
0.012886
0.012853
0.012820
0.012787
0.012758
0.012731
0.012713
0.012699
0.012691
0.012688
0.008958
0.005240
0.001535
-0.002165
-0.005870
-0.009584
-0.013309
-0.013307
-0.013315
-0.013338
-0.013386
-0.013457
-0.013557
-0.013679
-0.013820
-0.013969
-0.014122
-0.014267
-0.014402
-0.014520
-0.014622
-0.014705
-0.014773
-0.014824
-0.014863
-0.014891
-0.014911
-0.014925
-0.014937
-0.014950
-0.014964
-0.014982
-0.015004
-0.015038
-0.015073
-0.015119
-0.015179
-0.015253
-0.015346
-0.015472
-0.015640
-0.015846
-0.016066
-0.016346
-0.016666
-0.016942
-0.017146
-0.016981
-0.016435
-0.014499
-0.013486
-0.012559
-0.011624
-0.010745
-0.009844
-0.008798
-0.007201
-0.004956
-0.015071
-0.014610
-0.014062
-0.013712
-0.013486
-0.013324
-0.013170
-0.013008
-0.012890
-0.012769
-0.012648
-0.012550
-0.012448
-0.012354
-0.012265
-0.012177
-0.012092
-0.012010
-0.011935
-0.011855
-0.011774
-0.011697
-0.011621
-0.011543
-0.011471
-0.011396
-0.011327
-0.011258
-0.011188
-0.011125
-0.011060
-0.010996
-0.010930
-0.010863
-0.010800
-0.010735
-0.010674
-0.010610
-0.010544
-0.010479
-0.010413
-0.010351
-0.010291
-0.010229
-0.010166
-0.010102
-0.010039
-0.009977
-0.009913
-0.009853
-0.009791
-0.009729
-0.009667
-0.009605
-0.009543
-0.009481
-0.009419
-0.009356
-0.009293
-0.009230
-0.009166
-0.009103
-0.009038
-0.008974
-0.008911
-0.008848
-0.008784
-0.008719
-0.008654
-0.008587
-0.008522
-0.008456
-0.008391
-0.008325
-0.008259
-0.008192
-0.008125
-0.008057
-0.007990
-0.007922
-0.007855
-0.007787
-0.007718
-0.007649
-0.007579
-0.007509
-0.007439
-0.007369
-0.007299
-0.007227
-0.007156
-0.007085
-0.007013
-0.006941
-0.006868
-0.006796
-0.006723
-0.006651
-0.006578
-0.006504
-0.006430
-0.006355
-0.006281
-0.006206
-0.006133
-0.006058
-0.005982
-0.005906
-0.005830
-0.005754
-0.005677
-0.005600
-0.005523
-0.005446
-0.005368
-0.005291
-0.005213
-0.005135
-0.005057
-0.004978
-0.004899
-0.004820
-0.004741
-0.004662
-0.004583
-0.004503
-0.004424
-0.004344
-0.004263
-0.004182
-0.004102
-0.004021
-0.003939
-0.003858
-0.003777
-0.003695
-0.003613
-0.003531
-0.003448
-0.003366
-0.003283
-0.003200
-0.003118
-0.003035
-0.002952
-0.002868
-0.002784
-0.002701
-0.002617
-0.002533
-0.002449
-0.002365
-0.002281
-0.002196
-0.002112
-0.002026
-0.001941
-0.001856
-0.001772
-0.001687
-0.001602
-0.001517
-0.001431
-0.001345
-0.001260
-0.001175
-0.001089
-0.001003
-0.000917
-0.000830
-0.000744
-0.000658
-0.000571
-0.000485
-0.000400
-0.000314
-0.000228
-0.000142
-0.000055
0.000033
0.000120
0.000206
0.000292
0.000379
0.000465
0.000552
0.000639
0.000726
0.000813
0.000900
0.000987
0.001073
0.001160
0.001246
0.001333
0.001420
0.001507
0.001594
0.001681
0.001767
0.001854
0.001942
0.002030
0.002118
0.002205
0.002292
0.002378
0.002464
0.002551
0.002639
0.002726
0.002813
0.002900
0.002988
0.003075
0.003161
0.003248
0.003335
0.003422
0.003509
0.003596
0.003684
0.003772
0.003860
0.003947
0.004035
0.004122
0.004210
0.004297
0.004384
0.004471
0.004558
0.004646
0.004734
0.004822
0.004910
0.004998
0.005086
0.005174
0.005263
0.005352
0.005440
0.005528
0.005616
0.005706
0.005795
0.005884
0.005974
0.006064
0.006153
0.006244
0.006334
0.006425
0.006515
0.006605
0.006697
0.006788
0.006878
0.006968
0.007060
0.007151
0.007243
0.007335
0.007428
0.007520
0.007693
0.007770
0.007838
0.007905
0.007970
0.008033
0.008095
0.008156
0.008215
0.008274
0.008332
0.008388
0.008445
0.008501
0.008556
0.008612
0.008667
0.008722
0.008778
0.008833
0.008889
0.008944
0.009000
0.009057
0.009113
0.009170
0.009227
0.009284
0.009341
0.009399
0.009457
0.009515
0.009573
0.009632
0.009691
0.009750
0.009809
0.009869
0.009928
0.009988
0.010048
0.010108
0.010168
0.010229
0.010289
0.010350
0.010410
0.010471
0.010532
0.010593
0.010655
0.010716
0.010777
0.010839
0.010901
0.010962
0.011024
0.011086
0.011148
0.011210
0.011273
0.011335
0.011398
0.011460
0.011523
0.011586
0.011649
0.011712
0.011776
0.011839
0.011903
0.011967
0.012031
0.012095
0.012160
0.012224
0.012289
0.012354
0.012419
0.012484
0.012550
0.012615
0.012681
0.012747
0.012814
0.012880
0.012947
0.013014
0.005107
0.005072
0.004918
0.005278
0.001165
0.000865
0.000848
0.000532
0.001736
0.002127
0.002385
-0.003056
-0.003370
-0.002753
-0.003807
-0.001002
-0.000481
-0.000854
0.011298
0.011405
0.011374
0.011310
-0.002943
-0.002735
-0.002827
-0.002832
-0.000802
0.010216
0.010399
0.010279
0.010418
-0.002664
-0.002354
-0.002366
-0.002079
-0.000620
-0.000891
-0.000933
-0.001206
-0.000949
-0.000637
-0.000646
0.008414
0.008170
0.008411
0.008119
-0.000853
0.000966
0.000799
0.001141
0.001050
0.003854
0.003563
0.003883
0.003858
0.003866
0.003639
0.003652
-0.007533
-0.007456
-0.007821
-0.007606
0.003519
-0.000377
-0.000569
-0.008543
-0.008369
-0.008347
-0.008561
-0.008720
-0.008562
-0.008718
-0.000402
0.000246
-0.000045
-0.000729
-0.011903
-0.011711
-0.011631
-0.011516
0.012777
0.012590
0.012511
0.012625
-0.005580
-0.005706
-0.006960
-0.004177
-0.011807
-0.011481
-0.011618
-0.011321
-0.011488
-0.011115
-0.012518
-0.012407
-0.012193
-0.012721
-0.012149
-0.012102
-0.012509
-0.011761
-0.014508
-0.014716
-0.014810
-0.014358
0.011695
0.012156
0.012147
-0.000409
-0.008480
-0.000192
-0.001143
-0.000937
-0.001118
-0.001021
-0.008721
-0.008880
-0.003194
-0.003596
-0.003562
-0.008907
-0.005663
-0.005532
-0.005419
-0.006272
-0.005285
-0.005549
-0.004514
-0.004018
-0.002684
-0.004086
-0.002567
-0.003777
-0.003618
-0.004295
-0.003322
-0.005895
-0.005272
-0.005468
-0.004736
-0.005821
-0.003116
-0.002899
-0.003059
0.012654
0.012683
0.012782
0.012502
-0.002810
0.004427
0.004191
0.004203
0.012586
0.012507
-0.002502
-0.002326
-0.001722
-0.002987
-0.006961
-0.008702
-0.008577
0.002741
-0.013751
-0.013732
-0.014161
-0.013399
-0.000321
-0.000295
0.000332
0.000258
-0.010157
-0.010194
0.004475
-0.000799
-0.000929
-0.000755
0.000211
0.000819
-0.002386
-0.002287
-0.001993
0.000993
-0.008920
-0.008981
-0.008738
0.011797
0.011484
0.011827
0.011785
-0.009118
0.001115
0.001230
0.001293
0.005200
0.005057
0.005379
0.002911
0.002585
0.002698
0.001642
0.001085
0.001032
0.002392
-0.000635
-0.000562
-0.000429
-0.005462
-0.005717
-0.005837
-0.005217
0.002036
0.002593
0.002948
0.001396
0.000707
0.007190
0.007027
0.007307
0.006274
0.006351
0.006612
-0.005654
-0.005567
-0.005742
-0.007882
-0.007738
-0.007722
0.011169
0.011030
0.011104
0.011188
0.012164
0.012244
0.012297
0.006556
-0.004426
-0.004414
-0.005115
0.003931
0.003561
0.003375
-0.010364
-0.010200
-0.010043
-0.009904
-0.009968
-0.009760
-0.009644
-0.009489
0.005285
0.005220
0.005458
0.010486
0.010328
-0.005350
0.005482
0.011437
0.011335
0.011246
-0.005474
-0.005532
-0.005713
-0.005664
-0.002433
-0.002294
-0.001643
0.009107
0.009412
0.009263
0.005547
0.005343
-0.001563
0.005585
-0.002053
-0.002241
-0.002105
0.010256
0.010495
0.010323
0.010523
0.011577
0.011677
0.011499
-0.002828
-0.002983
-0.003004
0.006433
0.006703
0.006696
0.006429
0.000643
0.000942
0.000967
-0.002840
-0.004678
-0.004928
-0.004722
0.007567
0.007882
0.007846
-0.004810
0.008962
-0.002396
-0.002373
0.008490
0.008538
0.008660
0.008366
0.000670
0.000857
0.000854
0.009299
0.009471
0.009608
0.001067
0.007414
0.007390
0.007573
0.009752
0.007204
-0.003163
-0.003239
-0.003423
-0.003404
0.001953
0.002181
0.001964
0.004379
0.004141
0.004457
0.004154
-0.002737
-0.002936
-0.002624
-0.002791
0.002243
-0.002574
-0.002819
0.000545
0.000426
0.000683
0.000348
0.000284
-0.002582
0.008679
0.008467
0.008727
0.006038
0.006059
0.005867
-0.006783
-0.007126
-0.007058
0.005336
0.005217
0.005428
0.005205
-0.005298
-0.005574
-0.005320
-0.005559
0.007112
0.007314
0.007254
-0.002175
-0.002214
-0.001824
0.002320
0.002639
0.002351
-0.002592
0.002662
-0.006611
-0.006810
-0.006601
-0.006836
0.012378
-0.010718
-0.010571
-0.010346
-0.010281
-0.009132
-0.009214
-0.011012
-0.011058
-0.010811
-0.001936
-0.001865
-0.011238
0.008507
0.009843
0.009836
0.008425
0.008397
0.008578
0.007177
-0.003587
-0.003559
-0.003889
0.009083
0.003186
0.002430
0.002003
0.000721
0.008192
0.008138
0.010520
0.010560
0.010550
-0.003171
-0.003622
0.009151
-0.004472
-0.004261
-0.004723
-0.004153
-0.010007
-0.010062
-0.010294
-0.010344
-0.008999
-0.009150
-0.009352
0.007638
0.007428
0.007458
0.010747
0.010868
0.010935
0.006072
0.005535
0.006055
-0.005853
-0.005642
-0.005507
-0.005245
0.005455
-0.003970
-0.004353
-0.004037
-0.001870
0.002704
0.002975
0.003061
0.008646
0.008875
0.008988
-0.005915
-0.006129
-0.006271
0.008553
0.009100
0.009444
-0.004587
-0.004242
-0.003736
-0.003950
0.000349
0.000183
0.000142
-0.006584
-0.006315
-0.006395
-0.006412
-0.009403
-0.009700
-0.009818
-0.009617
0.003555
0.003283
0.003398
0.003060
0.008599
0.008612
0.008377
0.008386
0.008456
-0.002453
-0.002420
-0.002300
0.000569
-0.009968
-0.005386
-0.005685
0.009213
0.009079
0.009107
0.009257
-0.010751
-0.010836
-0.010469
-0.011036
-0.011301
0.007229
0.007326
0.007147
-0.005279
-0.001226
-0.001392
-0.001524
-0.009865
-0.010142
-0.009253
-0.009206
-0.009040
-0.001644
-0.001478
-0.001820
-0.002191
-0.002242
-0.003113
-0.002911
-0.003054
0.007403
0.007193
-0.011768
-0.012147
-0.011952
-0.004909
-0.004916
-0.005239
-0.005211
-0.002722
-0.002944
-0.002693
0.011215
0.011253
-0.014151
-0.014027
-0.013651
-0.013822
-0.014215
0.006478
0.006298
0.006602
-0.000083
0.000034
0.000153
0.010407
0.010279
0.010601
-0.000554
-0.000407
-0.000255
0.006456
0.000559
0.000162
-0.000080
-0.008548
-0.008626
-0.008437
0.008774
0.008805
-0.003657
-0.003815
-0.004117
-0.004146
-0.003400
-0.003249
0.008694
-0.002861
-0.003118
-0.003204
-0.003534
-0.002501
0.000899
0.001085
-0.003488
-0.010837
-0.011087
-0.009040
-0.009265
-0.008667
-0.008846
-0.003483
-0.008919
-0.001916
-0.001543
-0.001776
-0.002365
-0.002695
-0.002759
0.011475
0.011549
0.011412
0.011545
-0.011177
-0.010943
-0.011329
0.007617
0.007715
0.007596
-0.010556
-0.010326
0.008941
0.008924
0.008840
-0.008551
-0.008763
0.008798
0.001034
0.010792
0.010657
-0.008332
-0.008524
-0.008347
-0.008563
-0.008126
-0.008176
-0.006191
-0.006383
-0.006233
-0.006452
-0.012063
-0.012061
-0.012338
0.010928
0.010844
0.010860
-0.005992
-0.006139
-0.005887
0.003137
0.002071
0.000754
0.002657
0.002829
0.002541
0.010215
-0.009603
-0.010045
-0.000188
-0.000176
0.007463
0.007691
0.007675
-0.000250
-0.000584
0.001142
0.001213
-0.010092
-0.009839
0.006667
0.006466
0.006632
0.010673
0.010741
0.010217
0.009701
0.010381
0.006396
0.006856
0.006982
-0.003054
-0.005261
-0.005197
-0.005431
-0.003024
0.009975
-0.007349
-0.007080
-0.007144
-0.005597
-0.005628
-0.005790
-0.005848
0.001394
0.001509
0.001176
-0.006850
-0.000600
-0.004491
-0.004369
-0.004629
-0.007769
-0.008062
-0.007944
-0.007856
0.010138
0.010103
0.010027
0.004655
0.004852
0.004716
0.010852
0.004908
0.004620
0.004420
0.001337
0.000671
0.000955
0.007641
0.007458
0.007595
0.011263
-0.007403
-0.007298
-0.007496
-0.007276
-0.007487
-0.007305
-0.007339
0.010608
0.000276
0.000369
-0.013004
-0.013190
-0.012785
-0.004841
-0.004967
-0.000929
-0.001018
-0.000627
-0.001366
0.006058
0.005844
0.005749
0.005491
0.003650
-0.007872
0.010165
0.010066
0.010149
-0.012706
-0.013006
-0.012544
-0.006048
-0.005872
-0.005949
-0.006235
-0.006368
0.009419
0.009399
0.009590
-0.008396
-0.008410
-0.008613
-0.008524
0.002465
0.002607
0.002256
0.002597
0.004775
0.004504
0.004827
0.004513
0.003328
0.003547
0.003484
0.010649
0.010564
0.003716
-0.007576
-0.007667
-0.004700
-0.004680
-0.004480
-0.004466
0.006271
0.006516
0.006619
0.006884
0.005971
0.005880
-0.001453
0.005550
0.001686
0.001895
0.001738
0.001004
0.000861
0.000428
0.000336
0.001780
0.001234
-0.009773
-0.009831
-0.010073
0.001467
-0.009683
-0.009485
-0.009355
-0.006520
-0.006242
-0.003699
-0.003572
-0.003890
-0.000622
-0.005505
-0.005671
-0.005837
-0.005452
-0.006033
-0.005923
-0.005866
0.003759
0.003874
0.003910
-0.001912
-0.002109
-0.001981
-0.002050
0.007974
0.008112
0.008016
0.008193
-0.001227
-0.001094
-0.001064
0.005406
0.005676
0.003642
0.004585
0.004771
0.002560
0.002902
0.002772
0.002802
0.000398
0.000577
0.000601
0.000806
-0.004570
-0.004766
-0.004793
-0.005019
-0.004737
-0.004925
-0.003609
0.009745
0.009825
0.004312
0.004295
0.004050
0.004599
0.003288
0.003346
0.003276
0.004037
0.004238
0.003979
0.011059
-0.007800
-0.007918
-0.007648
-0.004240
-0.004010
-0.004062
-0.003844
-0.005245
-0.005033
-0.005191
-0.004908
-0.005289
-0.005554
0.005441
0.005642
0.005521
0.010719
0.010696
0.005789
0.005476
0.005175
0.005515
0.005190
-0.002275
-0.002236
-0.002021
-0.002464
-0.007763
-0.008844
-0.008922
-0.002447
-0.002345
-0.002604
0.003773
0.004017
0.003949
0.003931
-0.000038
-0.000182
-0.005165
-0.005027
-0.000890
-0.000507
0.000891
0.000978
0.003193
0.003437
-0.009129
-0.009386
-0.003504
-0.003360
-0.003493
0.002042
0.001798
0.002046
-0.000748
0.001455
0.001678
0.001712
0.001588
0.001390
0.001648
-0.002588
-0.002667
-0.002475
-0.008789
0.001172
-0.003747
-0.003647
-0.003578
-0.005372
-0.000630
-0.000712
-0.004692
-0.004809
-0.004462
-0.005042
-0.007047
-0.006071
-0.005759
-0.005739
-0.007153
-0.007018
-0.007009
-0.004187
0.003218
0.002923
0.002930
0.002385
0.002427
0.002068
0.001960
0.002874
0.002017
-0.005129
-0.005248
-0.005333
-0.005243
-0.004970
-0.005091
-0.001003
-0.001110
-0.000856
-0.001233
-0.001284
-0.001450
-0.004105
-0.003862
-0.003821
-0.003601
0.004885
0.005198
0.010550
-0.006080
-0.005876
-0.015794
-0.015814
0.004757
0.005388
0.005619
-0.006998
-0.007159
-0.007261
-0.009667
-0.006849
-0.006725
-0.006604
0.004704
0.004471
0.004216
-0.004333
-0.004094
-0.001282
-0.001566
-0.001684
-0.003969
0.001410
0.001484
0.001709
0.001241
-0.007157
-0.001605
-0.001854
-0.001077
-0.001245
0.007150
0.006607
0.007142
0.006616
0.007564
0.007671
0.004171
0.004386
0.004191
0.004450
0.004304
0.004515
0.003933
0.006113
0.006188
0.009740
0.009787
0.009555
0.009919
0.009880
0.004059
0.003519
0.007987
0.007908
-0.004190
-0.004141
-0.005192
0.004287
0.004479
-0.003206
-0.003428
0.000016
-0.000210
0.008878
0.007075
0.007060
0.006780
0.005068
0.004877
0.004794
0.004624
0.006425
-0.003279
0.005882
-0.008254
-0.008163
-0.008364
-0.004577
-0.004532
-0.006685
-0.006878
-0.014519
-0.015278
-0.014686
0.002870
0.002809
0.003117
-0.006775
-0.006577
0.006818
0.006652
0.000702
0.001026
-0.003326
-0.002749
-0.003234
-0.005122
-0.006470
0.005797
0.005959
0.006040
-0.012968
-0.012986
-0.013275
0.005715
0.004823
0.004690
0.004650
-0.004360
-0.003030
-0.001217
-0.013527
-0.000931
0.006194
0.006359
0.006412
0.003628
0.003727
0.005156
0.005304
0.003780
0.003452
0.003559
0.008742
-0.001752
-0.000788
-0.001139
0.008712
-0.000100
0.000075
-0.000312
0.004994
-0.002000
-0.000184
0.000218
-0.000267
-0.013769
-0.013278
-0.014110
0.000370
0.000634
-0.006887
-0.007067
-0.014279
-0.014004
-0.014586
-0.000563
-0.013243
-0.015314
-0.015361
-0.014985
-0.005242
-0.002172
-0.002740
0.010897
0.010996
-0.015080
-0.014253
-0.001777
-0.001709
0.005097
0.004470
0.004867
-0.000605
-0.000998
-0.000533
-0.001605
-0.001354
-0.001386
-0.000072
0.009882
0.009964
0.010032
-0.000405
-0.000671
-0.001522
-0.001661
-0.001687
-0.001913
0.001912
0.002104
0.001912
-0.000054
-0.014966
-0.015128
-0.014823
-0.008264
-0.008199
-0.008388
-0.008060
-0.008376
-0.008564
-0.008696
-0.007922
-0.007684
-0.008094
-0.008084
-0.002769
0.004469
0.004465
0.004301
-0.001891
0.004343
0.007199
0.007295
0.007578
-0.002148
-0.002270
0.006897
0.007104
0.007207
-0.005997
-0.005945
-0.001403
0.005668
-0.000338
0.005085
-0.014667
-0.014598
-0.015018
0.005025
0.005097
0.012901
0.012888
0.004937
0.008792
0.011160
-0.003308
0.012942
0.012874
0.012985
0.012895
0.009216
0.009326
0.009404
0.009510
0.002199
0.006449
0.006548
0.006399
-0.006460
-0.006383
-0.006250
0.006300
0.006239
0.008638
-0.013246
-0.013344
-0.012906
-0.013737
0.008591
-0.000515
0.005581
0.005798
0.005792
0.008038
0.007960
0.007854
0.007773
0.001226
0.000728
-0.008623
-0.008771
-0.003126
-0.008979
0.008110
0.008201
0.008247
-0.009082
-0.014256
-0.014772
0.011034
0.007139
-0.014068
-0.013790
0.002300
0.002011
0.002232
0.001906
0.011642
0.010687
0.011331
0.010845
0.007158
0.012656
-0.005816
-0.014861
-0.013792
-0.012733
-0.012670
-0.013043
-0.012178
-0.008003
-0.007766
-0.007791
-0.007595
-0.007949
-0.007785
-0.013630
-0.001468
-0.001752
-0.001922
-0.014366
-0.014184
-0.014607
-0.014301
-0.014540
-0.008192
-0.007971
-0.007751
-0.008453
-0.011324
-0.010961
-0.011181
-0.011335
-0.012164
-0.010346
-0.010608
-0.010052
-0.004197
-0.004419
-0.004052
-0.012640
-0.012687
-0.012587
-0.014602
-0.014510
-0.014344
-0.012775
-0.012617
-0.012387
-0.012016
-0.012194
-0.013908
-0.013766
-0.014086
-0.013999
-0.014302
-0.014517
-0.014659
0.008335
-0.012236
-0.011995
-0.001279
-0.001901
-0.012023
-0.011934
-0.012238
-0.012159
-0.011846
-0.012170
-0.011881
-0.004495
-0.013397
-0.013209
-0.003823
-0.008465
-0.008813
-0.008765
-0.008558
-0.008356
-0.013075
-0.013462
-0.013045
0.002236
0.002473
0.002472
0.008246
-0.007754
-0.007910
-0.008174
-0.007551
0.000750
0.000342
-0.000787
-0.012554
-0.012681
-0.012296
-0.013789
-0.014042
-0.012922
-0.014905
-0.014088
-0.013856
0.008414
-0.010909
-0.010604
-0.014617
-0.010482
-0.013336
-0.013308
-0.013703
-0.013039
-0.013033
-0.012401
-0.012829
-0.013073
-0.013266
0.002525
0.003413
0.000549
-0.009545
-0.009953
0.000413
-0.010019
-0.010302
-0.010380
-0.009973
-0.009678
-0.009688
-0.013773
-0.013744
-0.013321
0.002685
-0.010307
0.006181
0.006231
-0.010717
-0.010598
-0.010248
-0.013197
-0.013644
-0.013476
-0.013560
-0.008242
-0.008450
-0.008612
-0.005797
-0.005692
-0.006143
-0.006246
-0.005889
-0.010081
-0.010326
-0.010425
0.012003
0.011908
-0.013603
-0.013878
0.011825
-0.003624
-0.005465
-0.009455
-0.009883
-0.010144
-0.010867
-0.010344
0.000618
-0.000668
0.001510
-0.006737
-0.006723
0.011393
0.010954
0.011075
0.011297
-0.012732
-0.012626
-0.012953
-0.012938
-0.012151
-0.011890
-0.011757
-0.011571
0.000369
-0.013428
-0.013123
-0.013496
-0.012871
-0.013199
-0.007255
-0.007861
-0.007428
-0.007640
-0.007088
-0.013089
-0.013672
-0.009701
-0.010019
0.000741
0.001167
0.000666
0.001221
-0.009361
-0.009016
-0.009244
-0.009127
-0.008831
0.010783
-0.003805
-0.003868
-0.004030
-0.003281
0.012135
0.012060
0.012015
-0.008761
-0.009891
-0.010120
-0.009901
-0.010286
-0.010374
-0.013521
-0.013256
-0.013524
0.012817
-0.011848
-0.011925
-0.011594
-0.011669
-0.013384
-0.013775
-0.014169
-0.011467
-0.009845
-0.010189
-0.010260
-0.010188
-0.009710
-0.009469
-0.001498
-0.000996
-0.011597
-0.011388
-0.011353
-0.011048
-0.011034
0.011660
0.011751
0.000058
0.000207
0.000426
0.000389
-0.009332
-0.009715
-0.012549
-0.012043
-0.013135
-0.008750
-0.008032
-0.008616
-0.009440
-0.012834
-0.013044
-0.012475
-0.013374
-0.013486
-0.007938
-0.007358
-0.009222
-0.009857
0.003823
0.004109
0.003555
0.002412
0.002448
-0.012433
-0.011888
-0.011542
-0.011854
-0.012154
-0.012159
-0.012463
-0.012811
-0.012249
-0.012256
-0.012213
-0.011929
-0.007951
-0.008102
-0.000099
-0.006798
-0.006469
-0.006482
-0.006160
-0.011314
-0.011594
-0.011905
-0.011855
0.001682
-0.010637
-0.010636
-0.012242
-0.012200
-0.012459
-0.012669
-0.013884
-0.011753
-0.011597
-0.011447
-0.011897
-0.012107
0.008650
0.008716
0.008578
-0.011560
-0.011256
-0.009310
-0.012472
-0.012620
-0.012904
-0.011182
-0.011363
-0.011036
-0.010861
-0.006712
-0.006593
-0.006325
-0.006525
-0.011766
-0.011389
0.012147
0.011944
0.011393
-0.009363
-0.011835
-0.011909
-0.009329
-0.011176
-0.011560
-0.011301
-0.011398
-0.008444
-0.008837
-0.012113
-0.012517
-0.008091
-0.007720
-0.007306
-0.006879
-0.007329
-0.012569
0.006081
-0.007150
-0.006903
-0.007400
0.011519
-0.008389
-0.008884
0.008135
0.008095
0.008218
-0.008803
-0.009183
0.012182
0.006562
-0.014370
-0.006527
-0.006184
0.011695