# vtk DataFile Version 2.0
Test
ASCII
DATASET POLYDATA
POINTS 858 float
0.000000 0.000000 0.000000
1.000000 0.000000 0.000000
1.000000 1.000000 0.000000
0.000000 1.000000 0.000000
0.300000 0.330000 0.000000
0.700000 0.680000 0.000000
0.100000 0.000000 0.000000
0.200000 0.000000 0.000000
0.300000 0.000000 0.000000
0.400000 0.000000 0.000000
0.500000 0.000000 0.000000
0.600000 0.000000 0.000000
0.700000 0.000000 0.000000
0.800000 0.000000 0.000000
0.900000 0.000000 0.000000
1.000000 0.100000 0.000000
1.000000 0.200000 0.000000
1.000000 0.300000 0.000000
1.000000 0.400000 0.000000
1.000000 0.500000 0.000000
1.000000 0.600000 0.000000
1.000000 0.700000 0.000000
1.000000 0.800000 0.000000
1.000000 0.900000 0.000000
0.900000 1.000000 0.000000
0.800000 1.000000 0.000000
0.700000 1.000000 0.000000
0.600000 1.000000 0.000000
0.500000 1.000000 0.000000
0.400000 1.000000 0.000000
0.300000 1.000000 0.000000
0.200000 1.000000 0.000000
0.100000 1.000000 0.000000
0.000000 0.900000 0.000000
0.000000 0.800000 0.000000
0.000000 0.700000 0.000000
0.000000 0.600000 0.000000
0.000000 0.500000 0.000000
0.000000 0.400000 0.000000
0.000000 0.300000 0.000000
0.000000 0.200000 0.000000
0.000000 0.100000 0.000000
0.307407 0.336481 0.000000
0.314815 0.342963 0.000000
0.322222 0.349444 0.000000
0.329630 0.355926 0.000000
0.337037 0.362407 0.000000
0.344444 0.368889 0.000000
0.351852 0.375370 0.000000
0.359259 0.381852 0.000000
0.366667 0.388333 0.000000
0.374074 0.394815 0.000000
0.381481 0.401296 0.000000
0.388889 0.407778 0.000000
0.396296 0.414259 0.000000
0.403704 0.420741 0.000000
0.411111 0.427222 0.000000
0.418519 0.433704 0.000000
0.425926 0.440185 0.000000
0.433333 0.446667 0.000000
0.440741 0.453148 0.000000
0.448148 0.459630 0.000000
0.455556 0.466111 0.000000
0.462963 0.472593 0.000000
0.470370 0.479074 0.000000
0.477778 0.485556 0.000000
0.485185 0.492037 0.000000
0.492593 0.498519 0.000000
0.500000 0.505000 0.000000
0.507407 0.511481 0.000000
0.514815 0.517963 0.000000
0.522222 0.524444 0.000000
0.529630 0.530926 0.000000
0.537037 0.537407 0.000000
0.544444 0.543889 0.000000
0.551852 0.550370 0.000000
0.559259 0.556852 0.000000
0.566667 0.563333 0.000000
0.574074 0.569815 0.000000
0.581481 0.576296 0.000000
0.588889 0.582778 0.000000
0.596296 0.589259 0.000000
0.603704 0.595741 0.000000
0.611111 0.602222 0.000000
0.618519 0.608704 0.000000
0.625926 0.615185 0.000000
0.633333 0.621667 0.000000
0.640741 0.628148 0.000000
0.648148 0.634630 0.000000
0.655556 0.641111 0.000000
0.662963 0.647593 0.000000
0.670370 0.654074 0.000000
0.677778 0.660556 0.000000
0.685185 0.667037 0.000000
0.692593 0.673519 0.000000
0.548037 0.570873 0.000000
0.554453 0.579695 0.000000
0.540788 0.582045 0.000000
0.550492 0.594703 0.000000
0.338797 0.350505 0.000000
0.329823 0.347064 0.000000
0.335712 0.339262 0.000000
0.451687 0.438509 0.000000
0.442642 0.430741 0.000000
0.457884 0.427703 0.000000
0.387297 0.847474 0.000000
0.374793 0.914734 0.000000
0.332869 0.847471 0.000000
0.447069 0.415163 0.000000
0.567391 0.482596 0.000000
0.554659 0.473874 0.000000
0.567453 0.464800 0.000000
0.301190 0.902112 0.000000
0.551747 0.457138 0.000000
0.356532 0.391813 0.000000
0.347986 0.386048 0.000000
0.176207 0.429241 0.000000
0.128375 0.468105 0.000000
0.136378 0.404291 0.000000
0.185621 0.475277 0.000000
0.497512 0.261165 0.000000
0.499167 0.296032 0.000000
0.469918 0.291504 0.000000
0.642232 0.687989 0.000000
0.624295 0.701188 0.000000
0.630549 0.678643 0.000000
0.647682 0.074905 0.000000
0.700945 0.096046 0.000000
0.657288 0.160421 0.000000
0.611443 0.684403 0.000000
0.559779 0.406431 0.000000
0.582162 0.394521 0.000000
0.580552 0.422827 0.000000
0.560788 0.374759 0.000000
0.541503 0.468043 0.000000
0.545465 0.480978 0.000000
0.428301 0.394826 0.000000
0.414860 0.384611 0.000000
0.432086 0.374027 0.000000
0.533961 0.477886 0.000000
0.527361 0.464336 0.000000
0.415481 0.368142 0.000000
0.484401 0.527206 0.000000
0.472984 0.524144 0.000000
0.481205 0.518972 0.000000
0.394266 0.424909 0.000000
0.401826 0.431399 0.000000
0.392742 0.434502 0.000000
0.642418 0.617836 0.000000
0.635302 0.612878 0.000000
0.644322 0.605726 0.000000
0.263646 0.464175 0.000000
0.250486 0.498376 0.000000
0.230296 0.467342 0.000000
0.491693 0.468898 0.000000
0.498004 0.479972 0.000000
0.487381 0.480785 0.000000
0.718619 0.489140 0.000000
0.756680 0.466072 0.000000
0.751564 0.516847 0.000000
0.497232 0.719177 0.000000
0.477497 0.748035 0.000000
0.465924 0.716726 0.000000
0.501292 0.467390 0.000000
0.529064 0.285755 0.000000
0.547173 0.240449 0.000000
0.474742 0.511943 0.000000
0.403118 0.392815 0.000000
0.412434 0.399392 0.000000
0.653057 0.614785 0.000000
0.659187 0.602396 0.000000
0.400247 0.379451 0.000000
0.459133 0.636583 0.000000
0.434636 0.647284 0.000000
0.440667 0.616932 0.000000
0.453650 0.664799 0.000000
0.666296 0.616100 0.000000
0.657731 0.628197 0.000000
0.420489 0.468863 0.000000
0.414183 0.459489 0.000000
0.424065 0.460120 0.000000
0.629321 0.574616 0.000000
0.630370 0.589442 0.000000
0.617226 0.584388 0.000000
0.422026 0.450877 0.000000
0.590180 0.614274 0.000000
0.596278 0.627413 0.000000
0.585881 0.628067 0.000000
0.630677 0.603443 0.000000
0.529117 0.486095 0.000000
0.517046 0.488781 0.000000
0.522040 0.477224 0.000000
0.308641 0.392803 0.000000
0.323746 0.398675 0.000000
0.304273 0.411173 0.000000
0.146020 0.514086 0.000000
0.087335 0.505198 0.000000
0.624982 0.561914 0.000000
0.643811 0.559907 0.000000
0.831909 0.406061 0.000000
0.881376 0.423788 0.000000
0.839177 0.457573 0.000000
0.509066 0.478681 0.000000
0.614792 0.620247 0.000000
0.608406 0.635616 0.000000
0.603251 0.619643 0.000000
0.640290 0.595050 0.000000
0.524731 0.497540 0.000000
0.338689 0.392113 0.000000
0.347423 0.395876 0.000000
0.340116 0.407012 0.000000
0.686563 0.659098 0.000000
0.682555 0.651347 0.000000
0.934704 0.856355 0.000000
0.940546 0.930926 0.000000
0.863552 0.916423 0.000000
0.172107 0.566287 0.000000
0.188105 0.516551 0.000000
0.221330 0.532895 0.000000
0.683914 0.680068 0.000000
0.692945 0.685712 0.000000
0.683376 0.697853 0.000000
0.672414 0.683990 0.000000
0.557147 0.529227 0.000000
0.554161 0.540325 0.000000
0.546244 0.533101 0.000000
0.391911 0.394487 0.000000
0.387591 0.383772 0.000000
0.385780 0.368800 0.000000
0.671617 0.628861 0.000000
0.664093 0.637808 0.000000
0.408700 0.450928 0.000000
0.406517 0.467364 0.000000
0.394366 0.455525 0.000000
0.388841 0.472148 0.000000
0.792728 0.486062 0.000000
0.461047 0.516036 0.000000
0.460182 0.532753 0.000000
0.450617 0.523703 0.000000
0.364207 0.398120 0.000000
0.371344 0.402923 0.000000
0.362621 0.408449 0.000000
0.235276 0.413110 0.000000
0.235915 0.390376 0.000000
0.260894 0.399649 0.000000
0.564107 0.604249 0.000000
0.558497 0.625526 0.000000
0.545610 0.611482 0.000000
0.542035 0.628852 0.000000
0.441269 0.401429 0.000000
0.443649 0.385779 0.000000
0.454140 0.398188 0.000000
0.456246 0.380948 0.000000
0.531090 0.597071 0.000000
0.528592 0.618783 0.000000
0.693800 0.600685 0.000000
0.675646 0.601117 0.000000
0.688895 0.583493 0.000000
0.466943 0.412411 0.000000
0.469666 0.393398 0.000000
0.215629 0.311290 0.000000
0.236374 0.342186 0.000000
0.194357 0.347185 0.000000
0.372859 0.289727 0.000000
0.362694 0.307734 0.000000
0.346245 0.295576 0.000000
0.824768 0.656091 0.000000
0.787989 0.680173 0.000000
0.787481 0.637866 0.000000
0.763354 0.658567 0.000000
0.564845 0.587843 0.000000
0.565674 0.575091 0.000000
0.575285 0.580662 0.000000
0.591463 0.532694 0.000000
0.606735 0.524365 0.000000
0.606700 0.541268 0.000000
0.696107 0.663701 0.000000
0.695223 0.651919 0.000000
0.114270 0.553146 0.000000
0.897846 0.490106 0.000000
0.941355 0.438159 0.000000
0.491870 0.442127 0.000000
0.508682 0.433741 0.000000
0.504276 0.453072 0.000000
0.616608 0.507977 0.000000
0.629719 0.487283 0.000000
0.643435 0.510566 0.000000
0.660659 0.486926 0.000000
0.584650 0.557787 0.000000
0.582076 0.545531 0.000000
0.595086 0.552412 0.000000
0.215445 0.494211 0.000000
0.502563 0.534321 0.000000
0.493623 0.527201 0.000000
0.502900 0.523550 0.000000
0.490744 0.536689 0.000000
0.303740 0.348241 0.000000
0.312638 0.354325 0.000000
0.302746 0.359450 0.000000
0.683727 0.548378 0.000000
0.666144 0.562133 0.000000
0.663581 0.542222 0.000000
0.366098 0.324774 0.000000
0.379406 0.309842 0.000000
0.251675 0.434611 0.000000
0.214900 0.437402 0.000000
0.581091 0.493223 0.000000
0.603283 0.484739 0.000000
0.593195 0.510449 0.000000
0.429738 0.356510 0.000000
0.412970 0.350726 0.000000
0.358920 0.356811 0.000000
0.352460 0.366146 0.000000
0.347463 0.357590 0.000000
0.353794 0.402394 0.000000
0.527483 0.436280 0.000000
0.546965 0.439869 0.000000
0.535210 0.453469 0.000000
0.624606 0.790385 0.000000
0.614250 0.755688 0.000000
0.654837 0.763041 0.000000
0.384960 0.332814 0.000000
0.619946 0.597007 0.000000
0.358705 0.265521 0.000000
0.397502 0.266486 0.000000
0.377869 0.228897 0.000000
0.471169 0.372235 0.000000
0.492664 0.362648 0.000000
0.488718 0.386734 0.000000
0.431288 0.062893 0.000000
0.512348 0.074893 0.000000
0.450325 0.128772 0.000000
0.515327 0.223180 0.000000
0.538419 0.183215 0.000000
0.367912 0.509419 0.000000
0.343175 0.515399 0.000000
0.351317 0.488263 0.000000
0.593186 0.193353 0.000000
0.476496 0.230456 0.000000
0.594140 0.256114 0.000000
0.629340 0.367381 0.000000
0.659922 0.374166 0.000000
0.641019 0.397588 0.000000
0.669525 0.412603 0.000000
0.510665 0.591750 0.000000
0.493263 0.584115 0.000000
0.507476 0.576852 0.000000
0.492575 0.790205 0.000000
0.516533 0.753914 0.000000
0.493265 0.606545 0.000000
0.794852 0.435952 0.000000
0.797754 0.379724 0.000000
0.755728 0.420083 0.000000
0.528549 0.642034 0.000000
0.507334 0.653897 0.000000
0.509532 0.626562 0.000000
0.580705 0.748031 0.000000
0.605192 0.727758 0.000000
0.748472 0.635779 0.000000
0.742539 0.660255 0.000000
0.323194 0.421808 0.000000
0.325468 0.445306 0.000000
0.301700 0.435431 0.000000
0.295276 0.460827 0.000000
0.622421 0.457821 0.000000
0.642814 0.468538 0.000000
0.320303 0.468200 0.000000
[...]
POINT_DATA 858
SCALARS UX float 1
LOOKUP_TABLE default
-0.000000
0.000000
0.108979
-0.147144
-0.072706
0.065526
0.000000
-0.000000
-0.000000
-0.000000
-0.000000
0.000000
0.000000
0.000000
-0.000000
0.061705
0.098216
0.122790
0.141506
0.153412
0.154247
0.142990
0.125697
0.113065
0.081633
0.054769
0.029834
0.007459
-0.016037
-0.041192
-0.067376
-0.094289
-0.120844
-0.149089
-0.153852
-0.161276
-0.168546
-0.171461
-0.163062
-0.140356
-0.105581
-0.065234
-0.069628
-0.065675
-0.061930
-0.062553
-0.058490
-0.054182
-0.055065
-0.052363
-0.049398
-0.046547
-0.048447
-0.044852
-0.042366
-0.038807
-0.038105
-0.034865
-0.033925
-0.031424
-0.027571
-0.026969
-0.023048
-0.022154
-0.019679
-0.015269
-0.013094
-0.013455
-0.008873
-0.007362
-0.003898
-0.001496
0.003141
0.002509
0.006932
0.010144
0.010420
0.014772
0.018792
0.020104
0.019560
0.021562
0.026108
0.027994
0.030021
0.034910
0.036948
0.038873
0.040044
0.045439
0.046720
0.049250
0.055261
0.054880
0.061111
-0.043585
-0.041110
-0.045205
-0.040153
-0.028253
-0.038179
-0.029031
0.026485
0.022521
0.027317
-0.047492
-0.048483
-0.062250
0.022399
0.057734
0.054022
0.053995
-0.068751
0.049982
-0.088817
-0.093073
-0.128009
-0.140538
-0.133256
-0.127990
0.003783
0.008041
0.001297
0.012750
0.009328
0.005218
0.007215
0.014512
0.019174
0.000304
0.040240
0.041957
0.047287
0.033994
0.050843
0.054068
0.013848
0.008486
0.009676
0.051661
0.047968
0.004842
-0.067448
-0.070427
-0.068858
-0.082887
-0.082241
-0.090582
0.076467
0.071155
0.085116
-0.111476
-0.112922
-0.118297
0.041488
0.043287
0.033037
0.085639
0.091311
0.096461
-0.026709
-0.028942
-0.035671
0.044046
0.012710
0.011008
-0.070461
0.005904
0.009650
0.086150
0.088505
0.003913
-0.050075
-0.053927
-0.057828
-0.046410
0.089852
0.083357
-0.086226
-0.087633
-0.083843
0.081676
0.082006
0.077976
-0.081810
-0.024485
-0.020270
-0.023278
0.079005
0.052089
0.049193
0.049503
-0.104345
-0.102694
-0.105200
-0.136752
-0.150725
0.079813
0.082096
0.100926
0.116302
0.110351
0.047042
-0.010138
-0.014654
-0.017851
0.084423
0.051603
-0.099619
-0.097699
-0.100733
0.079527
0.084834
0.099525
0.094438
0.073781
-0.127975
-0.126594
-0.117779
0.036838
0.047648
0.037585
0.026634
0.061867
0.054096
0.051962
0.000279
-0.000787
-0.001884
0.090038
0.077771
-0.089106
-0.089223
-0.092229
-0.091346
0.102536
-0.073705
-0.071202
-0.074236
-0.085381
-0.079772
-0.095691
-0.116106
-0.113951
-0.111480
-0.034446
-0.030644
-0.037055
-0.033393
0.018055
0.014830
0.019872
0.015993
-0.043935
-0.038847
0.092904
0.090567
0.090998
0.025832
0.021530
-0.091622
-0.101970
-0.110104
-0.022851
-0.024071
-0.031320
0.109253
0.096281
0.106500
0.098894
-0.036635
-0.031007
-0.021543
0.070792
0.071583
0.074608
0.085209
0.090917
-0.143100
0.128380
0.133139
0.037104
0.038022
0.041845
0.069965
0.068234
0.074450
0.073506
0.069172
0.070575
0.074222
-0.120999
-0.061293
-0.064390
-0.058825
-0.064649
-0.094632
-0.092809
-0.100629
0.086257
0.085386
0.082353
-0.019458
-0.018396
-0.114062
-0.121023
0.061918
0.063500
0.067015
0.004755
-0.000219
-0.014532
-0.025637
-0.021906
-0.097133
0.041584
0.045424
0.046734
0.015263
0.011898
0.024255
-0.011748
0.072776
-0.026847
-0.017276
-0.020336
0.016640
0.018538
0.023305
-0.003447
-0.000440
-0.005678
0.004166
0.005131
-0.089189
-0.092643
-0.094374
0.013790
-0.002146
0.021390
0.046408
0.054240
0.054287
0.062971
-0.049247
-0.054373
-0.053443
-0.021464
-0.017316
-0.049050
0.096331
0.087870
0.084198
-0.033031
-0.035291
-0.040980
0.001021
0.006994
0.101514
0.096349
-0.102810
-0.101648
-0.105452
-0.105601
0.061502
0.067104
-0.101040
0.005805
-0.009576
-0.008080
-0.012239
-0.119664
-0.131546
-0.150443
-0.121608
-0.109747
-0.107420
-0.027618
-0.030202
0.088472
0.090856
-0.107785
-0.105634
-0.137800
-0.118017
-0.139435
-0.152820
-0.036202
-0.082499
-0.072767
-0.077709
-0.074638
-0.014159
-0.010710
-0.123310
0.103941
0.121152
0.092624
-0.105594
-0.103467
-0.122717
-0.030420
-0.034732
-0.024369
-0.069843
-0.067729
-0.076151
-0.041124
0.102982
0.017683
0.013788
-0.100598
-0.019693
-0.013056
0.013851
0.015386
0.020251
0.023367
0.013078
0.104862
-0.041224
-0.051999
-0.035316
-0.056334
-0.059834
-0.041375
0.109895
0.085586
-0.059014
0.074634
0.072824
0.061735
-0.056598
-0.017819
-0.025948
-0.017737
0.010136
0.027090
-0.086805
-0.081306
0.015417
0.018373
0.029611
-0.120295
-0.112923
-0.044681
0.038372
0.054147
0.034438
-0.098503
-0.098931
-0.045416
-0.040379
0.078785
0.080660
-0.105045
-0.087272
-0.091623
0.114756
-0.097717
0.027251
0.030164
0.041236
0.069227
0.076942
-0.013047
-0.109289
-0.103137
-0.004477
-0.036605
-0.016347
-0.013791
-0.113600
-0.086375
-0.119532
-0.083340
-0.094972
-0.097921
-0.085542
0.098286
0.099832
0.097002
0.070148
0.074943
-0.076741
-0.073330
-0.018244
-0.010520
0.115861
0.115250
-0.077071
0.088375
0.095760
-0.090651
-0.008029
-0.013590
-0.073591
-0.068424
-0.096172
-0.093976
-0.094228
-0.094346
-0.064971
0.084652
0.086522
0.087733
-0.155277
0.052682
0.077191
0.003788
0.008961
0.001014
-0.004475
0.118895
0.125652
0.134971
0.138664
0.000152
-0.028630
-0.026710
0.017976
0.078007
0.074604
0.090458
0.088500
-0.044564
-0.049753
0.029781
0.026269
0.031907
0.030860
0.013846
0.003648
0.019648
0.026293
-0.008223
0.093400
0.096036
-0.052518
-0.042339
-0.042319
0.040103
0.036576
-0.034566
0.033654
-0.104158
-0.100398
-0.107243
-0.000385
-0.002450
-0.108830
-0.109623
-0.102746
-0.064374
-0.065027
0.095370
0.100938
-0.061517
-0.067295
-0.060061
-0.030230
-0.041368
-0.064450
-0.007897
-0.002821
-0.102524
-0.014251
-0.008160
0.019541
0.018927
-0.046033
-0.047650
-0.051030
0.042522
0.004098
0.003669
0.092168
-0.008768
-0.023158
-0.015124
-0.018790
-0.079919
-0.083376
-0.082562
0.008144
-0.090953
0.010179
0.017863
-0.006140
-0.014664
-0.035171
0.029883
0.032571
0.028427
0.064872
0.061126
-0.097900
-0.099799
0.046515
0.033305
0.040915
0.063481
-0.006416
-0.067529
-0.093427
0.034914
-0.071699
-0.077207
0.025053
-0.077458
-0.063509
0.094124
0.092097
0.018602
0.123035
-0.103728
0.045126
-0.036507
-0.065244
-0.058002
-0.029225
-0.097921
-0.072123
-0.098997
0.084449
0.066867
0.067398
0.048278
0.111946
0.071704
0.019140
-0.037654
-0.035424
-0.061340
-0.058179
-0.052867
-0.053618
-0.052709
0.035773
0.040130
0.037257
0.020769
0.018807
0.053873
0.053387
0.048440
-0.053182
0.043877
0.083867
0.030473
0.039431
0.036599
-0.049619
0.074182
0.078478
0.032026
0.066524
0.064054
0.002206
-0.067746
-0.069762
-0.068859
-0.065774
0.050749
0.044523
0.063766
-0.089058
0.049130
-0.070592
-0.041474
-0.038334
-0.064031
-0.006249
0.085949
-0.083886
-0.086255
-0.082770
-0.029506
-0.087454
0.031991
-0.028299
-0.000927
-0.096973
-0.095216
-0.057382
0.004972
-0.053809
-0.053138
-0.007632
0.107591
0.109615
-0.076692
-0.052089
-0.088322
-0.006599
0.078802
0.068533
0.095422
0.082456
-0.007470
0.102180
-0.090942
-0.088978
-0.054521
-0.082479
-0.014137
-0.024130
-0.017030
-0.076053
-0.079930
-0.011309
-0.008083
-0.081494
-0.093788
-0.000965
-0.001708
-0.088218
-0.026207
-0.097617
-0.069743
-0.067459
-0.076111
-0.028677
0.010891
0.021542
0.026897
-0.028997
-0.071692
-0.078084
-0.006750
0.074759
-0.004587
0.050336
0.046447
0.055654
0.058840
0.043522
0.050758
-0.085923
-0.082235
-0.106730
0.058168
-0.069715
-0.005191
-0.002654
0.033501
-0.101500
0.049575
-0.012834
-0.010964
0.028625
0.042857
-0.110715
-0.133841
-0.016915
0.095814
-0.036113
0.059634
0.046157
-0.142965
-0.127685
-0.103363
0.119570
0.104260
-0.070854
-0.070749
-0.080387
0.031559
-0.040678
0.083283
0.001423
-0.016946
0.081602
0.047741
-0.100575
-0.142433
0.019945
-0.012319
-0.006114
-0.017779
0.052770
0.068348
0.028803
-0.044878
-0.053807
0.070646
0.026408
-0.094058
-0.092782
-0.099653
0.031285
0.053522
-0.094950
0.060412
0.070721
-0.072446
0.087417
0.057283
-0.085799
-0.090556
0.058157
-0.095986
-0.096704
-0.075650
0.003607
-0.010303
-0.016885
0.018927
-0.036028
0.084842
-0.083747
-0.081456
-0.063810
0.046106
-0.070073
-0.053332
-0.047773
0.060693
0.057204
-0.075289
-0.078852
-0.038887
0.033631
-0.084351
0.073824
-0.061957
0.064858
0.064442
0.064788
0.068235
0.050679
0.045424
0.054609
-0.057698
0.017478
-0.017457
0.025456
-0.046992
-0.044762
0.004757
0.009301
-0.088913
-0.073944
-0.065970
0.063691
0.063073
0.012420
0.059382
0.043050
-0.060946
-0.064503
0.014558
0.058459
0.011165
-0.079441
-0.080365
0.056804
0.050026
SCALARS UY float 1
LOOKUP_TABLE default
-0.000000
-0.000000
-0.855000
-0.855000
-0.245809
-0.602163
-0.000000
-0.000000
-0.000000
-0.000000
-0.000000
-0.000000
-0.000000
-0.000000
-0.000000
-0.107248
-0.194068
-0.276239
-0.354792
-0.430004
-0.504318
-0.581833
-0.667645
-0.760158
-0.855000
-0.855000
-0.855000
-0.855000
-0.855000
-0.855000
-0.855000
-0.855000
-0.855000
-0.766303
-0.678809
-0.593505
-0.511945
-0.435489
-0.361939
-0.287422
-0.204685
-0.111858
-0.255538
-0.264765
-0.273629
-0.276442
-0.284742
-0.293239
-0.296064
-0.303192
-0.310629
-0.318540
-0.322808
-0.328641
-0.334376
-0.341530
-0.346359
-0.352572
-0.357912
-0.364388
-0.372420
-0.375981
-0.383569
-0.387607
-0.393933
-0.402867
-0.408705
-0.411984
-0.419485
-0.424589
-0.432163
-0.437852
-0.445899
-0.447212
-0.455446
-0.462369
-0.465535
-0.474095
-0.482395
-0.485768
-0.495495
-0.500552
-0.508015
-0.511662
-0.516960
-0.526332
-0.532365
-0.539302
-0.543484
-0.553218
-0.557854
-0.565351
-0.575930
-0.579247
-0.591306
-0.525708
-0.534319
-0.535618
-0.546775
-0.246434
-0.250861
-0.235963
-0.313246
-0.305559
-0.303459
-0.730998
-0.785536
-0.728782
-0.292516
-0.361656
-0.352436
-0.348235
-0.773490
-0.339360
-0.342615
-0.338450
-0.366152
-0.402311
-0.348335
-0.405202
-0.183162
-0.209903
-0.203738
-0.623917
-0.632942
-0.616225
-0.052782
-0.070572
-0.117508
-0.619276
-0.302420
-0.296700
-0.318620
-0.278094
-0.345508
-0.355930
-0.275741
-0.267217
-0.260864
-0.351501
-0.340194
-0.255328
-0.485404
-0.481836
-0.477770
-0.379700
-0.386503
-0.393506
-0.497888
-0.493386
-0.479660
-0.396382
-0.425861
-0.397686
-0.339860
-0.350531
-0.357426
-0.398408
-0.383776
-0.427865
-0.634987
-0.656146
-0.629942
-0.339117
-0.204931
-0.171610
-0.471956
-0.274355
-0.278931
-0.490383
-0.479950
-0.263174
-0.565453
-0.570844
-0.547553
-0.587058
-0.494135
-0.506655
-0.428757
-0.419743
-0.419939
-0.448061
-0.461217
-0.455807
-0.408966
-0.563780
-0.574562
-0.574867
-0.476751
-0.357195
-0.357818
-0.349051
-0.339709
-0.349346
-0.355154
-0.440000
-0.435427
-0.436747
-0.440243
-0.339658
-0.359663
-0.384705
-0.348880
-0.564687
-0.581898
-0.566444
-0.468412
-0.366529
-0.346674
-0.351339
-0.360936
-0.553328
-0.539368
-0.725218
-0.792157
-0.782563
-0.483914
-0.440947
-0.455192
-0.612127
-0.617909
-0.631541
-0.619944
-0.397874
-0.414084
-0.405804
-0.277885
-0.268514
-0.254932
-0.508005
-0.524046
-0.411076
-0.425396
-0.413232
-0.425587
-0.405265
-0.474017
-0.486650
-0.478123
-0.349828
-0.352249
-0.366436
-0.349531
-0.329123
-0.337645
-0.555830
-0.570624
-0.558760
-0.570937
-0.281708
-0.270516
-0.280728
-0.268544
-0.545929
-0.561650
-0.490236
-0.484330
-0.473659
-0.292749
-0.279253
-0.259973
-0.285977
-0.294425
-0.196105
-0.209278
-0.200267
-0.553424
-0.574916
-0.538034
-0.556435
-0.541915
-0.524963
-0.524451
-0.405776
-0.402819
-0.416155
-0.559811
-0.541720
-0.473931
-0.416368
-0.377352
-0.318027
-0.314447
-0.328208
-0.392413
-0.379097
-0.400906
-0.385576
-0.428751
-0.414836
-0.423089
-0.421317
-0.492570
-0.485771
-0.480414
-0.494081
-0.288710
-0.297694
-0.303919
-0.442243
-0.448641
-0.431655
-0.222037
-0.211183
-0.369088
-0.371351
-0.372706
-0.371188
-0.388673
-0.248182
-0.242808
-0.247804
-0.265000
-0.253039
-0.359165
-0.319503
-0.325591
-0.333558
-0.699181
-0.673369
-0.679500
-0.228354
-0.472641
-0.178704
-0.179977
-0.152703
-0.264041
-0.259656
-0.276955
-0.040398
-0.049481
-0.084655
-0.155901
-0.127777
-0.450657
-0.451085
-0.430367
-0.139109
-0.158546
-0.188127
-0.281831
-0.291630
-0.308293
-0.325190
-0.538976
-0.530603
-0.527414
-0.691047
-0.664292
-0.547291
-0.361763
-0.313226
-0.343488
-0.578856
-0.585042
-0.564671
-0.665218
-0.651651
-0.535490
-0.559118
-0.369209
-0.389469
-0.376099
-0.397059
-0.354071
-0.366789
-0.407820
-0.081877
-0.071016
-0.114198
-0.104410
-0.304618
-0.315508
-0.374566
-0.328453
-0.499071
-0.462194
-0.805289
-0.751259
-0.458235
-0.458173
-0.413546
-0.438678
-0.525148
-0.534477
-0.590056
-0.541528
-0.185972
-0.555907
-0.575194
-0.595178
-0.550272
-0.552170
-0.554995
-0.578196
-0.276911
-0.325531
-0.501918
-0.581105
-0.541482
-0.638379
-0.162905
-0.153486
-0.134547
-0.530448
-0.550290
-0.526774
-0.181831
-0.312985
-0.287659
-0.287289
-0.376895
-0.234372
-0.237009
-0.240890
-0.231147
-0.253506
-0.715011
-0.732401
-0.510555
-0.701231
-0.652094
-0.674844
-0.532776
-0.519921
-0.638842
-0.510292
-0.264011
-0.514770
-0.307622
-0.329558
-0.288893
-0.688047
-0.125155
-0.117412
-0.101096
-0.243467
-0.173179
-0.780505
-0.717462
-0.294271
-0.064342
-0.120467
-0.269867
-0.273843
-0.198321
-0.659418
-0.652575
-0.692394
-0.379051
-0.392156
-0.564488
-0.586870
-0.411476
-0.403401
-0.630994
-0.619885
-0.570233
-0.423804
-0.409777
-0.632325
-0.649739
-0.640606
-0.358138
-0.376565
-0.067334
-0.309738
-0.291504
-0.032289
-0.102267
-0.044596
-0.051950
-0.315100
-0.470749
-0.343050
-0.467185
-0.529399
-0.491840
-0.519434
-0.524399
-0.508792
-0.546579
-0.437703
-0.436593
-0.475121
-0.486347
-0.584275
-0.595015
-0.490065
-0.523707
-0.468242
-0.430877
-0.458409
-0.479572
-0.145494
-0.134875
-0.676903
-0.640313
-0.404903
-0.412616
-0.419316
-0.401984
-0.610636
-0.457803
-0.469866
-0.465669
-0.486971
-0.450498
-0.429665
-0.588622
-0.594518
-0.251471
-0.241261
-0.549403
-0.506247
-0.535278
-0.475725
-0.094828
-0.225773
-0.217516
-0.654888
-0.425540
-0.409913
-0.573406
-0.576410
-0.551257
-0.531006
-0.297984
-0.288269
-0.308156
-0.294648
-0.799311
-0.747294
-0.753791
-0.275918
-0.792385
-0.526545
-0.530560
-0.220490
-0.205142
-0.219850
-0.310358
-0.305698
-0.215365
-0.291414
-0.315107
-0.315505
-0.313388
-0.581903
-0.595328
-0.357449
-0.377827
-0.295504
-0.526686
-0.533998
-0.483804
-0.485469
-0.556230
-0.511703
-0.531061
-0.545044
-0.457147
-0.476607
-0.590449
-0.606338
-0.421965
-0.288661
-0.273377
-0.607808
-0.622314
-0.517873
-0.526731
-0.519955
-0.362304
-0.714291
-0.686771
-0.554136
-0.250454
-0.582506
-0.595964
-0.595714
-0.487806
-0.489796
-0.504356
-0.225252
-0.401887
-0.610398
-0.595419
-0.700631
-0.732273
-0.228187
-0.311618
-0.317059
-0.319608
-0.455617
-0.451335
-0.448430
-0.464417
-0.256317
-0.217107
-0.211864
-0.346820
-0.573962
-0.493109
-0.389135
-0.165715
-0.509236
-0.485322
-0.253370
-0.506875
-0.502242
-0.516208
-0.514264
-0.204102
-0.460938
-0.327509
-0.319204
-0.608739
-0.151065
-0.167591
-0.106893
-0.207813
-0.143720
-0.369042
-0.706233
-0.744631
-0.699210
-0.744480
-0.648726
-0.347011
-0.297822
-0.502280
-0.510288
-0.502505
-0.499526
-0.547895
-0.208296
-0.215767
-0.321452
-0.330011
-0.332431
-0.333994
-0.327873
-0.332448
-0.340275
-0.306515
-0.611879
-0.329287
-0.211127
-0.252222
-0.277578
-0.250103
-0.509786
-0.449042
-0.441920
-0.328063
-0.393618
-0.383268
-0.603030
-0.496929
-0.494766
-0.238156
-0.506867
-0.212490
-0.168698
-0.208980
-0.667432
-0.331909
-0.230147
-0.494244
-0.484972
-0.505720
-0.665688
-0.574735
-0.457471
-0.446055
-0.454868
-0.554714
-0.449556
-0.349413
-0.567549
-0.231747
-0.392404
-0.380150
-0.509471
-0.239892
-0.512190
-0.502463
-0.242469
-0.485418
-0.451483
-0.221406
-0.187260
-0.216363
-0.228254
-0.421793
-0.660867
-0.637671
-0.617904
-0.607463
-0.462130
-0.435609
-0.438541
-0.519509
-0.394288
-0.622463
-0.603862
-0.607241
-0.482768
-0.469704
-0.609544
-0.624806
-0.360423
-0.368806
-0.288335
-0.626746
-0.435991
-0.587227
-0.428016
-0.438562
-0.445723
-0.453934
-0.709533
-0.256518
-0.230190
-0.224350
-0.612150
-0.462301
-0.446365
-0.178729
-0.506848
-0.203284
-0.393089
-0.386199
-0.375077
-0.387882
-0.380764
-0.620002
-0.439695
-0.447661
-0.334687
-0.358204
-0.499074
-0.641681
-0.125249
-0.734049
-0.331678
-0.795893
-0.160108
-0.198263
-0.069882
-0.081846
-0.779100
-0.773016
-0.199547
-0.508441
-0.075879
-0.137018
-0.137876
-0.321689
-0.703546
-0.702047
-0.591413
-0.586799
-0.422194
-0.432183
-0.436734
-0.789018
-0.146123
-0.424256
-0.222676
-0.634984
-0.364216
-0.701217
-0.262324
-0.652130
-0.636467
-0.213592
-0.215251
-0.545491
-0.630281
-0.263214
-0.272095
-0.608637
-0.585164
-0.597595
-0.345057
-0.326134
-0.332069
-0.338496
-0.602713
-0.247721
-0.315145
-0.435088
-0.597314
-0.495640
-0.523000
-0.329072
-0.258200
-0.268985
-0.351801
-0.276460
-0.277766
-0.395006
-0.294654
-0.264676
-0.262578
-0.320824
-0.518485
-0.453483
-0.436628
-0.426945
-0.576868
-0.339431
-0.243929
-0.482588
-0.487673
-0.373588
-0.364310
-0.464357
-0.456446
-0.242363
-0.306549
-0.371835
-0.606026
-0.520169
-0.464912
-0.408126
-0.396570
-0.403543
-0.425532
-0.404254
-0.361953
-0.445740
-0.346829
-0.533934
-0.375377
-0.232945
-0.448863
-0.304858
-0.322466
-0.302585
-0.408648
-0.410668
-0.476004
-0.386334
-0.305882
-0.375458
-0.370818
-0.457172
-0.466330
-0.558981
-0.424598
-0.312594
-0.465237
-0.458003
-0.368465
-0.375731
SCALARS DAMAGE float 1
LOOKUP_TABLE default
0.999844
0.999850
0.999887
0.999900
0.000000
0.000000
0.999903
0.999923
0.999937
0.999943
0.999941
0.999935
0.999926
0.999917
0.999897
0.999875
0.999906
0.999917
0.999924
0.999926
0.999926
0.999913
0.999897
0.999888
0.999900
0.999911
0.999924
0.999928
0.999924
0.999917
0.999912
0.999907
0.999904
0.999900
0.999904
0.999910
0.999919
0.999926
0.999930
0.999918
0.999904
0.999854
-0.000000
0.000000
0.000000
0.000000
0.000000
0.000000
0.000000
0.000000
0.000000
0.000000
0.000000
0.000000
0.000000
0.000000
0.000000
0.000000
0.000000
0.000000
0.000000
0.000000
0.000000
0.000000
0.000000
0.000000
0.000000
0.000000
0.000000
0.000000
0.000000
0.000000
0.000000
0.000000
0.000000
0.000000
0.000000
0.000000
0.000000
0.000000
0.000000
0.000000
0.000000
0.000000
0.000000
0.000000
0.000000
0.000000
0.000000
0.000000
0.000000
0.000000
0.000000
0.000000
-0.000000
0.678548
0.728266
0.862940
0.890146
0.481482
0.344875
0.649574
0.685405
0.689919
0.857595
0.999914
0.999914
0.999911
0.879896
0.980400
0.977527
0.991682
0.999910
0.988686
0.443535
0.491295
0.999904
0.999911
0.999910
0.999905
0.999925
0.999901
0.999866
0.943694
0.987868
0.947225
0.999929
0.999925
0.999922
0.981947
0.999331
0.999801
0.999423
0.999861
0.970216
0.952837
0.900978
0.890054
0.970612
0.933784
0.954947
0.953392
0.820263
0.870440
0.763484
0.448024
0.444749
0.670050
0.433178
0.389585
0.708106
0.999714
0.999890
0.999884
0.748501
0.668575
0.466533
0.999890
0.999902
0.999902
0.999907
0.999917
0.999913
0.844314
0.999921
0.999924
0.751239
0.726508
0.752559
0.683828
0.868592
0.844842
0.999679
0.999874
0.999645
0.999878
0.811587
0.516036
0.798266
0.754478
0.638191
0.879346
0.761404
0.673265
0.496174
0.768664
0.834892
0.898356
0.539685
0.879015
0.775372
0.895547
0.930914
0.904069
0.978089
0.999908
0.999915
0.917940
0.970518
0.999905
0.999909
0.999906
0.807211
0.510050
0.827941
0.681228
0.790134
0.751995
0.744891
0.687449
0.869921
0.350980
0.474908
0.999895
0.999894
0.999903
0.999905
0.999904
0.999902
0.513375
0.484289
0.845139
0.747205
0.706909
0.439365
0.448498
0.544010
0.656938
0.834284
0.718128
0.392427
0.715317
0.881204
0.873449
0.957024
0.999902
0.887819
0.952055
0.948542
0.433406
0.382457
0.675702
0.999344
0.998281
0.996188
0.881041
0.967026
0.960607
0.985247
0.916114
0.966051
0.959876
0.983808
0.957796
0.987214
0.972623
0.939271
0.986234
0.955166
0.984049
0.999015
0.996230
0.999870
0.994745
0.977138
0.981017
0.999890
0.999441
0.999478
0.994316
0.717031
0.454007
0.373272
0.922721
0.971559
0.936899
0.475867
0.689581
0.999911
0.999912
0.999918
0.931563
0.978870
0.931560
0.991974
0.998408
0.997478
0.999638
0.630868
0.782340
0.823496
0.999899
0.726859
0.732551
0.540978
0.850497
0.525926
0.473249
0.729948
0.996998
0.985801
0.994859
0.955728
0.987960
0.999623
0.999858
0.981803
0.996154
0.976703
0.985888
0.977771
0.692223
0.366622
0.493431
0.703191
0.988788
0.994056
0.980897
0.999918
0.999660
0.999965
0.970967
0.462721
0.998455
0.999566
0.999918
0.994624
0.998650
0.994800
0.999941
0.999937
0.999938
0.999928
0.999928
0.997114
0.999331
0.996294
0.999924
0.999929
0.999920
0.999913
0.999910
0.999907
0.999909