# vtk DataFile Version 2.0
Test
ASCII
DATASET POLYDATA
POINTS 858 float
0.000000 0.000000 0.000000
1.000000 0.000000 0.000000
1.000000 1.000000 0.000000
0.000000 1.000000 0.000000
0.300000 0.330000 0.000000
0.700000 0.680000 0.000000
0.100000 0.000000 0.000000
0.200000 0.000000 0.000000
0.300000 0.000000 0.000000
0.400000 0.000000 0.000000
0.500000 0.000000 0.000000
0.600000 0.000000 0.000000
0.700000 0.000000 0.000000
0.800000 0.000000 0.000000
0.900000 0.000000 0.000000
1.000000 0.100000 0.000000
1.000000 0.200000 0.000000
1.000000 0.300000 0.000000
1.000000 0.400000 0.000000
1.000000 0.500000 0.000000
1.000000 0.600000 0.000000
1.000000 0.700000 0.000000
1.000000 0.800000 0.000000
1.000000 0.900000 0.000000
0.900000 1.000000 0.000000
0.800000 1.000000 0.000000
0.700000 1.000000 0.000000
0.600000 1.000000 0.000000
0.500000 1.000000 0.000000
0.400000 1.000000 0.000000
0.300000 1.000000 0.000000
0.200000 1.000000 0.000000
0.100000 1.000000 0.000000
0.000000 0.900000 0.000000
0.000000 0.800000 0.000000
0.000000 0.700000 0.000000
0.000000 0.600000 0.000000
0.000000 0.500000 0.000000
0.000000 0.400000 0.000000
0.000000 0.300000 0.000000
0.000000 0.200000 0.000000
0.000000 0.100000 0.000000
0.307407 0.336481 0.000000
0.314815 0.342963 0.000000
0.322222 0.349444 0.000000
0.329630 0.355926 0.000000
0.337037 0.362407 0.000000
0.344444 0.368889 0.000000
0.351852 0.375370 0.000000
0.359259 0.381852 0.000000
0.366667 0.388333 0.000000
0.374074 0.394815 0.000000
0.381481 0.401296 0.000000
0.388889 0.407778 0.000000
0.396296 0.414259 0.000000
0.403704 0.420741 0.000000
0.411111 0.427222 0.000000
0.418519 0.433704 0.000000
0.425926 0.440185 0.000000
0.433333 0.446667 0.000000
0.440741 0.453148 0.000000
0.448148 0.459630 0.000000
0.455556 0.466111 0.000000
0.462963 0.472593 0.000000
0.470370 0.479074 0.000000
0.477778 0.485556 0.000000
0.485185 0.492037 0.000000
0.492593 0.498519 0.000000
0.500000 0.505000 0.000000
0.507407 0.511481 0.000000
0.514815 0.517963 0.000000
0.522222 0.524444 0.000000
0.529630 0.530926 0.000000
0.537037 0.537407 0.000000
0.544444 0.543889 0.000000
0.551852 0.550370 0.000000
0.559259 0.556852 0.000000
0.566667 0.563333 0.000000
0.574074 0.569815 0.000000
0.581481 0.576296 0.000000
0.588889 0.582778 0.000000
0.596296 0.589259 0.000000
0.603704 0.595741 0.000000
0.611111 0.602222 0.000000
0.618519 0.608704 0.000000
0.625926 0.615185 0.000000
0.633333 0.621667 0.000000
0.640741 0.628148 0.000000
0.648148 0.634630 0.000000
0.655556 0.641111 0.000000
0.662963 0.647593 0.000000
0.670370 0.654074 0.000000
0.677778 0.660556 0.000000
0.685185 0.667037 0.000000
0.692593 0.673519 0.000000
0.548037 0.570873 0.000000
0.554453 0.579695 0.000000
0.540788 0.582045 0.000000
0.550492 0.594703 0.000000
0.338797 0.350505 0.000000
0.329823 0.347064 0.000000
0.335712 0.339262 0.000000
0.451687 0.438509 0.000000
0.442642 0.430741 0.000000
0.457884 0.427703 0.000000
0.387297 0.847474 0.000000
0.374793 0.914734 0.000000
0.332869 0.847471 0.000000
0.447069 0.415163 0.000000
0.567391 0.482596 0.000000
0.554659 0.473874 0.000000
0.567453 0.464800 0.000000
0.301190 0.902112 0.000000
0.551747 0.457138 0.000000
0.356532 0.391813 0.000000
0.347986 0.386048 0.000000
0.176207 0.429241 0.000000
0.128375 0.468105 0.000000
0.136378 0.404291 0.000000
0.185621 0.475277 0.000000
0.497512 0.261165 0.000000
0.499167 0.296032 0.000000
0.469918 0.291504 0.000000
0.642232 0.687989 0.000000
0.624295 0.701188 0.000000
0.630549 0.678643 0.000000
0.647682 0.074905 0.000000
0.700945 0.096046 0.000000
0.657288 0.160421 0.000000
0.611443 0.684403 0.000000
0.559779 0.406431 0.000000
0.582162 0.394521 0.000000
0.580552 0.422827 0.000000
0.560788 0.374759 0.000000
0.541503 0.468043 0.000000
0.545465 0.480978 0.000000
0.428301 0.394826 0.000000
0.414860 0.384611 0.000000
0.432086 0.374027 0.000000
0.533961 0.477886 0.000000
0.527361 0.464336 0.000000
0.415481 0.368142 0.000000
0.484401 0.527206 0.000000
0.472984 0.524144 0.000000
0.481205 0.518972 0.000000
0.394266 0.424909 0.000000
0.401826 0.431399 0.000000
0.392742 0.434502 0.000000
0.642418 0.617836 0.000000
0.635302 0.612878 0.000000
0.644322 0.605726 0.000000
0.263646 0.464175 0.000000
0.250486 0.498376 0.000000
0.230296 0.467342 0.000000
0.491693 0.468898 0.000000
0.498004 0.479972 0.000000
0.487381 0.480785 0.000000
0.718619 0.489140 0.000000
0.756680 0.466072 0.000000
0.751564 0.516847 0.000000
0.497232 0.719177 0.000000
0.477497 0.748035 0.000000
0.465924 0.716726 0.000000
0.501292 0.467390 0.000000
0.529064 0.285755 0.000000
0.547173 0.240449 0.000000
0.474742 0.511943 0.000000
0.403118 0.392815 0.000000
0.412434 0.399392 0.000000
0.653057 0.614785 0.000000
0.659187 0.602396 0.000000
0.400247 0.379451 0.000000
0.459133 0.636583 0.000000
0.434636 0.647284 0.000000
0.440667 0.616932 0.000000
0.453650 0.664799 0.000000
0.666296 0.616100 0.000000
0.657731 0.628197 0.000000
0.420489 0.468863 0.000000
0.414183 0.459489 0.000000
0.424065 0.460120 0.000000
0.629321 0.574616 0.000000
0.630370 0.589442 0.000000
0.617226 0.584388 0.000000
0.422026 0.450877 0.000000
0.590180 0.614274 0.000000
0.596278 0.627413 0.000000
0.585881 0.628067 0.000000
0.630677 0.603443 0.000000
0.529117 0.486095 0.000000
0.517046 0.488781 0.000000
0.522040 0.477224 0.000000
0.308641 0.392803 0.000000
0.323746 0.398675 0.000000
0.304273 0.411173 0.000000
0.146020 0.514086 0.000000
0.087335 0.505198 0.000000
0.624982 0.561914 0.000000
0.643811 0.559907 0.000000
0.831909 0.406061 0.000000
0.881376 0.423788 0.000000
0.839177 0.457573 0.000000
0.509066 0.478681 0.000000
0.614792 0.620247 0.000000
0.608406 0.635616 0.000000
0.603251 0.619643 0.000000
0.640290 0.595050 0.000000
0.524731 0.497540 0.000000
0.338689 0.392113 0.000000
0.347423 0.395876 0.000000
0.340116 0.407012 0.000000
0.686563 0.659098 0.000000
0.682555 0.651347 0.000000
0.934704 0.856355 0.000000
0.940546 0.930926 0.000000
0.863552 0.916423 0.000000
0.172107 0.566287 0.000000
0.188105 0.516551 0.000000
0.221330 0.532895 0.000000
0.683914 0.680068 0.000000
0.692945 0.685712 0.000000
0.683376 0.697853 0.000000
0.672414 0.683990 0.000000
0.557147 0.529227 0.000000
0.554161 0.540325 0.000000
0.546244 0.533101 0.000000
0.391911 0.394487 0.000000
0.387591 0.383772 0.000000
0.385780 0.368800 0.000000
0.671617 0.628861 0.000000
0.664093 0.637808 0.000000
0.408700 0.450928 0.000000
0.406517 0.467364 0.000000
0.394366 0.455525 0.000000
0.388841 0.472148 0.000000
0.792728 0.486062 0.000000
0.461047 0.516036 0.000000
0.460182 0.532753 0.000000
0.450617 0.523703 0.000000
0.364207 0.398120 0.000000
0.371344 0.402923 0.000000
0.362621 0.408449 0.000000
0.235276 0.413110 0.000000
0.235915 0.390376 0.000000
0.260894 0.399649 0.000000
0.564107 0.604249 0.000000
0.558497 0.625526 0.000000
0.545610 0.611482 0.000000
0.542035 0.628852 0.000000
0.441269 0.401429 0.000000
0.443649 0.385779 0.000000
0.454140 0.398188 0.000000
0.456246 0.380948 0.000000
0.531090 0.597071 0.000000
0.528592 0.618783 0.000000
0.693800 0.600685 0.000000
0.675646 0.601117 0.000000
0.688895 0.583493 0.000000
0.466943 0.412411 0.000000
0.469666 0.393398 0.000000
0.215629 0.311290 0.000000
0.236374 0.342186 0.000000
0.194357 0.347185 0.000000
0.372859 0.289727 0.000000
0.362694 0.307734 0.000000
0.346245 0.295576 0.000000
0.824768 0.656091 0.000000
0.787989 0.680173 0.000000
0.787481 0.637866 0.000000
0.763354 0.658567 0.000000
0.564845 0.587843 0.000000
0.565674 0.575091 0.000000
0.575285 0.580662 0.000000
0.591463 0.532694 0.000000
0.606735 0.524365 0.000000
0.606700 0.541268 0.000000
0.696107 0.663701 0.000000
0.695223 0.651919 0.000000
0.114270 0.553146 0.000000
0.897846 0.490106 0.000000
0.941355 0.438159 0.000000
0.491870 0.442127 0.000000
0.508682 0.433741 0.000000
0.504276 0.453072 0.000000
0.616608 0.507977 0.000000
0.629719 0.487283 0.000000
0.643435 0.510566 0.000000
0.660659 0.486926 0.000000
0.584650 0.557787 0.000000
0.582076 0.545531 0.000000
0.595086 0.552412 0.000000
0.215445 0.494211 0.000000
0.502563 0.534321 0.000000
0.493623 0.527201 0.000000
0.502900 0.523550 0.000000
0.490744 0.536689 0.000000
0.303740 0.348241 0.000000
0.312638 0.354325 0.000000
0.302746 0.359450 0.000000
0.683727 0.548378 0.000000
0.666144 0.562133 0.000000
0.663581 0.542222 0.000000
0.366098 0.324774 0.000000
0.379406 0.309842 0.000000
0.251675 0.434611 0.000000
0.214900 0.437402 0.000000
0.581091 0.493223 0.000000
0.603283 0.484739 0.000000
0.593195 0.510449 0.000000
0.429738 0.356510 0.000000
0.412970 0.350726 0.000000
0.358920 0.356811 0.000000
0.352460 0.366146 0.000000
0.347463 0.357590 0.000000
0.353794 0.402394 0.000000
0.527483 0.436280 0.000000
0.546965 0.439869 0.000000
0.535210 0.453469 0.000000
0.624606 0.790385 0.000000
0.614250 0.755688 0.000000
0.654837 0.763041 0.000000
0.384960 0.332814 0.000000
0.619946 0.597007 0.000000
0.358705 0.265521 0.000000
0.397502 0.266486 0.000000
0.377869 0.228897 0.000000
0.471169 0.372235 0.000000
0.492664 0.362648 0.000000
0.488718 0.386734 0.000000
0.431288 0.062893 0.000000
0.512348 0.074893 0.000000
0.450325 0.128772 0.000000
0.515327 0.223180 0.000000
0.538419 0.183215 0.000000
0.367912 0.509419 0.000000
0.343175 0.515399 0.000000
0.351317 0.488263 0.000000
0.593186 0.193353 0.000000
0.476496 0.230456 0.000000
0.594140 0.256114 0.000000
0.629340 0.367381 0.000000
0.659922 0.374166 0.000000
0.641019 0.397588 0.000000
0.669525 0.412603 0.000000
0.510665 0.591750 0.000000
0.493263 0.584115 0.000000
0.507476 0.576852 0.000000
0.492575 0.790205 0.000000
0.516533 0.753914 0.000000
0.493265 0.606545 0.000000
0.794852 0.435952 0.000000
0.797754 0.379724 0.000000
0.755728 0.420083 0.000000
0.528549 0.642034 0.000000
0.507334 0.653897 0.000000
0.509532 0.626562 0.000000
0.580705 0.748031 0.000000
0.605192 0.727758 0.000000
0.748472 0.635779 0.000000
0.742539 0.660255 0.000000
0.323194 0.421808 0.000000
0.325468 0.445306 0.000000
0.301700 0.435431 0.000000
0.295276 0.460827 0.000000
0.622421 0.457821 0.000000
0.642814 0.468538 0.000000
0.320303 0.468200 0.000000
[...]
POINT_DATA 858
SCALARS UX float 1
LOOKUP_TABLE default
-0.000000
0.000000
0.133814
-0.180725
-0.089301
0.080500
0.000000
-0.000000
-0.000000
-0.000000
-0.000000
0.000000
0.000000
0.000000
-0.000000
0.075779
0.120619
0.150800
0.173787
0.188412
0.189436
0.175603
0.154354
0.138834
0.100230
0.067239
0.036619
0.009144
-0.019712
-0.050605
-0.082761
-0.115814
-0.148426
-0.183114
-0.188963
-0.198081
-0.207009
-0.210587
-0.200268
-0.172380
-0.129668
-0.080116
-0.085523
-0.080670
-0.076073
-0.076841
-0.071853
-0.066566
-0.067655
-0.064342
-0.060704
-0.057210
-0.059561
-0.055156
-0.052128
-0.047786
-0.046995
-0.042920
-0.041810
-0.038695
-0.033965
-0.033225
-0.028413
-0.027318
-0.024288
-0.018878
-0.016217
-0.016657
-0.010954
-0.009183
-0.004875
-0.001911
0.003792
0.003036
0.008478
0.012433
0.012778
0.018129
0.023073
0.024688
0.024025
0.026490
0.032081
0.034410
0.036898
0.042936
0.045415
0.047787
0.049225
0.055840
0.057463
0.060404
0.068070
0.067479
0.075104
-0.053540
-0.050501
-0.055532
-0.049329
-0.034705
-0.046898
-0.035659
0.032546
0.027681
0.033566
-0.058343
-0.059560
-0.076468
0.027518
0.070923
0.066368
0.066331
-0.084451
0.061403
-0.109102
-0.114325
-0.157223
-0.172610
-0.163666
-0.157201
0.004645
0.009875
0.001593
0.015622
0.011426
0.006358
0.008860
0.017821
0.023548
0.000333
0.049428
0.051536
0.058085
0.041754
0.062465
0.066428
0.017007
0.010424
0.011884
0.063477
0.058935
0.005948
-0.082834
-0.086525
-0.084611
-0.101825
-0.101047
-0.111275
0.093887
0.087341
0.104547
-0.136920
-0.138697
-0.145297
0.050975
0.053206
0.040587
0.105179
0.112145
0.118471
-0.032825
-0.035565
-0.043830
0.054114
0.015609
0.013519
-0.086555
0.007256
0.011854
0.105809
0.108704
0.004808
-0.061518
-0.066249
-0.071039
-0.057018
0.110358
0.102378
-0.105905
-0.107625
-0.102968
0.100319
0.100726
0.095778
-0.100463
-0.030089
-0.024918
-0.028613
0.097039
0.064009
0.060471
0.060831
-0.128163
-0.126136
-0.129213
-0.167961
-0.185122
0.098030
0.100832
0.123952
0.142836
0.135529
0.057814
-0.012457
-0.018028
-0.021939
0.103691
0.063412
-0.122361
-0.120003
-0.123729
0.097777
0.104339
0.122207
0.115957
0.090588
-0.157184
-0.155487
-0.144662
0.045222
0.058510
0.046132
0.032686
0.075990
0.066437
0.063815
0.000346
-0.000966
-0.002312
0.110598
0.095548
-0.109430
-0.109584
-0.113278
-0.112196
0.125931
-0.090540
-0.087470
-0.091193
-0.104882
-0.097983
-0.117539
-0.142606
-0.139958
-0.136925
-0.042322
-0.037657
-0.045527
-0.041033
0.022177
0.018213
0.024410
0.019642
-0.053974
-0.047729
0.114106
0.111233
0.111761
0.031736
0.026447
-0.112528
-0.125238
-0.135230
-0.028064
-0.029563
-0.038466
0.134179
0.118244
0.130805
0.121462
-0.045006
-0.038090
-0.026466
0.086952
0.087923
0.091638
0.104674
0.111650
-0.175758
0.157671
0.163513
0.045578
0.046706
0.051405
0.085937
0.083810
0.091442
0.090282
0.084959
0.086684
0.091163
-0.148616
-0.075271
-0.079067
-0.072235
-0.079395
-0.116232
-0.113994
-0.123597
0.105938
0.104871
0.101146
-0.023897
-0.022593
-0.140096
-0.148644
0.076059
0.077999
0.082315
0.005841
-0.000268
-0.017850
-0.031496
-0.026910
-0.119307
0.051083
0.055801
0.057414
0.018728
0.014593
0.029771
-0.014428
0.089393
-0.032972
-0.021217
-0.024975
0.020438
0.022769
0.028627
-0.004234
-0.000540
-0.006974
0.005116
0.006301
-0.109550
-0.113793
-0.115918
0.016935
-0.002636
0.026269
0.056999
0.066617
0.066677
0.077341
-0.060497
-0.066792
-0.065648
-0.026380
-0.021287
-0.060258
0.118310
0.107917
0.103409
-0.040589
-0.043364
-0.050349
0.001232
0.008567
0.124689
0.118337
-0.126279
-0.124852
-0.129523
-0.129707
0.075543
0.082420
-0.124106
0.007128
-0.011760
-0.009924
-0.015031
-0.146971
-0.161563
-0.184773
-0.149361
-0.134798
-0.131940
-0.033934
-0.037109
0.108659
0.111586
-0.132389
-0.129746
-0.169250
-0.144956
-0.171258
-0.187697
-0.044462
-0.101337
-0.089386
-0.095454
-0.091683
-0.017396
-0.013161
-0.151456
0.127653
0.148791
0.113768
-0.129699
-0.127087
-0.150728
-0.037359
-0.042656
-0.029929
-0.085795
-0.083198
-0.093541
-0.050507
0.126476
0.021722
0.016933
-0.123564
-0.024188
-0.016036
0.017012
0.018897
0.024873
0.028680
0.016044
0.128797
-0.050646
-0.063880
-0.043391
-0.069202
-0.073498
-0.050834
0.134975
0.105110
-0.072487
0.091663
0.089440
0.075821
-0.069527
-0.021884
-0.031866
-0.021783
0.012449
0.033269
-0.106623
-0.099870
0.018947
0.022564
0.036365
-0.147742
-0.138689
-0.054876
0.047105
0.066480
0.042276
-0.120992
-0.121516
-0.055796
-0.049612
0.096765
0.099066
-0.129025
-0.107198
-0.112541
0.140940
-0.120024
0.033448
0.037026
0.050621
0.085026
0.094499
-0.016023
-0.134233
-0.126676
-0.005499
-0.044955
-0.020075
-0.016936
-0.139526
-0.106096
-0.146812
-0.102369
-0.116654
-0.120275
-0.105073
0.120733
0.122623
0.119148
0.086157
0.092048
-0.094270
-0.090080
-0.022436
-0.012961
0.142299
0.141548
-0.094678
0.108539
0.117611
-0.111347
-0.009861
-0.016691
-0.090396
-0.084051
-0.118128
-0.115428
-0.115738
-0.115889
-0.079811
0.103972
0.106270
0.107753
-0.190713
0.064704
0.094809
0.004570
0.010900
0.001247
-0.005496
0.146019
0.154322
0.165763
0.170301
0.000186
-0.035165
-0.032806
0.022058
0.095811
0.091633
0.111094
0.108687
-0.054748
-0.061117
0.036585
0.032269
0.039198
0.037907
0.016987
0.004464
0.024113
0.032296
-0.010115
0.114766
0.117994
-0.064504
-0.052000
-0.051977
0.049262
0.044929
-0.042454
0.041338
-0.127932
-0.123315
-0.131720
-0.000526
-0.003069
-0.133672
-0.134645
-0.126197
-0.079078
-0.079880
0.117134
0.123974
-0.075570
-0.082666
-0.073780
-0.037140
-0.050794
-0.079102
-0.009746
-0.003514
-0.125928
-0.017515
-0.010026
0.023925
0.023217
-0.056546
-0.058533
-0.062683
0.052337
0.005016
0.004487
0.113191
-0.010770
-0.028468
-0.018608
-0.023107
-0.098168
-0.102414
-0.101414
0.010001
-0.111719
0.012423
0.021795
-0.007559
-0.018026
-0.043199
0.036714
0.040010
0.034915
0.079680
0.075076
-0.120248
-0.122582
0.057128
0.040902
0.050248
0.077971
-0.007909
-0.082945
-0.114763
0.042878
-0.088074
-0.094839
0.030771
-0.095147
-0.078004
0.115630
0.113152
0.022845
0.151108
-0.127404
0.055432
-0.044858
-0.080129
-0.071235
-0.035891
-0.120261
-0.088576
-0.121598
0.103694
0.082099
0.082754
0.059270
0.137470
0.088067
0.023518
-0.046258
-0.043518
-0.075338
-0.071455
-0.064945
-0.065853
-0.064737
0.043943
0.049298
0.045767
0.025469
0.023072
0.066174
0.065580
0.059498
-0.065334
0.053902
0.102998
0.037427
0.048431
0.044950
-0.060949
0.091116
0.096391
0.039329
0.081712
0.078680
0.002642
-0.083217
-0.085696
-0.084572
-0.080795
0.062326
0.054679
0.078312
-0.109391
0.060352
-0.086700
-0.050950
-0.047097
-0.078651
-0.007696
0.105560
-0.103041
-0.105947
-0.101674
-0.036255
-0.107419
0.039292
-0.034776
-0.001139
-0.119113
-0.116957
-0.070480
0.006107
-0.066094
-0.065269
-0.009373
0.132144
0.134627
-0.094191
-0.063974
-0.108473
-0.008103
0.096787
0.084149
0.117177
0.101254
-0.009214
0.125497
-0.111701
-0.109289
-0.066971
-0.101301
-0.017390
-0.029661
-0.020945
-0.093423
-0.098185
-0.013923
-0.009957
-0.100116
-0.115200
-0.001181
-0.002130
-0.108355
-0.032212
-0.119901
-0.085708
-0.082911
-0.093514
-0.035237
0.013376
0.026458
0.033034
-0.035636
-0.088100
-0.095934
-0.008290
0.091807
-0.005633
0.061824
0.057058
0.068373
0.072275
0.053465
0.062318
-0.105541
-0.101022
-0.131091
0.071453
-0.085638
-0.006401
-0.003260
0.041124
-0.124669
0.060862
-0.015762
-0.013465
0.035154
0.052631
-0.135987
-0.164388
-0.020774
0.117690
-0.044350
0.073236
0.056685
-0.175587
-0.156828
-0.126958
0.146841
0.128040
-0.087054
-0.086936
-0.098756
0.038739
-0.049958
0.102287
0.001748
-0.020837
0.100222
0.058612
-0.123525
-0.174940
0.024474
-0.015129
-0.007509
-0.021845
0.064790
0.083940
0.035377
-0.055137
-0.066102
0.086752
0.032417
-0.115531
-0.113967
-0.122402
0.038409
0.065733
-0.116626
0.074198
0.086852
-0.088993
0.107453
0.070358
-0.105379
-0.111223
0.071437
-0.117894
-0.118776
-0.092901
0.004442
-0.012658
-0.020744
0.023248
-0.044259
0.104204
-0.102873
-0.100053
-0.078386
0.056648
-0.086065
-0.065500
-0.058679
0.074556
0.070276
-0.092499
-0.096872
-0.047765
0.041313
-0.103621
0.090654
-0.076108
0.079665
0.079150
0.079578
0.083811
0.062239
0.055780
0.067096
-0.070936
0.021424
-0.021449
0.031277
-0.057718
-0.054993
0.005861
0.011402
-0.109210
-0.090809
-0.081042
0.078236
0.077476
0.015314
0.072948
0.052939
-0.075006
-0.079293
0.017882
0.071799
0.013727
-0.097587
-0.098724
0.069785
0.061460
SCALARS UY float 1
LOOKUP_TABLE default
-0.000000
-0.000000
-1.050000
-1.050000
-0.301868
-0.739508
-0.000000
-0.000000
-0.000000
-0.000000
-0.000000
-0.000000
-0.000000
-0.000000
-0.000000
-0.131709
-0.238329
-0.339241
-0.435708
-0.528073
-0.619331
-0.714521
-0.819903
-0.933520
-1.050000
-1.050000
-1.050000
-1.050000
-1.050000
-1.050000
-1.050000
-1.050000
-1.050000
-0.941072
-0.833624
-0.728868
-0.628708
-0.534816
-0.444492
-0.352982
-0.251375
-0.137375
-0.313818
-0.325151
-0.336039
-0.339495
-0.349690
-0.360128
-0.363600
-0.372358
-0.381498
-0.391218
-0.396464
-0.403647
-0.410702
-0.419507
-0.425434
-0.433153
-0.439653
-0.447637
-0.457464
-0.461804
-0.471111
-0.476082
-0.483861
-0.494855
-0.502047
-0.506090
-0.515388
-0.521504
-0.530813
-0.537777
-0.547638
-0.549236
-0.559339
-0.567835
-0.571714
-0.582221
-0.592410
-0.596546
-0.608486
-0.614690
-0.623849
-0.628326
-0.634816
-0.646342
-0.653712
-0.662225
-0.667350
-0.679266
-0.685003
-0.694021
-0.707350
-0.711341
-0.726165
-0.645610
-0.656185
-0.657780
-0.671482
-0.302633
-0.308072
-0.289772
-0.384678
-0.375233
-0.372653
-0.897716
-0.964693
-0.894994
-0.359208
-0.444121
-0.432801
-0.427642
-0.949899
-0.416745
-0.420764
-0.415645
-0.449661
-0.494068
-0.427782
-0.497618
-0.224923
-0.257761
-0.250189
-0.766222
-0.777301
-0.756767
-0.064818
-0.086666
-0.144303
-0.760514
-0.371379
-0.364356
-0.391275
-0.341506
-0.424295
-0.437091
-0.338596
-0.328134
-0.320334
-0.431656
-0.417771
-0.313537
-0.596093
-0.591698
-0.586651
-0.466301
-0.474637
-0.483248
-0.611422
-0.605911
-0.589010
-0.486785
-0.522988
-0.488388
-0.417338
-0.430438
-0.438927
-0.489262
-0.471297
-0.525442
-0.779809
-0.805792
-0.773612
-0.416435
-0.251657
-0.210739
-0.579581
-0.336903
-0.342513
-0.602169
-0.589365
-0.323175
-0.694417
-0.701036
-0.672434
-0.720949
-0.606776
-0.622138
-0.526566
-0.515498
-0.515742
-0.550217
-0.566368
-0.559732
-0.502265
-0.692367
-0.705612
-0.705985
-0.585432
-0.438647
-0.439417
-0.428651
-0.417187
-0.429023
-0.436155
-0.540353
-0.534739
-0.536325
-0.540618
-0.417120
-0.441688
-0.472442
-0.428440
-0.693482
-0.714622
-0.695639
-0.575198
-0.450101
-0.425742
-0.431472
-0.443257
-0.679553
-0.662461
-0.890613
-0.972821
-0.961042
-0.594282
-0.541515
-0.559009
-0.751788
-0.758872
-0.775619
-0.761408
-0.488595
-0.508509
-0.498341
-0.341244
-0.329738
-0.313058
-0.623810
-0.643486
-0.504854
-0.522435
-0.507485
-0.522658
-0.497690
-0.582118
-0.597628
-0.587162
-0.429627
-0.432587
-0.450009
-0.429252
-0.404190
-0.414655
-0.682603
-0.700771
-0.686202
-0.701155
-0.345930
-0.332187
-0.344731
-0.329768
-0.670443
-0.689750
-0.602025
-0.594754
-0.581663
-0.359498
-0.342923
-0.319264
-0.351196
-0.361576
-0.240819
-0.256997
-0.245932
-0.679642
-0.706038
-0.660745
-0.683344
-0.665513
-0.644693
-0.644061
-0.498296
-0.494665
-0.511040
-0.687526
-0.665346
-0.582022
-0.511327
-0.463413
-0.390533
-0.386143
-0.403039
-0.481887
-0.465537
-0.492318
-0.473496
-0.526512
-0.509424
-0.519557
-0.517408
-0.604918
-0.596563
-0.590001
-0.606765
-0.354557
-0.365591
-0.373234
-0.543085
-0.550933
-0.530077
-0.272665
-0.259335
-0.453268
-0.456047
-0.457688
-0.455825
-0.477294
-0.304763
-0.298165
-0.304312
-0.325437
-0.310744
-0.441083
-0.392357
-0.399835
-0.409621
-0.858653
-0.826954
-0.834491
-0.280420
-0.580403
-0.219452
-0.221012
-0.187520
-0.324241
-0.318858
-0.340101
-0.049609
-0.060763
-0.103956
-0.191448
-0.156911
-0.553442
-0.553965
-0.528523
-0.170828
-0.194695
-0.231024
-0.346098
-0.358133
-0.378594
-0.399345
-0.661903
-0.651620
-0.647704
-0.848653
-0.815797
-0.672114
-0.444265
-0.384659
-0.421821
-0.710879
-0.718475
-0.693458
-0.816937
-0.800278
-0.657624
-0.686644
-0.453416
-0.478296
-0.461877
-0.487617
-0.434808
-0.450426
-0.500833
-0.100545
-0.087208
-0.140236
-0.128216
-0.374094
-0.387470
-0.459997
-0.403366
-0.612895
-0.567606
-0.988951
-0.922598
-0.562720
-0.562653
-0.507865
-0.538728
-0.644921
-0.656376
-0.724631
-0.665037
-0.228379
-0.682692
-0.706377
-0.730920
-0.675772
-0.678105
-0.681572
-0.710066
-0.340063
-0.399772
-0.616363
-0.713637
-0.664978
-0.783975
-0.200052
-0.188487
-0.165227
-0.651427
-0.675795
-0.646916
-0.223296
-0.384364
-0.353231
-0.352765
-0.462855
-0.287816
-0.291051
-0.295813
-0.283850
-0.311308
-0.878095
-0.899447
-0.626999
-0.861160
-0.800816
-0.828755
-0.654287
-0.638500
-0.784542
-0.626675
-0.324219
-0.632175
-0.377775
-0.404712
-0.354773
-0.844969
-0.153692
-0.144187
-0.124148
-0.298976
-0.212669
-0.958514
-0.881092
-0.361349
-0.079015
-0.147938
-0.331420
-0.336302
-0.243546
-0.809835
-0.801421
-0.850325
-0.465502
-0.481596
-0.693232
-0.720718
-0.505301
-0.495388
-0.774905
-0.761262
-0.700286
-0.520458
-0.503236
-0.776584
-0.797955
-0.786739
-0.439805
-0.462435
-0.082689
-0.380389
-0.357987
-0.039651
-0.125591
-0.054767
-0.063798
-0.386965
-0.578114
-0.421291
-0.573739
-0.650138
-0.604013
-0.637901
-0.644003
-0.624834
-0.671250
-0.537504
-0.536139
-0.583480
-0.597265
-0.717539
-0.730726
-0.601834
-0.643147
-0.575030
-0.529133
-0.562951
-0.588949
-0.178667
-0.165627
-0.831284
-0.786348
-0.497251
-0.506723
-0.514952
-0.493663
-0.749902
-0.562176
-0.576986
-0.571839
-0.598038
-0.553225
-0.527630
-0.722887
-0.730139
-0.308804
-0.296268
-0.674702
-0.621704
-0.657355
-0.584220
-0.116449
-0.277257
-0.267115
-0.804264
-0.522564
-0.503376
-0.704203
-0.707879
-0.676985
-0.652116
-0.365925
-0.353995
-0.378413
-0.361830
-0.981613
-0.917733
-0.925716
-0.338830
-0.973105
-0.646607
-0.651578
-0.270772
-0.251922
-0.269985
-0.381126
-0.375401
-0.264476
-0.357862
-0.386974
-0.387464
-0.384863
-0.714629
-0.731110
-0.438974
-0.463999
-0.362898
-0.646807
-0.655787
-0.594138
-0.596189
-0.683089
-0.628405
-0.652180
-0.669356
-0.561479
-0.585314
-0.725119
-0.744626
-0.518203
-0.354495
-0.335719
-0.746503
-0.764280
-0.635987
-0.646865
-0.638544
-0.444907
-0.877203
-0.843407
-0.680553
-0.307563
-0.715365
-0.731891
-0.731583
-0.599061
-0.601505
-0.619385
-0.276610
-0.493544
-0.749609
-0.731212
-0.860426
-0.899283
-0.280224
-0.382668
-0.389345
-0.392483
-0.559503
-0.554247
-0.550705
-0.570338
-0.314766
-0.266614
-0.260176
-0.425906
-0.704872
-0.605562
-0.477886
-0.203503
-0.625377
-0.596009
-0.311142
-0.622479
-0.616789
-0.633926
-0.631531
-0.250640
-0.566063
-0.402205
-0.391991
-0.747574
-0.185521
-0.205813
-0.131270
-0.255214
-0.176503
-0.453211
-0.867303
-0.914461
-0.858682
-0.914280
-0.796676
-0.426143
-0.365703
-0.616840
-0.626673
-0.617115
-0.613458
-0.672854
-0.255799
-0.264973
-0.394736
-0.405248
-0.408221
-0.410176
-0.402668
-0.408255
-0.417867
-0.376409
-0.751428
-0.404373
-0.259277
-0.309735
-0.340874
-0.307134
-0.626056
-0.551426
-0.542679
-0.402861
-0.483366
-0.470657
-0.740565
-0.610257
-0.607600
-0.292471
-0.622465
-0.260946
-0.207168
-0.256638
-0.819652
-0.407594
-0.282635
-0.606973
-0.595591
-0.621057
-0.817513
-0.705848
-0.561812
-0.547796
-0.558614
-0.681232
-0.552092
-0.429089
-0.696996
-0.284583
-0.481901
-0.466854
-0.625669
-0.294584
-0.629008
-0.617063
-0.297755
-0.596128
-0.554452
-0.271901
-0.229966
-0.265711
-0.280294
-0.517965
-0.811596
-0.783103
-0.758833
-0.746010
-0.567525
-0.534963
-0.538566
-0.637996
-0.484222
-0.764429
-0.741587
-0.745736
-0.592873
-0.576831
-0.748565
-0.767306
-0.442635
-0.452922
-0.354073
-0.769689
-0.535441
-0.721160
-0.525635
-0.538607
-0.547408
-0.557468
-0.871355
-0.315001
-0.282677
-0.275507
-0.751763
-0.567744
-0.548171
-0.219479
-0.622408
-0.249632
-0.482721
-0.474266
-0.460597
-0.476323
-0.467574
-0.761432
-0.539989
-0.549763
-0.411020
-0.439882
-0.612894
-0.788030
-0.153806
-0.901473
-0.407325
-0.977415
-0.196613
-0.243466
-0.085820
-0.100513
-0.956789
-0.949317
-0.245045
-0.624399
-0.093187
-0.168267
-0.169320
-0.395062
-0.864003
-0.862162
-0.726292
-0.720629
-0.518497
-0.530764
-0.536347
-0.968975
-0.179447
-0.520996
-0.273445
-0.779805
-0.447274
-0.861153
-0.322153
-0.800862
-0.781648
-0.262291
-0.264327
-0.669900
-0.774050
-0.323240
-0.334138
-0.747448
-0.718621
-0.733903
-0.423748
-0.400519
-0.407809
-0.415700
-0.740257
-0.304212
-0.387023
-0.534299
-0.733562
-0.608678
-0.642254
-0.404110
-0.317085
-0.330332
-0.432019
-0.339512
-0.341117
-0.485142
-0.361812
-0.325033
-0.322459
-0.394013
-0.636737
-0.556875
-0.536223
-0.524337
-0.708433
-0.416832
-0.299560
-0.592666
-0.598905
-0.458771
-0.447379
-0.570259
-0.560547
-0.297635
-0.376440
-0.456645
-0.744252
-0.638803
-0.570916
-0.501185
-0.486992
-0.495554
-0.522569
-0.496441
-0.444486
-0.547465
-0.425941
-0.655704
-0.461008
-0.286068
-0.551304
-0.374308
-0.396020
-0.371598
-0.501885
-0.504356
-0.584538
-0.474422
-0.375607
-0.461066
-0.455362
-0.561552
-0.572470
-0.686435
-0.521417
-0.383794
-0.571343
-0.562460
-0.452480
-0.461403
SCALARS DAMAGE float 1
LOOKUP_TABLE default
0.999759
0.999769
0.999826
0.999847
0.000000
0.000000
0.999850
0.999882
0.999902
0.999912
0.999909
0.999900
0.999886
0.999872
0.999841
0.999807
0.999854
0.999872
0.999882
0.999886
0.999887
0.999866
0.999842
0.999827
0.999845
0.999862
0.999882
0.999889
0.999882
0.999872
0.999864
0.999857
0.999852
0.999846
0.999852
0.999861
0.999876
0.999886
0.999892
0.999873
0.999851
0.999775
-0.000000
0.000000
0.000000
0.000000
0.000000
0.000000
0.000000
0.000000
0.000000
0.000000
0.000000
0.000000
0.000000
0.000000
0.000000
0.000000
0.000000
0.000000
0.000000
0.000000
0.000000
0.000000
0.000000
0.000000
0.000000
0.000000
0.000000
0.000000
0.000000
0.000000
0.000000
0.000000
0.000000
0.000000
0.000000
0.000000
0.000000
0.000000
0.000000
0.000000
0.000000
0.000000
0.000000
0.000000
0.000000
0.000000
0.000000
0.000000
0.000000
0.000000
0.000000
0.000000
-0.000000
0.678522
0.728239
0.862909
0.890114
0.481465
0.344863
0.649552
0.685379
0.689893
0.857565
0.999867
0.999868
0.999863
0.879866
0.980361
0.977489
0.991642
0.999862
0.988648
0.443515
0.491272
0.999853
0.999862
0.999861
0.999853
0.999885
0.999861
0.999827
0.943657
0.987828
0.947189
0.999890
0.999884
0.999879
0.981908
0.999289
0.999758
0.999381
0.999818
0.970180
0.952801
0.900947
0.890024
0.970578
0.933750
0.954912
0.953360
0.820231
0.870407
0.763452
0.448004
0.444729
0.670021
0.433158
0.389567
0.708074
0.999659
0.999836
0.999829
0.748471
0.668546
0.466511
0.999837
0.999849
0.999848
0.999864
0.999872
0.999868
0.844282
0.999879
0.999883
0.751209
0.726483
0.752533
0.683797
0.868552
0.844812
0.999636
0.999829
0.999603
0.999834
0.811548
0.516011
0.798235
0.754447
0.638164
0.879310
0.761372
0.673236
0.496151
0.768634
0.834861
0.898323
0.539660
0.878982
0.775342
0.895514
0.930862
0.904023
0.978035
0.999858
0.999868
0.917902
0.970476
0.999853
0.999860
0.999855
0.807180
0.510029
0.827911
0.681202
0.790099
0.751965
0.744856
0.687418
0.869880
0.350961
0.474882
0.999839
0.999836
0.999850
0.999854
0.999852
0.999850
0.513354
0.484268
0.845103
0.747175
0.706880
0.439346
0.448479
0.543988
0.656913
0.834255
0.718092
0.392408
0.715287
0.881169
0.873413
0.956985
0.999849
0.887786
0.952019
0.948506
0.433386
0.382440
0.675671
0.999288
0.998224
0.996128
0.881009
0.966992
0.960573
0.985211
0.916083
0.966017
0.959843
0.983773
0.957761
0.987177
0.972570
0.939225
0.986183
0.955133
0.984014
0.998950
0.996167
0.999814
0.994708
0.977102
0.980981
0.999837
0.999380
0.999422
0.994253
0.717002
0.453988
0.373256
0.922684
0.971519
0.936860
0.475837
0.689539
0.999862
0.999865
0.999874
0.931529
0.978834
0.931526
0.991932
0.998364
0.997432
0.999590
0.630838
0.782306
0.823461
0.999846
0.726829
0.732520
0.540952
0.850464
0.525892
0.473222
0.729902
0.996948
0.985754
0.994812
0.955693
0.987923
0.999567
0.999804
0.981764
0.996112
0.976663
0.985853
0.977736
0.692198
0.366609
0.493414
0.703159
0.988750
0.994018
0.980861
0.999880
0.999621
0.999928
0.970932
0.462700
0.998421
0.999530
0.999884
0.994587
0.998611
0.994763
0.999909
0.999904
0.999904
0.999888
0.999890
0.997069
0.999284
0.996248
0.999882
0.999891
0.999876
0.999866
0.999862
0.999859
0.999860