# vtk DataFile Version 2.0
Test
ASCII
DATASET POLYDATA
POINTS 858 float
0.000000 0.000000 0.000000
1.000000 0.000000 0.000000
1.000000 1.000000 0.000000
0.000000 1.000000 0.000000
0.300000 0.330000 0.000000
0.700000 0.680000 0.000000
0.100000 0.000000 0.000000
0.200000 0.000000 0.000000
0.300000 0.000000 0.000000
0.400000 0.000000 0.000000
0.500000 0.000000 0.000000
0.600000 0.000000 0.000000
0.700000 0.000000 0.000000
0.800000 0.000000 0.000000
0.900000 0.000000 0.000000
1.000000 0.100000 0.000000
1.000000 0.200000 0.000000
1.000000 0.300000 0.000000
1.000000 0.400000 0.000000
1.000000 0.500000 0.000000
1.000000 0.600000 0.000000
1.000000 0.700000 0.000000
1.000000 0.800000 0.000000
1.000000 0.900000 0.000000
0.900000 1.000000 0.000000
0.800000 1.000000 0.000000
0.700000 1.000000 0.000000
0.600000 1.000000 0.000000
0.500000 1.000000 0.000000
0.400000 1.000000 0.000000
0.300000 1.000000 0.000000
0.200000 1.000000 0.000000
0.100000 1.000000 0.000000
0.000000 0.900000 0.000000
0.000000 0.800000 0.000000
0.000000 0.700000 0.000000
0.000000 0.600000 0.000000
0.000000 0.500000 0.000000
0.000000 0.400000 0.000000
0.000000 0.300000 0.000000
0.000000 0.200000 0.000000
0.000000 0.100000 0.000000
0.307407 0.336481 0.000000
0.314815 0.342963 0.000000
0.322222 0.349444 0.000000
0.329630 0.355926 0.000000
0.337037 0.362407 0.000000
0.344444 0.368889 0.000000
0.351852 0.375370 0.000000
0.359259 0.381852 0.000000
0.366667 0.388333 0.000000
0.374074 0.394815 0.000000
0.381481 0.401296 0.000000
0.388889 0.407778 0.000000
0.396296 0.414259 0.000000
0.403704 0.420741 0.000000
0.411111 0.427222 0.000000
0.418519 0.433704 0.000000
0.425926 0.440185 0.000000
0.433333 0.446667 0.000000
0.440741 0.453148 0.000000
0.448148 0.459630 0.000000
0.455556 0.466111 0.000000
0.462963 0.472593 0.000000
0.470370 0.479074 0.000000
0.477778 0.485556 0.000000
0.485185 0.492037 0.000000
0.492593 0.498519 0.000000
0.500000 0.505000 0.000000
0.507407 0.511481 0.000000
0.514815 0.517963 0.000000
0.522222 0.524444 0.000000
0.529630 0.530926 0.000000
0.537037 0.537407 0.000000
0.544444 0.543889 0.000000
0.551852 0.550370 0.000000
0.559259 0.556852 0.000000
0.566667 0.563333 0.000000
0.574074 0.569815 0.000000
0.581481 0.576296 0.000000
0.588889 0.582778 0.000000
0.596296 0.589259 0.000000
0.603704 0.595741 0.000000
0.611111 0.602222 0.000000
0.618519 0.608704 0.000000
0.625926 0.615185 0.000000
0.633333 0.621667 0.000000
0.640741 0.628148 0.000000
0.648148 0.634630 0.000000
0.655556 0.641111 0.000000
0.662963 0.647593 0.000000
0.670370 0.654074 0.000000
0.677778 0.660556 0.000000
0.685185 0.667037 0.000000
0.692593 0.673519 0.000000
0.548037 0.570873 0.000000
0.554453 0.579695 0.000000
0.540788 0.582045 0.000000
0.550492 0.594703 0.000000
0.338797 0.350505 0.000000
0.329823 0.347064 0.000000
0.335712 0.339262 0.000000
0.451687 0.438509 0.000000
0.442642 0.430741 0.000000
0.457884 0.427703 0.000000
0.387297 0.847474 0.000000
0.374793 0.914734 0.000000
0.332869 0.847471 0.000000
0.447069 0.415163 0.000000
0.567391 0.482596 0.000000
0.554659 0.473874 0.000000
0.567453 0.464800 0.000000
0.301190 0.902112 0.000000
0.551747 0.457138 0.000000
0.356532 0.391813 0.000000
0.347986 0.386048 0.000000
0.176207 0.429241 0.000000
0.128375 0.468105 0.000000
0.136378 0.404291 0.000000
0.185621 0.475277 0.000000
0.497512 0.261165 0.000000
0.499167 0.296032 0.000000
0.469918 0.291504 0.000000
0.642232 0.687989 0.000000
0.624295 0.701188 0.000000
0.630549 0.678643 0.000000
0.647682 0.074905 0.000000
0.700945 0.096046 0.000000
0.657288 0.160421 0.000000
0.611443 0.684403 0.000000
0.559779 0.406431 0.000000
0.582162 0.394521 0.000000
0.580552 0.422827 0.000000
0.560788 0.374759 0.000000
0.541503 0.468043 0.000000
0.545465 0.480978 0.000000
0.428301 0.394826 0.000000
0.414860 0.384611 0.000000
0.432086 0.374027 0.000000
0.533961 0.477886 0.000000
0.527361 0.464336 0.000000
0.415481 0.368142 0.000000
0.484401 0.527206 0.000000
0.472984 0.524144 0.000000
0.481205 0.518972 0.000000
0.394266 0.424909 0.000000
0.401826 0.431399 0.000000
0.392742 0.434502 0.000000
0.642418 0.617836 0.000000
0.635302 0.612878 0.000000
0.644322 0.605726 0.000000
0.263646 0.464175 0.000000
0.250486 0.498376 0.000000
0.230296 0.467342 0.000000
0.491693 0.468898 0.000000
0.498004 0.479972 0.000000
0.487381 0.480785 0.000000
0.718619 0.489140 0.000000
0.756680 0.466072 0.000000
0.751564 0.516847 0.000000
0.497232 0.719177 0.000000
0.477497 0.748035 0.000000
0.465924 0.716726 0.000000
0.501292 0.467390 0.000000
0.529064 0.285755 0.000000
0.547173 0.240449 0.000000
0.474742 0.511943 0.000000
0.403118 0.392815 0.000000
0.412434 0.399392 0.000000
0.653057 0.614785 0.000000
0.659187 0.602396 0.000000
0.400247 0.379451 0.000000
0.459133 0.636583 0.000000
0.434636 0.647284 0.000000
0.440667 0.616932 0.000000
0.453650 0.664799 0.000000
0.666296 0.616100 0.000000
0.657731 0.628197 0.000000
0.420489 0.468863 0.000000
0.414183 0.459489 0.000000
0.424065 0.460120 0.000000
0.629321 0.574616 0.000000
0.630370 0.589442 0.000000
0.617226 0.584388 0.000000
0.422026 0.450877 0.000000
0.590180 0.614274 0.000000
0.596278 0.627413 0.000000
0.585881 0.628067 0.000000
0.630677 0.603443 0.000000
0.529117 0.486095 0.000000
0.517046 0.488781 0.000000
0.522040 0.477224 0.000000
0.308641 0.392803 0.000000
0.323746 0.398675 0.000000
0.304273 0.411173 0.000000
0.146020 0.514086 0.000000
0.087335 0.505198 0.000000
0.624982 0.561914 0.000000
0.643811 0.559907 0.000000
0.831909 0.406061 0.000000
0.881376 0.423788 0.000000
0.839177 0.457573 0.000000
0.509066 0.478681 0.000000
0.614792 0.620247 0.000000
0.608406 0.635616 0.000000
0.603251 0.619643 0.000000
0.640290 0.595050 0.000000
0.524731 0.497540 0.000000
0.338689 0.392113 0.000000
0.347423 0.395876 0.000000
0.340116 0.407012 0.000000
0.686563 0.659098 0.000000
0.682555 0.651347 0.000000
0.934704 0.856355 0.000000
0.940546 0.930926 0.000000
0.863552 0.916423 0.000000
0.172107 0.566287 0.000000
0.188105 0.516551 0.000000
0.221330 0.532895 0.000000
0.683914 0.680068 0.000000
0.692945 0.685712 0.000000
0.683376 0.697853 0.000000
0.672414 0.683990 0.000000
0.557147 0.529227 0.000000
0.554161 0.540325 0.000000
0.546244 0.533101 0.000000
0.391911 0.394487 0.000000
0.387591 0.383772 0.000000
0.385780 0.368800 0.000000
0.671617 0.628861 0.000000
0.664093 0.637808 0.000000
0.408700 0.450928 0.000000
0.406517 0.467364 0.000000
0.394366 0.455525 0.000000
0.388841 0.472148 0.000000
0.792728 0.486062 0.000000
0.461047 0.516036 0.000000
0.460182 0.532753 0.000000
0.450617 0.523703 0.000000
0.364207 0.398120 0.000000
0.371344 0.402923 0.000000
0.362621 0.408449 0.000000
0.235276 0.413110 0.000000
0.235915 0.390376 0.000000
0.260894 0.399649 0.000000
0.564107 0.604249 0.000000
0.558497 0.625526 0.000000
0.545610 0.611482 0.000000
0.542035 0.628852 0.000000
0.441269 0.401429 0.000000
0.443649 0.385779 0.000000
0.454140 0.398188 0.000000
0.456246 0.380948 0.000000
0.531090 0.597071 0.000000
0.528592 0.618783 0.000000
0.693800 0.600685 0.000000
0.675646 0.601117 0.000000
0.688895 0.583493 0.000000
0.466943 0.412411 0.000000
0.469666 0.393398 0.000000
0.215629 0.311290 0.000000
0.236374 0.342186 0.000000
0.194357 0.347185 0.000000
0.372859 0.289727 0.000000
0.362694 0.307734 0.000000
0.346245 0.295576 0.000000
0.824768 0.656091 0.000000
0.787989 0.680173 0.000000
0.787481 0.637866 0.000000
0.763354 0.658567 0.000000
0.564845 0.587843 0.000000
0.565674 0.575091 0.000000
0.575285 0.580662 0.000000
0.591463 0.532694 0.000000
0.606735 0.524365 0.000000
0.606700 0.541268 0.000000
0.696107 0.663701 0.000000
0.695223 0.651919 0.000000
0.114270 0.553146 0.000000
0.897846 0.490106 0.000000
0.941355 0.438159 0.000000
0.491870 0.442127 0.000000
0.508682 0.433741 0.000000
0.504276 0.453072 0.000000
0.616608 0.507977 0.000000
0.629719 0.487283 0.000000
0.643435 0.510566 0.000000
0.660659 0.486926 0.000000
0.584650 0.557787 0.000000
0.582076 0.545531 0.000000
0.595086 0.552412 0.000000
0.215445 0.494211 0.000000
0.502563 0.534321 0.000000
0.493623 0.527201 0.000000
0.502900 0.523550 0.000000
0.490744 0.536689 0.000000
0.303740 0.348241 0.000000
0.312638 0.354325 0.000000
0.302746 0.359450 0.000000
0.683727 0.548378 0.000000
0.666144 0.562133 0.000000
0.663581 0.542222 0.000000
0.366098 0.324774 0.000000
0.379406 0.309842 0.000000
0.251675 0.434611 0.000000
0.214900 0.437402 0.000000
0.581091 0.493223 0.000000
0.603283 0.484739 0.000000
0.593195 0.510449 0.000000
0.429738 0.356510 0.000000
0.412970 0.350726 0.000000
0.358920 0.356811 0.000000
0.352460 0.366146 0.000000
0.347463 0.357590 0.000000
0.353794 0.402394 0.000000
0.527483 0.436280 0.000000
0.546965 0.439869 0.000000
0.535210 0.453469 0.000000
0.624606 0.790385 0.000000
0.614250 0.755688 0.000000
0.654837 0.763041 0.000000
0.384960 0.332814 0.000000
0.619946 0.597007 0.000000
0.358705 0.265521 0.000000
0.397502 0.266486 0.000000
0.377869 0.228897 0.000000
0.471169 0.372235 0.000000
0.492664 0.362648 0.000000
0.488718 0.386734 0.000000
0.431288 0.062893 0.000000
0.512348 0.074893 0.000000
0.450325 0.128772 0.000000
0.515327 0.223180 0.000000
0.538419 0.183215 0.000000
0.367912 0.509419 0.000000
0.343175 0.515399 0.000000
0.351317 0.488263 0.000000
0.593186 0.193353 0.000000
0.476496 0.230456 0.000000
0.594140 0.256114 0.000000
0.629340 0.367381 0.000000
0.659922 0.374166 0.000000
0.641019 0.397588 0.000000
0.669525 0.412603 0.000000
0.510665 0.591750 0.000000
0.493263 0.584115 0.000000
0.507476 0.576852 0.000000
0.492575 0.790205 0.000000
0.516533 0.753914 0.000000
0.493265 0.606545 0.000000
0.794852 0.435952 0.000000
0.797754 0.379724 0.000000
0.755728 0.420083 0.000000
0.528549 0.642034 0.000000
0.507334 0.653897 0.000000
0.509532 0.626562 0.000000
0.580705 0.748031 0.000000
0.605192 0.727758 0.000000
0.748472 0.635779 0.000000
0.742539 0.660255 0.000000
0.323194 0.421808 0.000000
0.325468 0.445306 0.000000
0.301700 0.435431 0.000000
0.295276 0.460827 0.000000
0.622421 0.457821 0.000000
0.642814 0.468538 0.000000
0.320303 0.468200 0.000000
[...]
POINT_DATA 858
SCALARS UX float 1
LOOKUP_TABLE default
7238291034128552186938615582781603840.000000
688557725173886491123901755044134912.000000
839431470207300024901174412285490233813762048.000000
-763510492650333479979656849670461958509297664.000000
-15459684376061743413372857701552589626356531200.000000
3115207873584830247895457283366458731465277440.000000
-4636491981027276991076954136941428736.000000
6343131517963320149608022849366261760.000000
-6061675187903451109079603342213120000.000000
957100676663960213582853722184089600.000000
-176505277847495868122392325867438080.000000
434254221170337122452608633528123392.000000
-338381277403417625172895196843606016.000000
239323152384129985267049984402915328.000000
-724180230973395916460011459436347392.000000
267098838419369782303458828295654535543652352.000000
976671164746971321370902621376887083302387712.000000
945978973065881594526701205340219945865183232.000000
1080769518407274128387493022664221936486187008.000000
-2894489452021465888797634021252389693055565824.000000
-6411568168596294860800793256744367628220366848.000000
-5146276114466153858638209283722119852907823104.000000
-3880016423061246856075440335894876707933388800.000000
-1028469273069108614462911224049477646620295168.000000
-3035875498326912493032644235975291494408912896.000000
-3033545875280703065523204553876130350499889152.000000
967902290289084192049119875706871110172672000.000000
1752798562441631678010070150901941811753779200.000000
1427427956107611988105156555903240990875451392.000000
1867101292995734238279231218962281151672090624.000000
-841545270510402509335653340923816787929202688.000000
-773211185048188026288307214882375726769635328.000000
-729928180429199847370360665216845687830872064.000000
-532052196074894449956564364265390461111238656.000000
245851971020132027611139697611568264423407616.000000
1041176841405045134703677566015658730763321344.000000
32568015217979900598569543175907230363942912.000000
2084609368398425980955490106794419487437225984.000000
47012924339606182808639300815913072279706140672.000000
38051289294353457476525552127339800560102539264.000000
-12319215581498837140467297516036014917829001216.000000
-62690132666100020000312290655592811311853993984.000000
-5201519551972854166139813973054635739615068160.000000
3767124171901932553696257736058099879680933888.000000
3172185533990827632701254136471582688178864128.000000
3624046203093663268505807818232605735531839488.000000
3082431556919406769875554357390510736336224256.000000
3342460192659260808853929298259507995194949632.000000
3144299126527706773973784865391644863518212096.000000
726090963159948901687400517083119885786021888.000000
2041787785556280413270817598975659869544120320.000000
685963729544216724349484618253535331382984704.000000
402917800045662403030843951058543820834603008.000000
350825567502185122790116994067307280872767488.000000
165357285254202617124227341367463683651796992.000000
51661457042269717747500125887658812363505664.000000
376837890797220458538705874077131634108268544.000000
449435470855246756296297379660532130603073536.000000
108456316417018526796392627823346709539323904.000000
10997310455314323688547098963541610360471552.000000
-105363657572762003987332498240564187891761152.000000
197650311014278213182011741792253657120505856.000000
960815234932193293646034885430048867846455296.000000
879030708087739924433418903741882927859892224.000000
972215065203668247687918916471959236590436352.000000
1149399411808824885113241511760909248946503680.000000
-89183589247045378585990997632651686208824410112.000000
1289962457015000880873625435330815322694352896.000000
1096514065485573083036329615629710790435536896.000000
144183072749555206797591523587137418745211781120.000000
388574164655310126990227285606988812635865088.000000
427749297704307159131903125356835962213105664.000000
409062550308610295790951884649647000535433216.000000
4304789707024202390829286895641410110062854144.000000
2047947266043794155756327479512788179993231360.000000
2002985679088339114550047321597440728124882944.000000
1686066279288399008150410457348459932183166976.000000
1181618685877408192672445645367656393079783424.000000
772791741086987670019078659014300125318086656.000000
1009994507187172040818316436945929191099990016.000000
1052218465774270810380277732690716945199136768.000000
974801616236490652147734743192541081962020864.000000
1114407728366338690581924946087714518049226752.000000
875676596595444490216742189387541570266333184.000000
723217889018906233719203501823134953497427968.000000
729819886758358166072575200047397545260875776.000000
794971539356003172493367141729275280564944896.000000
450327875636897575977936049435948269564854272.000000
115301364970799105466339534006853732944314368.000000
101439817694124744337260422047546103031660544.000000
-462028732435386147945007915490032938947444736.000000
1624052992951684702822770609106352903733379072.000000
1656043722947723638238306627677226123785142272.000000
2603902360876598819543225468185295047209517056.000000
2934190876007644436468719551583521962012442624.000000
691036040526508601765052491796640442378878976.000000
255535048359285476780144085637123519029444608.000000
510725320738413383274607989053665052838592512.000000
772354680548223355844764904492290088800092160.000000
122617095163001954216102531040711363194511683485696.000000
3948657784548876856920392588987893885773545472.000000
4327966465733719327422839668489259151272181760.000000
127572587223889555252586578575437780247117824.000000
642525979097485647150591303077605867138318336.000000
711451516486279039748401905581036172421890048.000000
-982275437419050487949355601176756555685560320.000000
247916778453087480868662908993181457227710464.000000
-239326488667624873496194655295309851979153408.000000
761098907472671346747207299202639273052340224.000000
784598364006866329682992569326614553447890944.000000
641105631709239063350863277340327845956681728.000000
641838320657604037899470976699854716812656640.000000
-589474763424549468947112725710507332715151360.000000
597682889961923436839370054945535926655254528.000000
3495945795988487613043825319917856151981522944.000000
2338065935507144097123058670953944230542704640.000000
4307653152287324721365745248311808415208833024.000000
2054351080017077483204585036254932411518812160.000000
3058707301902616883999930937395551524609851392.000000
695385368626918216618764258845231340268290048.000000
-437415774376861327016073332554410625467416576.000000
1356823744934714041262415138620872902173523968.000000
1116300999163666788369898371214654725047713792.000000
409380066246563514843309360357091505896161280.000000
435190690324145731157870066234513872201449472.000000
224110725773370547669230187974179168150618112.000000
7374287492536740634062510822949265831100416.000000
-29429439674982734082476189667606826911268864.000000
-87504357654146310094380345339864225599717376.000000
174918208637387524020683430556875253367177216.000000
423071192382439426319224574874735675906719744.000000
410429952611589932547439791746315808814399488.000000
457062682086488763118180118219017745388797952.000000
390285870078487366828333537520170769676500992.000000
736901205567311336270985816505132593191059456.000000
781039721612315324497147334098676619495342080.000000
650024851510832282283148739294693075900694528.000000
923246160659857169868391638338157225671917568.000000
668440940535667578710974670656395727832350720.000000
793358589591483666915251159898417286116016128.000000
678841277462745160605917625712483977796780032.000000
676297483419271674002019662757741081785270272.000000
522785572883152200569363649969094593068662784.000000
522201349365035984370898163398571171048849408.000000
215262592397734222000224137560077762484502528.000000
91041328653241031081727475127860166683262976.000000
604063308169687646237755904263138825423814656.000000
745843119504452899214729422657171102573264896.000000
295550480755338030293133113409564797822828544.000000
43059809009834047076147551158307044181671936.000000
586229355427335227458953265788297483441405952.000000
648273365009123893899897377034173873727209472.000000
1087625465892445173425520794088241977008062464.000000
1140896915843713680855699004623635244143083520.000000
762568436195480333971472892781090383895461888.000000
1005987015261271717523319526942566943765299200.000000
1085411944858723251662874586689066600960622592.000000
903388840150851469118567681428468323917496320.000000
916671293780922724763972474222260371289276416.000000
920631198314358583586013163610723938652389376.000000
-667073969047286403751611563690768242430705664.000000
-595793520538332465434084807014596510465654784.000000
-659704439804046197118584221333964761549766656.000000
718222466540334960550055094138189646359691264.000000
-503955925445313110768739224628552808355856384.000000
-310539472504620306643473507805627491771482112.000000
846916420823130058398623211253731879792148480.000000
513011344920633377011365280658074556996517888.000000
338018024938827374512320484341706101524267008.000000
122173398955846066929227614820142016339378176.000000
726244679678151216244731129915310981641142272.000000
587936435712501473090295130310420990185701376.000000
283501980353433667731686137394655016037384192.000000
68217856416647708498164980994479939172140318720.000000
-525103797264277596869967479529920516623171584.000000
7643186788112400485685378837880084925436133376.000000
1854491177878814144880053629458160788090912768.000000
401529906892406891238837447128812173182107648.000000
-372940788118718623286584429168492454644547584.000000
281089022391830488709240504864681177420660736.000000
318907238111419636832081487604442123863064576.000000
1554452441269222436024282614212799401283289088.000000
1408632474158676577748013517724769668063821824.000000
1521095400363921836590562884043698175456837632.000000
-26029879224963644364327497091370521626411008.000000
635232632778333433158555300102177852529573888.000000
400896570176375865960741750587918087792623616.000000
800948632866530534439543978948425672472657920.000000
524391888035771514855269844089120906083827712.000000
783450571230962668635980748791501374332338176.000000
844200346575303737829655983487152583696449536.000000
662206612648884321986884197556701881650118656.000000
22972861449302125595406756716966547723502223360.000000
27784209669125907131991130563012170752355991552.000000
-2392331632539842327144836062215637693802479616.000000
2282751706023659106474553512517416455623409664.000000
1828498258991828602011926951332363627908825088.000000
1568338467810831218378687490725909852231565312.000000
1554463437947393880715541331442297341388783616.000000
2320113024801982526474990248438888511473451008.000000
2463592250889827058716384433722941893240684544.000000
31735770571341329242188074040255166514009735168.000000
1081271484587796231391427766213691680688701440.000000
593922817813055057228264543761012170860527616.000000
324487800689540750324701992323997817102139392.000000
651054824315233539626449706840107347645300736.000000
1100237789434774892000524661361434637258194944.000000
111110025526027370641658867524583387525996871680.000000
4169841873173859109329827046674804750061404160.000000
3980922708481553012180193622740241067162992640.000000
3411041074792764833144428668880666373323227136.000000
2244948683863454468342114195246897988789862400.000000
1359792799226162676241583610222090093653393408.000000
-2959490392606468037900013705144709556444594176.000000
-3061111725611057086110368730320781268790280192.000000
-2850335976441012246407076879086180130499854336.000000
1330992275154140284438508538664805801253666816.000000
1671227372106299615947234730601901245964746752.000000
1370975644465414118400493849402303642972717056.000000
2835810520400994389601044697709879629208092672.000000
2048400971909369374809074591893504145215193088.000000
213557097001756465144072716233286913590558720.000000
-257182582768193684996913621001868377174573056.000000
2693930422200823634092775567877965064708292608.000000
2238569516959650775845060358717175874476572672.000000
2814885744600728463730947763036274240929136640.000000
417738302048012147559446930432006954458021888.000000
1000194036440030812839361788591745182786912256.000000
687938319206447837036965266681826835444006912.000000
745064091408225560386236795005920472545099776.000000
544158091909689563938573153166055338210754560.000000
-119335289698389590050006678293576202011541504.000000
436678564954034110709170129456885734894993408.000000
684147182923741744350578156309797192507326464.000000
1018667342227572256962483254769749849358204928.000000
889429637454648833230553955741259631406612480.000000
724943884307643681882012379829995945179742208.000000
871728886070894526152131419458499992314970112.000000
25346641199612701135633404732148583669241479168.000000
3658374756779499029846674354514060329156083712.000000
363453166842417148829992005298597329069146112.000000
385147529773810107365914839686262989422329856.000000
2853777637446191419645013174619071156383121408.000000
3495054956917088689999846082221662897044455424.000000
3233467392781233129789167084330295700242825216.000000
645308004144889697578939734248968383862145024.000000
667561491853379515571427212044061087977439232.000000
773036915762655541406734013473334991886745600.000000
669363066137686193584380634198344928208093184.000000
834711342057000611906778899869528228393648128.000000
621107525459217321643601054754534951860830208.000000
890952913123607181590159578298400265815982080.000000
911217089418411970796824143811750332922331136.000000
1964528670953367845817498752100516274404065280.000000
691701730940830676782428839772527161587531776.000000
-84338341457842874896901261047889408227803136.000000
-1132911476313704269890572732008100533513486336.000000
-74533280601053093087560588781103683056173056.000000
836785226764935145684293978136257809059151872.000000
953877077014030952729577299100963423995822080.000000
3601823083788044455667839955564962283517902848.000000
3877225113764597673425318991728693029273337856.000000
4425331123166404828902352968247310952685371392.000000
729585740486152547124264648244389699372711936.000000
1336610206592761736759144155991810000650502144.000000
179229783366375488584574178382922908100984832.000000
-3362508364652729185021612117933970334653874176.000000
-5683819090679170976454140628325360055315595264.000000
-3236790706291325265082885751195826192077815808.000000
-4943427129471068470802568549638303061932769280.000000
1009658701912108012807077475807971653112037376.000000
722570369328444275151017949644118249028190208.000000
1020014365363559921333788355681526874153943040.000000
1033381404753490268422571774623471993614237696.000000
1339453379915399965523776955262988808355840000.000000
1308126850917144129447310966652215075157311488.000000
2882939062022846642413259595514735044245585920.000000
1104511418527322871062303472574836705081688064.000000
1450022420441470194255280181133707384824266752.000000
-2298934397188140992174437993845716397806583808.000000
-835721374492922912946418335673162767769010176.000000
596946814149081065653940600908303220212760576.000000
834682734671024179940008739538690360832163840.000000
725925286080214378134743879798663500045221888.000000
1373543599315524958488786979375417049353289728.000000
923450685428670244223487491439855621933891584.000000
1200465746056180871492403080730879938283962368.000000
940575813039403811542108171078391737427689472.000000
1226103374551946587553177622775749095052017664.000000
2119808126307157887204971188690870032173891584.000000
1236464506590788488967960305192529452395921408.000000
1051444651983057702897214547130194089534816256.000000
284663480504186061469205958536450634764255232.000000
-6597286003088598644826824239406811191443456.000000
245716204444475986912811910143508991386320896.000000
322282493565393606043284100764857371707047936.000000
3043850708970979566298261197383955813161238528.000000
3112931075151829184586629929982861694784765952.000000
6588793776628068280227259084576516588292800512.000000
1327623045100869853470606475318523749218648064.000000
271612930876974389767368247050487512657035264.000000
1163176517305169766142559308998485053750116352.000000
537847262677738042348336301619420237408501760.000000
1237715152874526992154272326147243929793200128.000000
-122879229632632038104727242679047243173986304.000000
1088864734702264829734830879198281733167382528.000000
990264622388276996653298794042087958112108544.000000
970540043059210727218262965920293224143912960.000000
1112414240953510771637424399736911004749004800.000000
643654151019148247716122598409473582404993024.000000
523565038993811362069610592126299943886389248.000000
6630454078731938646851683927092764901692669952.000000
3487932790641319938127233227762093766867943424.000000
2861303411175832914758643853454257731691085824.000000
3647994631543620000220762634589361233884872704.000000
306956786950412286349399020610401947246133248.000000
424605870907339443931943307178567940280680448.000000
682618826442288001659753350785247010833301504.000000
-301921378694176722133798484505036513926447104.000000
-212165430614746648693254757256589749593833472.000000
-246325182053928254685011415658228009358327808.000000
809649277844009079589757727104654991610085376.000000
1278245691146176761085683021253132823386128384.000000
272643921220371669624764284659575758696480768.000000
594320423560603875021297595398878778517094400.000000
-727755813122128765961595953572351957979365376.000000
991890476657661682427005533523749307093614592.000000
1302349672649832320655169067667310169536069632.000000
991783160763559721675768721019751081493659648.000000
58130621061476840285928417702574662275301376.000000
77338107230127100139971762559462343549386752.000000
75948013451659055381397795738189076088487936.000000
-206474902364216203687105262359963327990333440.000000
25519056569953455408365754296434396680421376.000000
781048782830658052945294785029360169231843328.000000
1229614796618122891815070019100600409840943104.000000
1047529803733282259505956384123316670356783104.000000
-243469206088268018175234161294958708119306240.000000
141422166734833865109205615010382369997717504.000000
-421854887199075152239128010544487170377252864.000000
176377168482213090291675001934830416248700928.000000
53627079026292655969485035309409857783726080.000000
529457802113510683186368942672123360268255232.000000
739621387537989275586044197980131856077553664.000000
313033956546749819739674174425113169439490048.000000
497668514030775340828287305105762248432812032.000000
828633453387342695658505175599311744606928896.000000
-701726651320294625813881782173342076843851776.000000
-637854408578538421891026350979671118753824768.000000
889408287066885408305529733657625836791005184.000000
809424158206585330085402021472568903223738368.000000
542034858491238496384556626758816854565715968.000000
763827720531979660548271083989244383510659072.000000
635236571588581061004222208328753890335916032.000000
481416073817214711472400051525049191099269120.000000
640086668922745293330773808994263072493273088.000000
-400791573921509116558132643317390672062840832.000000
-78754767186528782956768423821664767205965824.000000
380374609847031313137422804860205613814120448.000000
-76172889406424870540210262158022835412972601344.000000
2156910550895501412932840396982474034447908864.000000
810298000334364809249342375320454607954509824.000000
-105160880860627036159568747681764581104943104.000000
648966550230038074433208289499477076749582336.000000
864514398038921686814970485794960094433116160.000000
891013512603005716113366960509794655664078848.000000
841358011227131286143620366920961636654120960.000000
45959025091180192853054788581151790031962112.000000
453533309293722902263281012078415788237651968.000000
121898143696229699151281878623817284416700416.000000
434868164993981894360190915697621949959110656.000000
3592751222055378781913836406147777893435965440.000000
3566670223701811252202197673035782027374231552.000000
2150847265855736776064905240301937015050469376.000000