# vtk DataFile Version 2.0
Test
ASCII
DATASET POLYDATA
POINTS 858 float
0.000000 0.000000 0.000000
1.000000 0.000000 0.000000
1.000000 1.000000 0.000000
0.000000 1.000000 0.000000
0.300000 0.330000 0.000000
0.700000 0.680000 0.000000
0.100000 0.000000 0.000000
0.200000 0.000000 0.000000
0.300000 0.000000 0.000000
0.400000 0.000000 0.000000
0.500000 0.000000 0.000000
0.600000 0.000000 0.000000
0.700000 0.000000 0.000000
0.800000 0.000000 0.000000
0.900000 0.000000 0.000000
1.000000 0.100000 0.000000
1.000000 0.200000 0.000000
1.000000 0.300000 0.000000
1.000000 0.400000 0.000000
1.000000 0.500000 0.000000
1.000000 0.600000 0.000000
1.000000 0.700000 0.000000
1.000000 0.800000 0.000000
1.000000 0.900000 0.000000
0.900000 1.000000 0.000000
0.800000 1.000000 0.000000
0.700000 1.000000 0.000000
0.600000 1.000000 0.000000
0.500000 1.000000 0.000000
0.400000 1.000000 0.000000
0.300000 1.000000 0.000000
0.200000 1.000000 0.000000
0.100000 1.000000 0.000000
0.000000 0.900000 0.000000
0.000000 0.800000 0.000000
0.000000 0.700000 0.000000
0.000000 0.600000 0.000000
0.000000 0.500000 0.000000
0.000000 0.400000 0.000000
0.000000 0.300000 0.000000
0.000000 0.200000 0.000000
0.000000 0.100000 0.000000
0.307407 0.336481 0.000000
0.314815 0.342963 0.000000
0.322222 0.349444 0.000000
0.329630 0.355926 0.000000
0.337037 0.362407 0.000000
0.344444 0.368889 0.000000
0.351852 0.375370 0.000000
0.359259 0.381852 0.000000
0.366667 0.388333 0.000000
0.374074 0.394815 0.000000
0.381481 0.401296 0.000000
0.388889 0.407778 0.000000
0.396296 0.414259 0.000000
0.403704 0.420741 0.000000
0.411111 0.427222 0.000000
0.418519 0.433704 0.000000
0.425926 0.440185 0.000000
0.433333 0.446667 0.000000
0.440741 0.453148 0.000000
0.448148 0.459630 0.000000
0.455556 0.466111 0.000000
0.462963 0.472593 0.000000
0.470370 0.479074 0.000000
0.477778 0.485556 0.000000
0.485185 0.492037 0.000000
0.492593 0.498519 0.000000
0.500000 0.505000 0.000000
0.507407 0.511481 0.000000
0.514815 0.517963 0.000000
0.522222 0.524444 0.000000
0.529630 0.530926 0.000000
0.537037 0.537407 0.000000
0.544444 0.543889 0.000000
0.551852 0.550370 0.000000
0.559259 0.556852 0.000000
0.566667 0.563333 0.000000
0.574074 0.569815 0.000000
0.581481 0.576296 0.000000
0.588889 0.582778 0.000000
0.596296 0.589259 0.000000
0.603704 0.595741 0.000000
0.611111 0.602222 0.000000
0.618519 0.608704 0.000000
0.625926 0.615185 0.000000
0.633333 0.621667 0.000000
0.640741 0.628148 0.000000
0.648148 0.634630 0.000000
0.655556 0.641111 0.000000
0.662963 0.647593 0.000000
0.670370 0.654074 0.000000
0.677778 0.660556 0.000000
0.685185 0.667037 0.000000
0.692593 0.673519 0.000000
0.548037 0.570873 0.000000
0.554453 0.579695 0.000000
0.540788 0.582045 0.000000
0.550492 0.594703 0.000000
0.338797 0.350505 0.000000
0.329823 0.347064 0.000000
0.335712 0.339262 0.000000
0.451687 0.438509 0.000000
0.442642 0.430741 0.000000
0.457884 0.427703 0.000000
0.387297 0.847474 0.000000
0.374793 0.914734 0.000000
0.332869 0.847471 0.000000
0.447069 0.415163 0.000000
0.567391 0.482596 0.000000
0.554659 0.473874 0.000000
0.567453 0.464800 0.000000
0.301190 0.902112 0.000000
0.551747 0.457138 0.000000
0.356532 0.391813 0.000000
0.347986 0.386048 0.000000
0.176207 0.429241 0.000000
0.128375 0.468105 0.000000
0.136378 0.404291 0.000000
0.185621 0.475277 0.000000
0.497512 0.261165 0.000000
0.499167 0.296032 0.000000
0.469918 0.291504 0.000000
0.642232 0.687989 0.000000
0.624295 0.701188 0.000000
0.630549 0.678643 0.000000
0.647682 0.074905 0.000000
0.700945 0.096046 0.000000
0.657288 0.160421 0.000000
0.611443 0.684403 0.000000
0.559779 0.406431 0.000000
0.582162 0.394521 0.000000
0.580552 0.422827 0.000000
0.560788 0.374759 0.000000
0.541503 0.468043 0.000000
0.545465 0.480978 0.000000
0.428301 0.394826 0.000000
0.414860 0.384611 0.000000
0.432086 0.374027 0.000000
0.533961 0.477886 0.000000
0.527361 0.464336 0.000000
0.415481 0.368142 0.000000
0.484401 0.527206 0.000000
0.472984 0.524144 0.000000
0.481205 0.518972 0.000000
0.394266 0.424909 0.000000
0.401826 0.431399 0.000000
0.392742 0.434502 0.000000
0.642418 0.617836 0.000000
0.635302 0.612878 0.000000
0.644322 0.605726 0.000000
0.263646 0.464175 0.000000
0.250486 0.498376 0.000000
0.230296 0.467342 0.000000
0.491693 0.468898 0.000000
0.498004 0.479972 0.000000
0.487381 0.480785 0.000000
0.718619 0.489140 0.000000
0.756680 0.466072 0.000000
0.751564 0.516847 0.000000
0.497232 0.719177 0.000000
0.477497 0.748035 0.000000
0.465924 0.716726 0.000000
0.501292 0.467390 0.000000
0.529064 0.285755 0.000000
0.547173 0.240449 0.000000
0.474742 0.511943 0.000000
0.403118 0.392815 0.000000
0.412434 0.399392 0.000000
0.653057 0.614785 0.000000
0.659187 0.602396 0.000000
0.400247 0.379451 0.000000
0.459133 0.636583 0.000000
0.434636 0.647284 0.000000
0.440667 0.616932 0.000000
0.453650 0.664799 0.000000
0.666296 0.616100 0.000000
0.657731 0.628197 0.000000
0.420489 0.468863 0.000000
0.414183 0.459489 0.000000
0.424065 0.460120 0.000000
0.629321 0.574616 0.000000
0.630370 0.589442 0.000000
0.617226 0.584388 0.000000
0.422026 0.450877 0.000000
0.590180 0.614274 0.000000
0.596278 0.627413 0.000000
0.585881 0.628067 0.000000
0.630677 0.603443 0.000000
0.529117 0.486095 0.000000
0.517046 0.488781 0.000000
0.522040 0.477224 0.000000
0.308641 0.392803 0.000000
0.323746 0.398675 0.000000
0.304273 0.411173 0.000000
0.146020 0.514086 0.000000
0.087335 0.505198 0.000000
0.624982 0.561914 0.000000
0.643811 0.559907 0.000000
0.831909 0.406061 0.000000
0.881376 0.423788 0.000000
0.839177 0.457573 0.000000
0.509066 0.478681 0.000000
0.614792 0.620247 0.000000
0.608406 0.635616 0.000000
0.603251 0.619643 0.000000
0.640290 0.595050 0.000000
0.524731 0.497540 0.000000
0.338689 0.392113 0.000000
0.347423 0.395876 0.000000
0.340116 0.407012 0.000000
0.686563 0.659098 0.000000
0.682555 0.651347 0.000000
0.934704 0.856355 0.000000
0.940546 0.930926 0.000000
0.863552 0.916423 0.000000
0.172107 0.566287 0.000000
0.188105 0.516551 0.000000
0.221330 0.532895 0.000000
0.683914 0.680068 0.000000
0.692945 0.685712 0.000000
0.683376 0.697853 0.000000
0.672414 0.683990 0.000000
0.557147 0.529227 0.000000
0.554161 0.540325 0.000000
0.546244 0.533101 0.000000
0.391911 0.394487 0.000000
0.387591 0.383772 0.000000
0.385780 0.368800 0.000000
0.671617 0.628861 0.000000
0.664093 0.637808 0.000000
0.408700 0.450928 0.000000
0.406517 0.467364 0.000000
0.394366 0.455525 0.000000
0.388841 0.472148 0.000000
0.792728 0.486062 0.000000
0.461047 0.516036 0.000000
0.460182 0.532753 0.000000
0.450617 0.523703 0.000000
0.364207 0.398120 0.000000
0.371344 0.402923 0.000000
0.362621 0.408449 0.000000
0.235276 0.413110 0.000000
0.235915 0.390376 0.000000
0.260894 0.399649 0.000000
0.564107 0.604249 0.000000
0.558497 0.625526 0.000000
0.545610 0.611482 0.000000
0.542035 0.628852 0.000000
0.441269 0.401429 0.000000
0.443649 0.385779 0.000000
0.454140 0.398188 0.000000
0.456246 0.380948 0.000000
0.531090 0.597071 0.000000
0.528592 0.618783 0.000000
0.693800 0.600685 0.000000
0.675646 0.601117 0.000000
0.688895 0.583493 0.000000
0.466943 0.412411 0.000000
0.469666 0.393398 0.000000
0.215629 0.311290 0.000000
0.236374 0.342186 0.000000
0.194357 0.347185 0.000000
0.372859 0.289727 0.000000
0.362694 0.307734 0.000000
0.346245 0.295576 0.000000
0.824768 0.656091 0.000000
0.787989 0.680173 0.000000
0.787481 0.637866 0.000000
0.763354 0.658567 0.000000
0.564845 0.587843 0.000000
0.565674 0.575091 0.000000
0.575285 0.580662 0.000000
0.591463 0.532694 0.000000
0.606735 0.524365 0.000000
0.606700 0.541268 0.000000
0.696107 0.663701 0.000000
0.695223 0.651919 0.000000
0.114270 0.553146 0.000000
0.897846 0.490106 0.000000
0.941355 0.438159 0.000000
0.491870 0.442127 0.000000
0.508682 0.433741 0.000000
0.504276 0.453072 0.000000
0.616608 0.507977 0.000000
0.629719 0.487283 0.000000
0.643435 0.510566 0.000000
0.660659 0.486926 0.000000
0.584650 0.557787 0.000000
0.582076 0.545531 0.000000
0.595086 0.552412 0.000000
0.215445 0.494211 0.000000
0.502563 0.534321 0.000000
0.493623 0.527201 0.000000
0.502900 0.523550 0.000000
0.490744 0.536689 0.000000
0.303740 0.348241 0.000000
0.312638 0.354325 0.000000
0.302746 0.359450 0.000000
0.683727 0.548378 0.000000
0.666144 0.562133 0.000000
0.663581 0.542222 0.000000
0.366098 0.324774 0.000000
0.379406 0.309842 0.000000
0.251675 0.434611 0.000000
0.214900 0.437402 0.000000
0.581091 0.493223 0.000000
0.603283 0.484739 0.000000
0.593195 0.510449 0.000000
0.429738 0.356510 0.000000
0.412970 0.350726 0.000000
0.358920 0.356811 0.000000
0.352460 0.366146 0.000000
0.347463 0.357590 0.000000
0.353794 0.402394 0.000000
0.527483 0.436280 0.000000
0.546965 0.439869 0.000000
0.535210 0.453469 0.000000
0.624606 0.790385 0.000000
0.614250 0.755688 0.000000
0.654837 0.763041 0.000000
0.384960 0.332814 0.000000
0.619946 0.597007 0.000000
0.358705 0.265521 0.000000
0.397502 0.266486 0.000000
0.377869 0.228897 0.000000
0.471169 0.372235 0.000000
0.492664 0.362648 0.000000
0.488718 0.386734 0.000000
0.431288 0.062893 0.000000
0.512348 0.074893 0.000000
0.450325 0.128772 0.000000
0.515327 0.223180 0.000000
0.538419 0.183215 0.000000
0.367912 0.509419 0.000000
0.343175 0.515399 0.000000
0.351317 0.488263 0.000000
0.593186 0.193353 0.000000
0.476496 0.230456 0.000000
0.594140 0.256114 0.000000
0.629340 0.367381 0.000000
0.659922 0.374166 0.000000
0.641019 0.397588 0.000000
0.669525 0.412603 0.000000
0.510665 0.591750 0.000000
0.493263 0.584115 0.000000
0.507476 0.576852 0.000000
0.492575 0.790205 0.000000
0.516533 0.753914 0.000000
0.493265 0.606545 0.000000
0.794852 0.435952 0.000000
0.797754 0.379724 0.000000
0.755728 0.420083 0.000000
0.528549 0.642034 0.000000
0.507334 0.653897 0.000000
0.509532 0.626562 0.000000
0.580705 0.748031 0.000000
0.605192 0.727758 0.000000
0.748472 0.635779 0.000000
0.742539 0.660255 0.000000
0.323194 0.421808 0.000000
0.325468 0.445306 0.000000
0.301700 0.435431 0.000000
0.295276 0.460827 0.000000
0.622421 0.457821 0.000000
0.642814 0.468538 0.000000
0.320303 0.468200 0.000000
[...]
POINT_DATA 858
SCALARS UX float 1
LOOKUP_TABLE default
-0.000000
0.000000
0.168205
-0.168837
-0.052278
0.065965
0.000000
-0.000000
-0.000000
-0.000000
-0.000000
0.000000
0.000000
0.000000
-0.000000
0.077042
0.118701
0.141191
0.154474
0.162090
0.165937
0.167816
0.168225
0.168237
0.135344
0.102170
0.068568
0.034321
-0.000238
-0.034766
-0.069088
-0.102814
-0.136019
-0.168720
-0.168515
-0.167748
-0.165892
-0.162287
-0.155147
-0.142207
-0.118127
-0.079430
-0.051269
-0.049904
-0.048520
-0.047049
-0.045495
-0.043861
-0.042167
-0.040416
-0.038614
-0.036765
-0.034870
-0.032937
-0.030964
-0.028950
-0.026903
-0.024825
-0.022711
-0.020570
-0.018399
-0.016200
-0.013973
-0.011721
-0.009445
-0.007144
-0.004821
-0.002478
-0.000114
0.002270
0.004672
0.007092
0.009527
0.011977
0.014441
0.016917
0.019403
0.021902
0.024408
0.026923
0.029444
0.031972
0.034503
0.037036
0.039573
0.042108
0.044638
0.047165
0.049679
0.052180
0.054655
0.057119
0.059517
0.061697
0.063716
0.015724
0.017893
0.013328
0.016601
-0.043945
-0.046143
-0.043839
-0.014738
-0.017355
-0.012658
-0.039127
-0.043463
-0.057791
-0.015687
0.021371
0.017223
0.021135
-0.068582
0.016118
-0.041870
-0.044074
-0.100846
-0.119092
-0.111860
-0.100712
-0.000331
0.000009
-0.007019
0.047721
0.041858
0.043734
0.010598
0.019341
0.024098
0.037370
0.017791
0.024098
0.024352
0.017426
0.013021
0.014378
-0.020730
-0.024296
-0.018987
0.010707
0.008559
-0.023476
-0.005266
-0.008977
-0.006265
-0.031993
-0.029895
-0.032813
0.047734
0.045290
0.048333
-0.074828
-0.080692
-0.085680
-0.002634
-0.000684
-0.004058
0.070064
0.081287
0.081878
-0.001370
-0.008111
-0.012076
0.000390
0.007158
0.010114
-0.008318
-0.028054
-0.025557
0.051366
0.053383
-0.028304
-0.014226
-0.022559
-0.020357
-0.016179
0.055916
0.052991
-0.025093
-0.026864
-0.023769
0.042967
0.043471
0.038989
-0.024190
0.030007
0.032092
0.028584
0.043676
0.009211
0.005368
0.006933
-0.056633
-0.052383
-0.059184
-0.115619
-0.134357
0.041349
0.047620
0.101238
0.118829
0.107534
0.002826
0.038341
0.036201
0.034435
0.046880
0.007846
-0.047325
-0.044893
-0.047827
0.062827
0.061474
0.146874
0.148717
0.123349
-0.108981
-0.101872
-0.091598
0.061137
0.064252
0.061928
0.057605
0.018536
0.017627
0.014984
-0.031434
-0.032196
-0.031923
0.057781
0.055143
-0.028360
-0.029490
-0.032999
-0.035237
0.094022
-0.012799
-0.013231
-0.016272
-0.039921
-0.038017
-0.040968
-0.080481
-0.078557
-0.071421
0.021196
0.019342
0.014982
0.013793
-0.017102
-0.016013
-0.013241
-0.012293
0.010092
0.009256
0.065109
0.058979
0.063118
-0.009701
-0.008627
-0.076748
-0.074716
-0.087816
-0.030689
-0.034456
-0.037896
0.110050
0.098321
0.097274
0.089776
0.021399
0.021628
0.024870
0.029844
0.034736
0.034985
0.066374
0.065920
-0.127530
0.128637
0.139314
-0.002448
0.002713
0.001349
0.037648
0.041384
0.046438
0.051322
0.027848
0.026886
0.031270
-0.091906
0.000655
-0.002253
0.000786
-0.003231
-0.053813
-0.051903
-0.055609
0.060628
0.055101
0.053825
-0.034660
-0.030273
-0.076876
-0.088814
0.025906
0.032870
0.030097
-0.019067
-0.023457
-0.038797
-0.041314
-0.042085
-0.043338
0.008451
0.014438
0.010941
0.042705
0.038963
0.053050
-0.030136
0.039999
-0.032367
-0.023251
-0.024854
-0.007913
-0.001811
-0.003061
-0.003771
0.001129
-0.005933
0.003346
0.006650
-0.042970
-0.051176
-0.047752
0.016446
-0.004466
0.020935
0.036587
0.045802
0.041552
0.050956
0.003248
-0.002558
0.002203
-0.002868
0.005312
-0.002621
0.091728
0.088009
0.078134
0.009241
0.002055
0.002824
0.027357
0.035631
0.083803
0.082583
-0.053927
-0.054373
-0.061332
-0.064628
0.038237
0.045000
-0.056977
0.009222
-0.012497
-0.009425
-0.015128
-0.101053
-0.117612
-0.134580
-0.095587
-0.087345
-0.078099
-0.016122
-0.018170
0.060778
0.066774
-0.071041
-0.071519
-0.127340
-0.103552
-0.138832
-0.149171
-0.041076
-0.060668
-0.051136
-0.061474
-0.048370
0.033847
0.036103
-0.116680
0.114570
0.130581
0.062143
-0.094838
-0.085959
-0.124102
-0.036298
-0.041724
-0.030309
-0.035194
-0.037909
-0.044606
-0.046542
0.107971
-0.019758
-0.023393
-0.048192
-0.039223
-0.035140
-0.001175
0.004441
0.003963
0.053982
0.040667
0.088347
-0.028985
-0.037115
-0.018667
-0.009130
-0.008149
-0.021301
0.098683
0.092251
-0.001799
0.071282
0.064673
0.057240
-0.047146
-0.022199
-0.033304
-0.023249
-0.007858
0.029679
-0.091769
-0.080713
-0.021853
0.023958
0.036229
-0.116114
-0.103130
-0.048193
0.066994
0.082382
0.066680
-0.042270
-0.046041
-0.005551
-0.006790
0.053096
0.060163
-0.101082
-0.077449
-0.075376
0.109123
-0.049166
0.056033
0.057410
0.066497
0.052168
0.060629
-0.018780
-0.072581
-0.065651
-0.006452
-0.045341
-0.022174
-0.019926
-0.082947
-0.044954
-0.087909
-0.036093
-0.072649
-0.069772
-0.057306
0.075024
0.078343
0.076066
0.029403
0.033309
-0.021647
-0.019686
0.031047
0.035779
0.107772
0.110991
-0.018061
0.067915
0.076193
-0.055728
-0.010316
-0.016622
-0.067350
-0.056394
-0.041867
-0.037631
-0.042004
-0.036061
-0.047401
0.048130
0.050388
0.055151
-0.144886
0.026643
0.036561
0.047878
0.050682
-0.026796
-0.028148
0.124155
0.125010
0.144056
0.141268
0.001637
-0.041780
-0.038412
0.046227
0.041413
0.040465
0.076983
0.085853
0.004576
0.007789
-0.004567
-0.004963
-0.007254
0.001099
0.043576
0.027668
0.050609
0.003923
0.010876
0.064308
0.069643
-0.050379
-0.045624
-0.046439
0.012203
0.006717
-0.042498
0.010001
-0.058910
-0.053614
-0.064855
0.044958
0.043731
-0.066825
-0.069694
-0.059207
-0.023273
-0.027809
0.071674
0.082021
-0.029953
-0.021424
-0.016523
0.025410
-0.000445
-0.002906
0.040310
0.039631
-0.063286
-0.034184
-0.035081
0.055547
0.052790
0.012968
0.011857
0.009188
0.000928
0.028595
0.028670
0.070351
-0.035789
0.024690
0.028940
0.023517
-0.037997
-0.045620
-0.048789
-0.003921
-0.031350
0.050019
0.053586
0.015649
0.003296
-0.045033
-0.011229
-0.009086
-0.012410
0.032700
0.030384
-0.060541
-0.067067
0.042565
0.031868
0.042338
0.045344
0.041614
-0.007972
-0.035472
0.039841
-0.030176
-0.030281
0.011731
-0.040542
-0.004243
0.065540
0.061479
0.014880
0.118721
-0.056847
0.018588
-0.008133
-0.074112
-0.063954
-0.037586
-0.104352
-0.084170
-0.044526
0.125477
0.110549
0.104665
0.088304
0.145169
0.059262
-0.019717
0.013639
0.016637
-0.000297
0.003493
-0.011004
-0.054671
-0.052526
-0.006175
-0.002618
-0.005915
-0.013405
-0.015774
0.031694
0.025719
0.032242
-0.031917
0.005938
0.096951
0.020506
0.026790
0.030022
0.010131
0.035715
0.038156
-0.009691
0.025271
0.024240
0.045925
-0.011312
-0.015592
-0.059418
-0.013893
0.054586
0.051229
0.071305
-0.085512
0.020082
-0.064662
0.011087
0.009232
-0.007898
0.018698
0.069553
-0.031571
-0.031349
-0.025936
0.026671
-0.037501
-0.006418
0.025084
-0.018777
-0.040247
-0.037621
0.003342
-0.014165
0.006935
0.007100
-0.032307
0.093738
0.098913
-0.073533
-0.056137
-0.088659
-0.024386
0.047421
0.098471
0.121862
0.100523
0.033248
0.086479
-0.040144
-0.035325
0.004608
-0.027953
0.018374
0.011246
0.020301
-0.025305
-0.027678
0.027193
0.025203
-0.035438
-0.038193
-0.029507
0.032073
-0.031162
0.016302
-0.054850
-0.012765
-0.010589
-0.014049
-0.013486
-0.013738
0.013380
0.022100
0.001431
-0.010603
-0.016532
-0.011947
0.049567
-0.013897
0.010598
0.008006
0.011625
0.014981
0.005787
0.069765
-0.026596
-0.021349
-0.062254
0.026063
-0.018986
0.024077
-0.002737
0.068681
-0.052275
0.093726
-0.016879
-0.019785
0.036356
0.053969
-0.121663
-0.150339
-0.025977
0.069786
-0.045446
0.072509
0.055544
-0.134223
-0.137589
-0.106993
0.138024
0.115668
-0.017491
-0.015267
-0.019282
0.068892
-0.047881
0.059121
-0.012061
0.011097
0.070670
0.083074
-0.089047
-0.150811
0.050329
-0.025116
-0.018903
0.030978
0.074894
0.070199
0.010575
-0.019830
-0.026606
0.077496
-0.009124
-0.047601
-0.045613
-0.049061
0.058957
0.053220
-0.049342
0.025027
0.072459
-0.024314
0.058851
0.040058
-0.068391
-0.065030
0.030851
-0.055775
-0.058972
-0.025639
-0.027373
-0.036835
-0.039220
-0.017617
0.018662
0.050997
-0.022559
-0.021265
-0.039079
0.004111
-0.056151
0.003858
0.006593
0.020761
0.017306
-0.014135
-0.017491
-0.046992
-0.002077
-0.034074
0.086337
-0.013871
0.035352
0.021764
0.021612
0.025586
0.019653
0.012328
0.012161
-0.007911
-0.011632
0.028851
-0.002103
-0.048723
-0.002252
-0.025118
-0.019915
-0.049961
-0.021332
-0.018953
0.037216
0.020239
-0.022480
0.016545
0.003664
-0.006484
-0.004783
0.044778
0.022443
-0.021164
-0.022872
-0.021034
0.014317
0.008243
SCALARS UY float 1
LOOKUP_TABLE default
-0.000000
-0.000000
-1.090000
-1.090000
-0.343618
-0.734687
-0.000000
-0.000000
-0.000000
-0.000000
-0.000000
-0.000000
-0.000000
-0.000000
-0.000000
-0.133572
-0.241629
-0.345412
-0.447912
-0.551659
-0.657248
-0.764032
-0.872000
-0.980767
-1.090000
-1.090000
-1.090000
-1.090000
-1.090000
-1.090000
-1.090000
-1.090000
-1.090000
-0.981034
-0.872394
-0.764514
-0.657576
-0.551938
-0.447651
-0.345582
-0.242557
-0.133570
-0.350687
-0.357687
-0.364583
-0.371457
-0.378332
-0.385231
-0.392138
-0.399070
-0.406023
-0.412992
-0.419976
-0.426986
-0.434010
-0.441057
-0.448120
-0.455197
-0.462298
-0.469412
-0.476544
-0.483693
-0.490857
-0.498037
-0.505234
-0.512446
-0.519674
-0.526913
-0.534170
-0.541441
-0.548723
-0.556020
-0.563330
-0.570651
-0.577984
-0.585327
-0.592680
-0.600043
-0.607414
-0.614794
-0.622180
-0.629575
-0.636975
-0.644381
-0.651791
-0.659205
-0.666624
-0.674041
-0.681462
-0.688883
-0.696315
-0.703749
-0.711211
-0.718799
-0.726598
-0.608388
-0.618366
-0.620928
-0.635240
-0.364948
-0.361522
-0.352574
-0.459990
-0.451434
-0.447828
-0.919596
-0.994834
-0.920113
-0.433965
-0.509284
-0.499379
-0.489336
-0.981209
-0.480604
-0.410326
-0.404265
-0.462307
-0.508631
-0.438162
-0.512429
-0.264380
-0.302186
-0.297287
-0.741380
-0.755850
-0.730666
-0.072237
-0.094508
-0.159292
-0.736807
-0.424080
-0.411125
-0.442588
-0.388913
-0.492745
-0.507276
-0.411599
-0.400492
-0.388420
-0.503744
-0.488527
-0.382193
-0.559210
-0.555850
-0.549971
-0.445979
-0.453030
-0.456761
-0.662436
-0.656745
-0.648814
-0.495828
-0.534289
-0.501052
-0.493670
-0.506067
-0.507028
-0.520797
-0.497209
-0.553194
-0.775120
-0.807572
-0.772472
-0.491944
-0.291000
-0.242264
-0.542116
-0.409894
-0.417006
-0.659134
-0.645258
-0.395083
-0.682452
-0.694727
-0.660546
-0.714215
-0.660739
-0.674313
-0.494546
-0.484178
-0.484668
-0.613575
-0.630273
-0.624384
-0.474350
-0.657669
-0.672542
-0.673145
-0.646046
-0.512937
-0.515928
-0.502963
-0.414395
-0.419798
-0.435027
-0.557635
-0.551851
-0.599225
-0.597301
-0.436462
-0.460496
-0.493725
-0.504593
-0.664740
-0.681947
-0.663890
-0.636737
-0.525776
-0.411543
-0.415299
-0.428131
-0.709291
-0.700534
-0.932948
-1.014455
-0.998248
-0.613324
-0.557758
-0.573991
-0.733619
-0.740641
-0.753763
-0.737586
-0.561572
-0.574037
-0.565854
-0.412057
-0.400244
-0.383631
-0.675134
-0.685224
-0.474716
-0.493190
-0.480255
-0.499046
-0.521657
-0.546849
-0.565654
-0.555599
-0.417058
-0.422153
-0.428678
-0.440917
-0.415648
-0.425229
-0.646098
-0.670007
-0.654104
-0.673637
-0.418740
-0.401286
-0.414952
-0.395765
-0.637807
-0.662247
-0.643690
-0.643989
-0.624528
-0.430662
-0.409473
-0.328038
-0.361147
-0.369801
-0.296754
-0.316818
-0.303860
-0.711256
-0.736586
-0.689457
-0.711395
-0.627629
-0.613274
-0.619642
-0.565848
-0.556723
-0.575710
-0.713722
-0.700637
-0.602104
-0.533974
-0.481736
-0.463681
-0.454264
-0.475895
-0.538508
-0.515608
-0.542009
-0.516048
-0.593992
-0.580165
-0.588075
-0.531574
-0.567140
-0.559159
-0.555021
-0.569846
-0.364706
-0.370802
-0.377782
-0.585325
-0.600254
-0.577930
-0.335489
-0.318696
-0.463855
-0.468824
-0.521374
-0.512201
-0.540878
-0.369064
-0.362969
-0.371174
-0.381815
-0.372483
-0.422286
-0.457130
-0.461252
-0.476387
-0.856002
-0.816908
-0.825991
-0.343831
-0.638635
-0.270614
-0.270964
-0.230646
-0.385974
-0.375237
-0.401949
-0.059900
-0.071602
-0.125457
-0.223760
-0.181929
-0.541465
-0.549031
-0.518391
-0.192996
-0.231586
-0.259794
-0.381998
-0.390510
-0.415855
-0.433457
-0.631781
-0.623217
-0.615009
-0.854886
-0.814154
-0.648464
-0.466414
-0.404371
-0.446110
-0.688414
-0.701728
-0.670973
-0.807895
-0.785398
-0.684482
-0.711833
-0.445599
-0.471611
-0.461966
-0.490424
-0.482472
-0.494981
-0.497353
-0.115007
-0.105993
-0.169831
-0.156505
-0.381570
-0.393580
-0.470151
-0.413503
-0.628437
-0.578730
-1.019525
-0.943395
-0.606674
-0.600633
-0.514762
-0.546307
-0.668254
-0.676819
-0.753369
-0.692715
-0.279021
-0.692417
-0.714035
-0.744216
-0.679677
-0.650254
-0.656201
-0.734741
-0.352847
-0.414207
-0.662465
-0.734776
-0.682022
-0.812913
-0.243172
-0.219312
-0.199910
-0.645691
-0.674437
-0.646197
-0.260804
-0.400972
-0.428177
-0.427289
-0.448267
-0.353591
-0.357606
-0.347379
-0.329885
-0.362434
-0.881793
-0.906791
-0.654249
-0.876529
-0.812086
-0.837152
-0.631345
-0.611346
-0.788461
-0.654308
-0.339458
-0.598727
-0.401288
-0.432615
-0.381372
-0.863341
-0.187814
-0.167772
-0.149653
-0.355236
-0.234836
-0.992442
-0.908820
-0.436184
-0.084745
-0.159276
-0.333257
-0.341246
-0.288217
-0.805514
-0.816224
-0.853652
-0.444453
-0.465627
-0.675899
-0.709087
-0.550452
-0.533519
-0.799967
-0.780941
-0.716112
-0.543877
-0.492343
-0.754029
-0.780388
-0.776840
-0.477781
-0.497214
-0.097222
-0.392169
-0.370847
-0.047618
-0.131862
-0.057354
-0.070740
-0.397230
-0.570604
-0.432932
-0.558153
-0.662494
-0.613129
-0.643114
-0.673814
-0.654267
-0.697135
-0.602864
-0.604399
-0.556068
-0.570806
-0.686521
-0.700766
-0.628872
-0.672720
-0.542762
-0.564249
-0.594415
-0.589951
-0.215699
-0.202394
-0.853141
-0.802173
-0.477749
-0.483734
-0.497528
-0.467915
-0.759865
-0.621638
-0.635212
-0.623666
-0.620642
-0.603479
-0.593621
-0.695542
-0.703936
-0.377348
-0.362410
-0.708091
-0.651713
-0.693332
-0.613337
-0.136978
-0.340505
-0.329310
-0.787581
-0.582964
-0.561110
-0.723923
-0.734146
-0.649533
-0.616767
-0.434982
-0.420489
-0.452254
-0.425505
-1.007027
-0.929501
-0.939651
-0.395318
-0.997837
-0.688232
-0.685724
-0.327504
-0.309015
-0.329654
-0.440211
-0.437699
-0.325651
-0.413734
-0.392028
-0.385543
-0.395967
-0.685585
-0.700574
-0.444804
-0.470580
-0.375195
-0.632565
-0.645964
-0.628894
-0.624917
-0.678437
-0.609576
-0.634177
-0.632593
-0.543562
-0.549122
-0.693494
-0.716665
-0.520465
-0.409781
-0.400731
-0.721090
-0.739004
-0.598581
-0.609063
-0.601037
-0.519121
-0.880397
-0.839242
-0.705882
-0.376369
-0.685925
-0.704840
-0.706755
-0.588486
-0.596803
-0.618506
-0.326452
-0.465506
-0.721814
-0.709415
-0.863066
-0.912030
-0.341467
-0.458803
-0.465350
-0.468649
-0.618867
-0.612476
-0.552358
-0.576589
-0.343724
-0.294786
-0.283046
-0.466817
-0.675407
-0.571358
-0.452053
-0.220568
-0.612664
-0.578704
-0.357184
-0.616629
-0.582005
-0.675035
-0.678302
-0.285456
-0.591898
-0.401537
-0.448224
-0.740944
-0.188209
-0.215800
-0.145539
-0.254123
-0.174198
-0.434349
-0.903880
-0.946977
-0.887488
-0.938774
-0.838920
-0.458498
-0.441379
-0.587411
-0.596870
-0.580258
-0.575837
-0.655011
-0.286272
-0.307667
-0.470850
-0.480909
-0.484544
-0.479332
-0.471538
-0.456811
-0.473274
-0.419308
-0.755680
-0.474082
-0.269102
-0.350054
-0.382017
-0.341564
-0.589694
-0.616901
-0.608696
-0.478457
-0.552955
-0.538751
-0.711540
-0.579472
-0.579777
-0.314261
-0.596437
-0.279594
-0.221239
-0.270853
-0.844307
-0.465847
-0.298281
-0.579705
-0.572365
-0.589876
-0.811500
-0.719949
-0.540098
-0.523674
-0.530760
-0.645621
-0.534794
-0.499102
-0.663071
-0.344199
-0.459531
-0.443168
-0.588045
-0.353813
-0.591510
-0.580165
-0.365424
-0.622788
-0.579536
-0.281516
-0.250795
-0.269934
-0.341547
-0.570936
-0.837854
-0.818762
-0.788485
-0.720522
-0.594949
-0.518041
-0.517166
-0.601836
-0.460447
-0.748917
-0.724731
-0.725535
-0.570642
-0.553870
-0.726076
-0.749568
-0.432248
-0.431762
-0.422581
-0.749832
-0.509365
-0.697249
-0.521623
-0.509495
-0.516796
-0.522174
-0.883878
-0.378446
-0.323139
-0.309896
-0.741412
-0.530624
-0.513010
-0.264256
-0.669246
-0.300301
-0.551658
-0.544025
-0.535700
-0.550745
-0.537266
-0.755559
-0.509991
-0.516600
-0.415614
-0.499591
-0.589019
-0.774774
-0.183065
-0.915770
-0.400011
-1.009797
-0.239597
-0.295865
-0.089861
-0.103183
-0.992821
-0.987354
-0.300202
-0.660392
-0.093322
-0.174335
-0.178620
-0.397913
-0.898104
-0.892274
-0.764594
-0.754575
-0.492537
-0.501073
-0.502449
-0.995083
-0.198002
-0.562534
-0.327297
-0.770041
-0.475836
-0.878909
-0.328423
-0.835105
-0.759644
-0.320234
-0.320039
-0.642416
-0.779355
-0.342923
-0.385066
-0.746109
-0.716686
-0.752705
-0.492488
-0.391461
-0.397799
-0.404108
-0.724561
-0.327620
-0.383578
-0.595392
-0.746087
-0.588549
-0.689731
-0.445700
-0.329387
-0.343051
-0.485696
-0.357907
-0.356623
-0.465194
-0.430306
-0.391838
-0.385377
-0.464154
-0.604778
-0.611984
-0.503101
-0.492214
-0.711202
-0.490597
-0.327570
-0.561748
-0.568197
-0.527681
-0.517118
-0.534555
-0.526237
-0.353522
-0.446114
-0.439062
-0.767861
-0.616158
-0.627689
-0.573045
-0.559335
-0.566541
-0.582445
-0.560171
-0.518080
-0.521860
-0.487914
-0.634423
-0.517414
-0.343468
-0.538075
-0.440562
-0.460124
-0.375057
-0.480088
-0.484995
-0.634953
-0.546471
-0.445882
-0.533887
-0.528843
-0.530085
-0.539373
-0.676091
-0.587289
-0.452709
-0.542839
-0.530800
-0.525686
-0.534833
SCALARS DAMAGE float 1
LOOKUP_TABLE default
0.997652
0.997579
0.998428
0.998434
0.000000
0.000000
0.998432
0.998595
0.998658
0.998702
0.998701
0.998682
0.998632
0.998550
0.998285
0.998002
0.998468
0.998592
0.998595
0.998539
0.998511
0.998473
0.998449
0.998432
0.998419
0.998404
0.998379
0.998356
0.998348
0.998356
0.998374
0.998401
0.998422
0.998441
0.998451
0.998473
0.998507
0.998533
0.998591
0.998584
0.998562
0.997879
-0.000000
0.000000
0.000000
0.000000
0.000000
0.000000
0.000000
0.000000
0.000000
0.000000
0.000000
0.000000
0.000000
0.000000
0.000000
0.000000
0.000000
0.000000
0.000000
0.000000
0.000000
0.000000
0.000000
0.000000
0.000000
0.000000
0.000000
0.000000
0.000000
0.000000
0.000000
0.000000
0.000000
0.000000
0.000000
0.000000
0.000000
0.000000
0.000000
0.000000
0.000000
0.000000
0.000000
0.000000
0.000000
0.000000
0.000000
0.000000
0.000000
0.000000
0.000000
0.000000
-0.000000
0.677773
0.727408
0.861792
0.888932
0.481016
0.344555
0.648856
0.684631
0.689144
0.856478
0.998355
0.998360
0.998364
0.878729
0.978913
0.976051
0.990150
0.998374
0.987168
0.443117
0.490822
0.998394
0.998433
0.998417
0.998402
0.998457
0.998406
0.998372
0.942332
0.986346
0.945857
0.998634
0.998605
0.998535
0.980450
0.997779
0.998255
0.997866
0.998322
0.968768
0.951448
0.899762
0.888867
0.969190
0.932455
0.953553
0.952031
0.819221
0.869278
0.762561
0.447601
0.444328
0.669305
0.432771
0.389223
0.707298
0.998209
0.998376
0.998376
0.747616
0.667831
0.466088
0.998360
0.998380
0.998386
0.998325
0.998338
0.998334
0.843224
0.998435
0.998480
0.750343
0.725666
0.751672
0.683060
0.867458
0.843770
0.998094
0.998294
0.998062
0.998296
0.810587
0.515531
0.797277
0.753579
0.637493
0.878175
0.760494
0.672512
0.495695
0.767731
0.833809
0.897118
0.539148
0.877837
0.774431
0.894327
0.929664
0.902873
0.976691
0.998425
0.998468
0.916660
0.969083
0.998406
0.998440
0.998413
0.806204
0.509541
0.826889
0.680450
0.789166
0.751099
0.744029
0.686683
0.868796
0.350662
0.474457
0.998430
0.998426
0.998414
0.998414
0.998404
0.998392
0.512827
0.483739
0.844008
0.746288
0.706092
0.438949
0.448070
0.543474
0.656216
0.833245
0.717311
0.392060
0.714499
0.880028
0.872295
0.955633
0.998393
0.886618
0.950662
0.947161
0.433000
0.382101
0.674955
0.997842
0.996772
0.994740
0.879856
0.965578
0.959181
0.983725
0.914850
0.964639
0.958481
0.982331
0.956379
0.985684
0.971232
0.937963
0.984777
0.953785
0.982567
0.997493
0.994694
0.998340
0.993254
0.975708
0.979570
0.998384
0.997916
0.997951
0.992794
0.716198
0.453569
0.372930
0.921431
0.970108
0.935563
0.475413
0.688838
0.998447
0.998455
0.998513
0.930247
0.977397
0.930243
0.990443
0.996851
0.995929
0.998086
0.630181
0.781392
0.822455
0.998392
0.726006
0.731687
0.540440
0.849383
0.525398
0.472794
0.729126
0.995477
0.984318
0.993333
0.954372
0.986494
0.998132
0.998347
0.980311
0.994603
0.975232
0.984414
0.976332
0.691446
0.366286
0.492954
0.702400
0.987273
0.992518
0.979411
0.998335
0.998074
0.998389
0.969560
0.462276
0.996956
0.998074
0.998447
0.993104
0.997117
0.993275
0.998673
0.998657
0.998585
0.998496
0.998538
0.995564
0.997779
0.994757
0.998517
0.998484
0.998463
0.998383
0.998379
0.998366
0.998368
0.975246
0.982278