# vtk DataFile Version 2.0
Test
ASCII
DATASET POLYDATA
POINTS 5816 float
0.000000 0.000000 0.000000
2.000000 0.000000 0.000000
2.000000 4.000000 0.000000
0.000000 4.000000 0.000000
0.000000 0.500000 0.000000
1.500000 2.000000 0.000000
2.000000 2.500000 0.000000
0.285714 0.000000 0.000000
0.571429 0.000000 0.000000
0.857143 0.000000 0.000000
1.142857 0.000000 0.000000
1.428571 0.000000 0.000000
1.714286 0.000000 0.000000
2.000000 0.275040 0.000000
2.000000 0.520628 0.000000
2.000000 0.739917 0.000000
2.000000 0.935725 0.000000
2.000000 1.110565 0.000000
2.000000 1.266683 0.000000
2.000000 1.406084 0.000000
2.000000 1.530557 0.000000
2.000000 1.641701 0.000000
2.000000 1.740944 0.000000
2.000000 1.829560 0.000000
2.000000 1.908686 0.000000
2.000000 1.979340 0.000000
2.000000 2.042428 0.000000
2.000000 2.098760 0.000000
2.000000 2.149060 0.000000
2.000000 2.193974 0.000000
2.000000 2.234078 0.000000
2.000000 2.269888 0.000000
2.000000 2.301863 0.000000
2.000000 2.330415 0.000000
2.000000 2.355908 0.000000
2.000000 2.378673 0.000000
2.000000 2.398999 0.000000
2.000000 2.417149 0.000000
2.000000 2.433355 0.000000
2.000000 2.447826 0.000000
2.000000 2.460747 0.000000
2.000000 2.472285 0.000000
2.000000 2.482587 0.000000
2.000000 2.491786 0.000000
2.000000 2.508637 0.000000
2.000000 2.519089 0.000000
2.000000 2.531737 0.000000
2.000000 2.547044 0.000000
2.000000 2.565568 0.000000
2.000000 2.587985 0.000000
2.000000 2.615113 0.000000
2.000000 2.647942 0.000000
2.000000 2.687670 0.000000
2.000000 2.735749 0.000000
2.000000 2.793931 0.000000
2.000000 2.864341 0.000000
2.000000 2.949549 0.000000
2.000000 3.052664 0.000000
2.000000 3.177450 0.000000
2.000000 3.328462 0.000000
2.000000 3.511210 0.000000
2.000000 3.732366 0.000000
1.714286 4.000000 0.000000
1.428571 4.000000 0.000000
1.142857 4.000000 0.000000
0.857143 4.000000 0.000000
0.571429 4.000000 0.000000
0.285714 4.000000 0.000000
0.000000 3.715673 0.000000
0.000000 3.453827 0.000000
0.000000 3.212685 0.000000
0.000000 2.990611 0.000000
0.000000 2.786096 0.000000
0.000000 2.597752 0.000000
0.000000 2.424300 0.000000
0.000000 2.264564 0.000000
0.000000 2.117457 0.000000
0.000000 1.981983 0.000000
0.000000 1.857220 0.000000
0.000000 1.742322 0.000000
0.000000 1.636510 0.000000
0.000000 1.539064 0.000000
0.000000 1.449323 0.000000
0.000000 1.366678 0.000000
0.000000 1.290567 0.000000
0.000000 1.220475 0.000000
0.000000 1.155925 0.000000
0.000000 1.096479 0.000000
0.000000 1.041733 0.000000
0.000000 0.991316 0.000000
0.000000 0.944886 0.000000
0.000000 0.902126 0.000000
0.000000 0.862748 0.000000
0.000000 0.826483 0.000000
0.000000 0.793086 0.000000
0.000000 0.762330 0.000000
0.000000 0.734005 0.000000
0.000000 0.707920 0.000000
0.000000 0.683898 0.000000
0.000000 0.661775 0.000000
0.000000 0.641402 0.000000
0.000000 0.622639 0.000000
0.000000 0.605360 0.000000
0.000000 0.589447 0.000000
0.000000 0.574792 0.000000
0.000000 0.561296 0.000000
0.000000 0.548868 0.000000
0.000000 0.537421 0.000000
0.000000 0.526881 0.000000
0.000000 0.517173 0.000000
0.000000 0.508233 0.000000
0.000000 0.491468 0.000000
0.000000 0.479827 0.000000
0.000000 0.463944 0.000000
0.000000 0.442273 0.000000
0.000000 0.412707 0.000000
0.000000 0.372368 0.000000
0.000000 0.317330 0.000000
0.000000 0.242238 0.000000
0.000000 0.139785 0.000000
0.005639 0.505639 0.000000
0.011278 0.511278 0.000000
0.016917 0.516917 0.000000
0.022556 0.522556 0.000000
0.028195 0.528195 0.000000
0.033835 0.533835 0.000000
0.039474 0.539474 0.000000
0.045113 0.545113 0.000000
0.050752 0.550752 0.000000
0.056391 0.556391 0.000000
0.062030 0.562030 0.000000
0.067669 0.567669 0.000000
0.073308 0.573308 0.000000
0.078947 0.578947 0.000000
0.084586 0.584586 0.000000
0.090226 0.590226 0.000000
0.095865 0.595865 0.000000
0.101504 0.601504 0.000000
0.107143 0.607143 0.000000
0.112782 0.612782 0.000000
0.118421 0.618421 0.000000
0.124060 0.624060 0.000000
0.129699 0.629699 0.000000
0.135338 0.635338 0.000000
0.140977 0.640977 0.000000
0.146617 0.646617 0.000000
0.152256 0.652256 0.000000
0.157895 0.657895 0.000000
0.163534 0.663534 0.000000
0.169173 0.669173 0.000000
0.174812 0.674812 0.000000
0.180451 0.680451 0.000000
0.186090 0.686090 0.000000
0.191729 0.691729 0.000000
0.197368 0.697368 0.000000
0.203008 0.703008 0.000000
0.208647 0.708647 0.000000
0.214286 0.714286 0.000000
0.219925 0.719925 0.000000
0.225564 0.725564 0.000000
0.231203 0.731203 0.000000
0.236842 0.736842 0.000000
0.242481 0.742481 0.000000
0.248120 0.748120 0.000000
0.253759 0.753759 0.000000
0.259398 0.759398 0.000000
0.265038 0.765038 0.000000
0.270677 0.770677 0.000000
0.276316 0.776316 0.000000
0.281955 0.781955 0.000000
0.287594 0.787594 0.000000
0.293233 0.793233 0.000000
0.298872 0.798872 0.000000
0.304511 0.804511 0.000000
0.310150 0.810150 0.000000
0.315789 0.815789 0.000000
0.321429 0.821429 0.000000
0.327068 0.827068 0.000000
0.332707 0.832707 0.000000
0.338346 0.838346 0.000000
0.343985 0.843985 0.000000
0.349624 0.849624 0.000000
0.355263 0.855263 0.000000
0.360902 0.860902 0.000000
0.366541 0.866541 0.000000
0.372180 0.872180 0.000000
0.377820 0.877820 0.000000
0.383459 0.883459 0.000000
0.389098 0.889098 0.000000
0.394737 0.894737 0.000000
0.400376 0.900376 0.000000
0.406015 0.906015 0.000000
0.411654 0.911654 0.000000
0.417293 0.917293 0.000000
0.422932 0.922932 0.000000
0.428571 0.928571 0.000000
0.434211 0.934211 0.000000
0.439850 0.939850 0.000000
0.445489 0.945489 0.000000
0.451128 0.951128 0.000000
0.456767 0.956767 0.000000
0.462406 0.962406 0.000000
0.468045 0.968045 0.000000
0.473684 0.973684 0.000000
0.479323 0.979323 0.000000
0.484962 0.984962 0.000000
0.490602 0.990602 0.000000
0.496241 0.996241 0.000000
0.501880 1.001880 0.000000
0.507519 1.007519 0.000000
0.513158 1.013158 0.000000
0.518797 1.018797 0.000000
0.524436 1.024436 0.000000
0.530075 1.030075 0.000000
0.535714 1.035714 0.000000
0.541353 1.041353 0.000000
0.546992 1.046992 0.000000
0.552632 1.052632 0.000000
0.558271 1.058271 0.000000
0.563910 1.063910 0.000000
0.569549 1.069549 0.000000
0.575188 1.075188 0.000000
0.580827 1.080827 0.000000
0.586466 1.086466 0.000000
0.592105 1.092105 0.000000
0.597744 1.097744 0.000000
0.603383 1.103383 0.000000
0.609023 1.109023 0.000000
0.614662 1.114662 0.000000
0.620301 1.120301 0.000000
0.625940 1.125940 0.000000
0.631579 1.131579 0.000000
0.637218 1.137218 0.000000
0.642857 1.142857 0.000000
0.648496 1.148496 0.000000
0.654135 1.154135 0.000000
0.659774 1.159774 0.000000
0.665414 1.165414 0.000000
0.671053 1.171053 0.000000
0.676692 1.176692 0.000000
0.682331 1.182331 0.000000
0.687970 1.187970 0.000000
0.693609 1.193609 0.000000
0.699248 1.199248 0.000000
0.704887 1.204887 0.000000
0.710526 1.210526 0.000000
0.716165 1.216165 0.000000
0.721805 1.221805 0.000000
0.727444 1.227444 0.000000
0.733083 1.233083 0.000000
0.738722 1.238722 0.000000
0.744361 1.244361 0.000000
0.750000 1.250000 0.000000
0.755639 1.255639 0.000000
0.761278 1.261278 0.000000
0.766917 1.266917 0.000000
0.772556 1.272556 0.000000
0.778195 1.278195 0.000000
0.783835 1.283835 0.000000
0.789474 1.289474 0.000000
0.795113 1.295113 0.000000
0.800752 1.300752 0.000000
0.806391 1.306391 0.000000
0.812030 1.312030 0.000000
0.817669 1.317669 0.000000
0.823308 1.323308 0.000000
0.828947 1.328947 0.000000
0.834586 1.334586 0.000000
0.840226 1.340226 0.000000
0.845865 1.345865 0.000000
0.851504 1.351504 0.000000
0.857143 1.357143 0.000000
0.862782 1.362782 0.000000
0.868421 1.368421 0.000000
0.874060 1.374060 0.000000
0.879699 1.379699 0.000000
0.885338 1.385338 0.000000
0.890977 1.390977 0.000000
0.896617 1.396617 0.000000
0.902256 1.402256 0.000000
0.907895 1.407895 0.000000
0.913534 1.413534 0.000000
0.919173 1.419173 0.000000
0.924812 1.424812 0.000000
0.930451 1.430451 0.000000
0.936090 1.436090 0.000000
0.941729 1.441729 0.000000
0.947368 1.447368 0.000000
0.953008 1.453008 0.000000
0.958647 1.458647 0.000000
0.964286 1.464286 0.000000
0.969925 1.469925 0.000000
0.975564 1.475564 0.000000
0.981203 1.481203 0.000000
0.986842 1.486842 0.000000
0.992481 1.492481 0.000000
0.998120 1.498120 0.000000
1.003759 1.503759 0.000000
1.009398 1.509398 0.000000
1.015038 1.515038 0.000000
1.020677 1.520677 0.000000
1.026316 1.526316 0.000000
1.031955 1.531955 0.000000
1.037594 1.537594 0.000000
1.043233 1.543233 0.000000
1.048872 1.548872 0.000000
1.054511 1.554511 0.000000
1.060150 1.560150 0.000000
1.065789 1.565789 0.000000
1.071429 1.571429 0.000000
1.077068 1.577068 0.000000
1.082707 1.582707 0.000000
1.088346 1.588346 0.000000
1.093985 1.593985 0.000000
1.099624 1.599624 0.000000
1.105263 1.605263 0.000000
1.110902 1.610902 0.000000
1.116541 1.616541 0.000000
1.122180 1.622180 0.000000
1.127820 1.627820 0.000000
1.133459 1.633459 0.000000
1.139098 1.639098 0.000000
1.144737 1.644737 0.000000
1.150376 1.650376 0.000000
1.156015 1.656015 0.000000
1.161654 1.661654 0.000000
1.167293 1.667293 0.000000
1.172932 1.672932 0.000000
1.178571 1.678571 0.000000
1.184211 1.684211 0.000000
1.189850 1.689850 0.000000
1.195489 1.695489 0.000000
1.201128 1.701128 0.000000
1.206767 1.706767 0.000000
1.212406 1.712406 0.000000
1.218045 1.718045 0.000000
1.223684 1.723684 0.000000
1.229323 1.729323 0.000000
1.234962 1.734962 0.000000
1.240602 1.740602 0.000000
1.246241 1.746241 0.000000
1.251880 1.751880 0.000000
1.257519 1.757519 0.000000
1.263158 1.763158 0.000000
1.268797 1.768797 0.000000
1.274436 1.774436 0.000000
1.280075 1.780075 0.000000
1.285714 1.785714 0.000000
1.291353 1.791353 0.000000
1.296992 1.796992 0.000000
1.302632 1.802632 0.000000
1.308271 1.808271 0.000000
1.313910 1.813910 0.000000
1.319549 1.819549 0.000000
1.325188 1.825188 0.000000
1.330827 1.830827 0.000000
1.336466 1.836466 0.000000
1.342105 1.842105 0.000000
1.347744 1.847744 0.000000
1.353383 1.853383 0.000000
1.359023 1.859023 0.000000
1.364662 1.864662 0.000000
1.370301 1.870301 0.000000
1.375940 1.875940 0.000000
1.381579 1.881579 0.000000
1.387218 1.887218 0.000000
1.392857 1.892857 0.000000
[...]
POINT_DATA 5816
SCALARS UX float 1
LOOKUP_TABLE default
-0.000000
0.000000
0.530005
-0.581581
-1.582910
0.377936
0.576083
0.000000
-0.000000
-0.000000
-0.000000
0.000000
-0.000000
0.325007
0.456578
0.532527
0.581033
0.614703
0.638810
0.658735
0.672794
0.682268
0.687091
0.686624
0.682322
0.674987
0.665670
0.655614
0.645346
0.635789
0.626988
0.619203
0.612356
0.606375
0.601214
0.596766
0.592944
0.589638
0.586791
0.584320
0.582187
0.580336
0.578719
0.577314
0.574818
0.573315
0.571557
0.569504
0.567129
0.564433
0.561379
0.558008
0.554335
0.550468
0.546528
0.542638
0.539040
0.535804
0.533458
0.531673
0.530593
0.530153
0.369382
0.210310
0.052713
-0.104317
-0.262098
-0.421244
-0.581956
-0.582398
-0.584162
-0.587613
-0.593310
-0.601078
-0.610928
-0.622387
-0.635104
-0.648240
-0.661718
-0.674932
-0.687761
-0.700044
-0.711899
-0.723557
-0.735061
-0.746661
-0.758690
-0.771569
-0.785099
-0.800100
-0.816525
-0.835122
-0.854812
-0.876085
-0.899323
-0.925975
-0.952284
-0.982150
-1.015272
-1.052598
-1.097022
-1.151567
-1.234910
-1.334535
-1.454158
-1.633616
-1.889494
-2.232367
-2.756792
-3.448129
-3.976707
-1.297325
-1.066233
-0.895967
-0.743154
-0.624030
-0.524638
-0.436144
-0.324857
-0.216762
-1.288173
-1.127997
-1.081582
-1.022529
-0.977232
-0.942074
-0.906933
-0.871955
-0.846869
-0.821618
-0.797207
-0.778917
-0.760589
-0.744243
-0.729682
-0.716173
-0.703343
-0.691777
-0.681511
-0.671055
-0.660598
-0.651088
-0.641760
-0.632292
-0.623883
-0.615419
-0.607887
-0.600580
-0.593511
-0.587291
-0.581000
-0.574838
-0.568877
-0.562791
-0.557193
-0.551485
-0.546395
-0.541155
-0.535849
-0.530541
-0.525363
-0.520736
-0.516326
-0.511937
-0.507418
-0.502961
-0.498730
-0.494593
-0.490442
-0.486654
-0.482725
-0.478858
-0.475074
-0.471270
-0.467589
-0.463921
-0.460264
-0.456577
-0.452903
-0.449304
-0.445665
-0.442184
-0.438645
-0.435175
-0.431784
-0.428450
-0.425029
-0.421528
-0.418121
-0.414629
-0.411268
-0.407956
-0.404677
-0.401331
-0.398020
-0.394660
-0.391279
-0.387849
-0.384573
-0.381234
-0.377933
-0.374618
-0.371252
-0.367909
-0.364539
-0.361144
-0.357752
-0.354392
-0.351053
-0.347653
-0.344271
-0.340856
-0.337450
-0.334032
-0.330637
-0.327213
-0.323767
-0.320362
-0.316936
-0.313520
-0.310076
-0.306613
-0.303114
-0.299633
-0.296162
-0.292674
-0.289149
-0.285628
-0.282088
-0.278531
-0.274970
-0.271384
-0.267781
-0.264173
-0.260554
-0.256928
-0.253312
-0.249700
-0.246079
-0.242429
-0.238760
-0.235092
-0.231404
-0.227704
-0.224008
-0.220300
-0.216590
-0.212841
-0.209083
-0.205320
-0.201556
-0.197777
-0.193982
-0.190183
-0.186376
-0.182561
-0.178740
-0.174897
-0.171043
-0.167179
-0.163304
-0.159415
-0.155525
-0.151607
-0.147678
-0.143743
-0.139802
-0.135870
-0.131912
-0.127944
-0.123965
-0.119972
-0.115966
-0.111933
-0.107894
-0.103836
-0.099779
-0.095714
-0.091662
-0.087607
-0.083534
-0.079442
-0.075336
-0.071231
-0.067132
-0.063016
-0.058881
-0.054736
-0.050570
-0.046403
-0.042232
-0.038055
-0.033879
-0.029709
-0.025541
-0.021374
-0.017193
-0.012986
-0.008737
-0.004480
-0.000229
0.004021
0.008272
0.012531
0.016797
0.021080
0.025367
0.029651
0.033933
0.038202
0.042467
0.046741
0.051009
0.055288
0.059583
0.063890
0.068200
0.072507
0.076829
0.081156
0.085522
0.089917
0.094321
0.098716
0.103094
0.107458
0.111808
0.116152
0.120536
0.124944
0.129357
0.133773
0.138178
0.142588
0.146994
0.151373
0.155770
0.160193
0.164619
0.169043
0.173485
0.177952
0.182426
0.186901
0.191377
0.195862
0.200340
0.204810
0.209276
0.213754
0.218207
0.222669
0.227159
0.231692
0.236228
0.240755
0.245281
0.249811
0.254363
0.258925
0.263491
0.268033
0.272573
0.277111
0.281679
0.286228
0.290798
0.295385
0.299952
0.304518
0.309127
0.313723
0.318339
0.322910
0.327475
0.332089
0.336713
0.341237
0.345778
0.350354
0.354954
0.359547
0.364154
0.368798
0.373443
0.382325
0.386416
0.390062
0.393546
0.396867
0.400058
0.403157
0.406138
0.409035
0.411856
0.414580
0.417206
0.419751
0.422233
0.424627
0.426948
0.429205
0.431396
0.433527
0.435597
0.437621
0.439602
0.441541
0.443440
0.445312
0.447159
0.448987
0.450796
0.452593
0.454382
0.456168
0.457953
0.459739
0.461527
0.463319
0.465119
0.466925
0.468738
0.470565
0.472402
0.474247
0.476104
0.477976
0.479859
0.481750
0.483654
0.485568
0.487495
0.489432
0.491379
0.493338
0.495298
0.497275
0.499259
0.501252
0.503258
0.505271
0.507295
0.509327
0.511368
0.513418
0.515476
0.517545
0.519624
0.521713
0.523814
0.525929
0.528055
0.530192
0.532342
0.534502
0.536674
0.538863
0.541066
0.543283
0.545514
0.547763
0.550025
0.552299
0.554593
0.556908
0.559238
0.561587
0.563954
0.566341
0.568751
0.571174
0.573618
0.250312
0.248209
0.240127
0.259188
0.033140
0.013734
0.015689
-0.004753
0.048368
0.067002
0.080320
-0.176624
-0.193901
-0.167013
-0.211380
-0.087695
-0.061800
-0.080488
0.510993
0.516142
0.513629
0.512550
-0.151237
-0.140384
-0.145548
-0.145025
-0.077009
0.470213
0.478559
0.471570
0.477350
-0.152848
-0.134415
-0.138167
-0.119084
-0.048605
-0.066105
-0.065442
-0.083978
-0.055847
-0.039097
-0.040120
0.389491
0.377946
0.392130
0.378238
-0.050029
0.028593
0.020685
0.040430
0.037007
0.175893
0.159973
0.179790
0.173884
0.171961
0.159058
0.156730
-0.373912
-0.370878
-0.392662
-0.381830
0.154649
-0.025562
-0.035296
-0.426703
-0.414926
-0.414996
-0.426464
-0.425727
-0.416913
-0.426195
-0.027182
-0.009840
-0.020697
-0.054159
-0.642198
-0.625124
-0.618744
-0.608708
0.556463
0.546619
0.545282
0.546253
-0.258694
-0.260305
-0.317558
-0.196158
-0.634540
-0.606844
-0.622471
-0.598928
-0.613865
-0.583780
-0.696728
-0.687289
-0.667810
-0.715509
-0.659370
-0.653952
-0.676901
-0.635396
-0.934836
-0.936437
-0.965241
-0.908796
0.506760
0.528337
0.525083
-0.026901
-0.411702
-0.016084
-0.063195
-0.052863
-0.062269
-0.056807
-0.426950
-0.436100
-0.190300
-0.212578
-0.209461
-0.438549
-0.284510
-0.275962
-0.270671
-0.315889
-0.273452
-0.279710
-0.236592
-0.185380
-0.127007
-0.187170
-0.122638
-0.221263
-0.212813
-0.244064
-0.199974
-0.320342
-0.292552
-0.299199
-0.266497
-0.292447
-0.163216
-0.151988
-0.161695
0.557052
0.559301
0.562946
0.551203
-0.146039
0.214263
0.200600
0.202102
0.557058
0.554307
-0.144530
-0.139503
-0.110167
-0.168772
-0.321407
-0.394322
-0.394374
0.098548
-0.752561
-0.744367
-0.770645
-0.732207
-0.050645
-0.051590
-0.021258
-0.025939
-0.506689
-0.509178
0.216374
-0.045676
-0.052030
-0.043274
-0.024554
0.003007
-0.151738
-0.144453
-0.129520
0.010359
-0.434892
-0.438020
-0.423839
0.518789
0.506599
0.521868
0.521859
-0.446663
0.048320
0.054260
0.057323
0.244368
0.238037
0.257396
0.136615
0.118319
0.125396
0.049017
0.024047
0.019451
0.108294
-0.037760
-0.033885
-0.027332
-0.303594
-0.316273
-0.322173
-0.291782
0.064149
0.091763
0.108916
0.034107
0.002696
0.339982
0.333445
0.348322
0.301830
0.307941
0.322000
-0.274923
-0.270759
-0.279747
-0.381236
-0.373166
-0.372688
0.506397
0.499337
0.504425
0.506072
0.541061
0.545317
0.546788
0.320237
-0.241171
-0.236522
-0.270335
0.161840
0.140861
0.132084
-0.521697
-0.510187
-0.499935
-0.490523
-0.496634
-0.482726
-0.475610
-0.465529
0.257589
0.254700
0.267469
0.484344
0.477293
-0.252944
0.269102
0.513975
0.508275
0.505998
-0.266378
-0.269744
-0.278777
-0.276830
-0.134148
-0.132015
-0.100239
0.425008
0.440050
0.430326
0.271879
0.260105
-0.099526
0.273393
-0.105983
-0.115326
-0.108353
0.468316
0.478711
0.469270
0.477736
0.519961
0.523199
0.515184
-0.143018
-0.150900
-0.151624
0.315731
0.330640
0.329566
0.316354
0.021182
0.037785
0.038392
-0.143930
-0.229928
-0.242606
-0.231825
0.349795
0.366806
0.361951
-0.236999
0.415348
-0.148161
-0.144492
0.406412
0.410835
0.415810
0.401486
0.025224
0.034997
0.034594
0.420056
0.429968
0.434116
0.045676
0.367142
0.366175
0.375730
0.443331
0.356282
-0.163044
-0.167910
-0.177397
-0.177770
0.089599
0.101269
0.089896
0.205012
0.191993
0.211279
0.190315
-0.146266
-0.156216
-0.138857
-0.146946
0.104602
-0.138157
-0.152377
0.020015
0.014166
0.027202
0.009717
0.006746
-0.140297
0.401924
0.389608
0.401092
0.298426
0.299428
0.289426
-0.349672
-0.371382
-0.364425
0.262396
0.256222
0.267281
0.255682
-0.267758
-0.282946
-0.267532
-0.283802
0.345336
0.357031
0.352268
-0.144034
-0.144473
-0.124767
0.093793
0.112221
0.092878
-0.164907
0.111078
-0.326375
-0.337221
-0.324646
-0.337595
0.549654
-0.551535
-0.539494
-0.524342
-0.518509
-0.446602
-0.452041
-0.572195
-0.574638
-0.555571
-0.099897
-0.096544
-0.589545
0.356991
0.416532
0.413827
0.406723
0.407178
0.416111
0.350067
-0.191847
-0.192743
-0.211421
0.385466
0.127883
0.093880
0.076134
0.019982
0.394224
0.388847
0.483199
0.483871
0.486084
-0.191236
-0.214784
0.421954
-0.244625
-0.235212
-0.261577
-0.225849
-0.496722
-0.500429
-0.515982
-0.519477
-0.447687
-0.458948
-0.470475
0.378930
0.367405
0.369253
0.487667
0.494721
0.496346
0.264917
0.240289
0.266212
-0.308643
-0.293156
-0.288168
-0.270299
0.237860
-0.210542
-0.232151
-0.211620
-0.129145
0.110915
0.129385
0.132281
0.390170
0.402981
0.405997
-0.299628
-0.310570
-0.321867
0.388999
0.408401
0.424114
-0.248666
-0.228580
-0.217381
-0.229983
0.010425
0.001809
-0.000064
-0.330472
-0.314676
-0.320708
-0.318856
-0.476533
-0.478226
-0.485530
-0.472708
0.169862
0.154904
0.161749
0.142770
0.405249
0.403912
0.393635
0.416290
0.419448
-0.125987
-0.124638
-0.118028
0.021560
-0.495349
-0.266914
-0.283290
0.438915
0.431389
0.434376
0.439779
-0.551947
-0.559319
-0.531234
-0.575807
-0.595885
0.358441
0.363305
0.353983
-0.262007
-0.072626
-0.083312
-0.088882
-0.489094
-0.507238
-0.452902
-0.449659
-0.440118
-0.097650
-0.111009
-0.126970
-0.145166
-0.145706
-0.169841
-0.159648
-0.164606
0.367120
0.356169
-0.630016
-0.663737
-0.646440
-0.263762
-0.267480
-0.284668
-0.285636
-0.149623
-0.163930
-0.149974
0.510354
0.511078
-0.900719
-0.877711
-0.731643
-0.729605
-0.754537
0.319942
0.310756
0.326667
-0.011152
-0.005016
0.000875
0.467357
0.464690
0.478952
-0.037303
-0.028640
-0.021258
0.319173
0.000569
-0.023782
-0.011596
-0.414659
-0.418634
-0.407986
0.422284
0.422440
-0.203761
-0.215924
-0.230557
-0.235426
-0.185847
-0.180260
0.419196
-0.161768
-0.179822
-0.181072
-0.201775
-0.140567
0.036663
0.046389
-0.201908
-0.562931
-0.583274
-0.440681
-0.454134
-0.422036
-0.432813
-0.196016
-0.437810
-0.117018
-0.095920
-0.111454
-0.146665
-0.167063
-0.167332
0.518461
0.521072
0.514448
0.519730
-0.595343
-0.579807
-0.607354
0.377989
0.383347
0.376794
-0.534265
-0.518176
0.438067
0.436346
0.432838
-0.413773
-0.425941
0.429814
0.043497
0.485430
0.476659
-0.411474
-0.422952
-0.411464
-0.424106
-0.399567
-0.403577
-0.302398
-0.312677
-0.304095
-0.315689
-0.656728
-0.656275
-0.680045
0.489459
0.483637
0.491068
-0.291972
-0.300173
-0.287016
0.119307
0.067671
0.028706
0.125449
0.134167
0.119270
0.477301
-0.472443
-0.501247
-0.016366
-0.015539
0.368051
0.380693
0.379348
-0.020017
-0.037489
0.048632
0.051994
-0.502779
-0.486084
0.329244
0.318770
0.327744
0.492102
0.494540
0.439648
0.418379
0.450087
0.315376
0.338953
0.345266
-0.156721
-0.256961
-0.254117
-0.265964
-0.156250
0.433980
-0.372641
-0.355938
-0.362301
-0.273783
-0.275889
-0.283877
-0.287791
0.048504
0.053138
0.036839
-0.342904
-0.045408
-0.221292
-0.215483
-0.228780
-0.380121
-0.397756
-0.389577
-0.386191
0.471828
0.468650
0.466214
0.226494
0.236998
0.229626
0.497976
0.239789
0.224926
0.214256
0.058703
0.023708
0.039042
0.378683
0.368741
0.376444
0.508325
-0.358920
-0.353621
-0.364574
-0.353019
-0.363077
-0.353209
-0.354696
0.490035
0.007210
0.011810
-0.782850
-0.809696
-0.762243
-0.247473
-0.252040
-0.077367
-0.080320
-0.058734
-0.101700
0.287188
0.272568
0.268692
0.251368
0.175199
-0.384574
0.475896
0.470299
0.473539
-0.734625
-0.769146
-0.720489
-0.295914
-0.286674
-0.291048
-0.305830
-0.312453
0.434234
0.435276
0.443609
-0.408344
-0.409546
-0.421139
-0.416765
0.107820
0.114317
0.092837
0.111944
0.220649
0.205599
0.226056
0.202941
0.159223
0.170603
0.167251
0.489431
0.488960
0.179357
-0.369805
-0.373471
-0.235950
-0.233982
-0.223567
-0.222138
0.295767
0.311896
0.316148
0.333009
0.276403
0.273054
-0.103879
0.252045
0.061479
0.076039
0.069309
0.016474
0.005948
-0.015561
-0.021973
0.064328
0.033485
-0.496327
-0.502140
-0.518031
0.043286
-0.488336
-0.476200
-0.465914
-0.318517
-0.304020
-0.184539
-0.178401
-0.194730
-0.050902
-0.271633
-0.281303
-0.289439
-0.269582
-0.293059
-0.287127
-0.284552
0.181492
0.187512
0.189367
-0.100589
-0.110631
-0.103668
-0.108098
0.388095
0.395032
0.388593
0.398348
-0.066263
-0.059459
-0.058106
0.260535
0.275614
0.175022
0.223244
0.233067
0.115378
0.134746
0.126414
0.129911
0.012011
0.021399
0.022327
0.032981
-0.227047
-0.237890
-0.238511
-0.250217
-0.234901
-0.244186
-0.180750
0.462702
0.465468
0.197804
0.194428
0.181123
0.214221
0.143757
0.149564
0.146957
0.193141
0.204562
0.190537
0.498873
-0.387473
-0.393136
-0.377101
-0.210776
-0.198866
-0.201949
-0.190775
-0.258091
-0.247239
-0.255845
-0.241068
-0.259801
-0.273328
0.267443
0.277962
0.271431
0.490767
0.487311
0.285558
0.253790
0.237912
0.259118
0.241433
-0.121801
-0.118524
-0.107219
-0.131038
-0.382774
-0.429163
-0.433412
-0.124713
-0.119895
-0.132856
0.175956
0.190285
0.185238
0.186380
-0.008207
-0.015358
-0.255141
-0.248247
-0.056588
-0.035743
0.037495
0.041770
0.150891
0.164166
-0.459639
-0.477966
-0.174382
-0.167380
-0.174171
0.078082
0.062672
0.082813
-0.047073
0.064108
0.075939
0.077498
0.070811
0.060139
0.073654
-0.132632
-0.136390
-0.126649
-0.426354
0.048850
-0.186196
-0.180929
-0.177752
-0.261473
-0.036933
-0.040972
-0.248289
-0.252199
-0.232987
-0.268683
-0.353465
-0.312280
-0.280081
-0.278725
-0.345873
-0.338514
-0.338491
-0.207584
0.145295
0.128408
0.130822
0.092153
0.091769
0.073576
0.063780
0.118564
0.073617
-0.254673
-0.262063
-0.273443
-0.266275
-0.250012
-0.255242
-0.055549
-0.061104
-0.048194
-0.067573
-0.069923
-0.078647
-0.209282
-0.195696
-0.194611
-0.182020
0.237510
0.254606
0.437903
-0.319915
-0.304097
-1.480136
-1.601061
0.231084
0.264888
0.276841
-0.343676
-0.353703
-0.358327
-0.496145
-0.334858
-0.328870
-0.321630
0.228667
0.215349
0.201214
-0.214652
-0.202538
-0.085645
-0.104980
-0.109080
-0.196439
0.062070
0.066098
0.077770
0.053023
-0.354290
-0.097252
-0.110944
-0.065449
-0.076918
0.319725
0.294493
0.322655
0.297645
0.341398
0.349889
0.201699
0.213060
0.202424
0.216232
0.208942
0.219976
0.188750
0.298742
0.301446
0.452268
0.452356
0.444541
0.460088
0.459749
0.177852
0.145045
0.384758
0.378072
-0.215696
-0.215169
-0.279491
0.208196
0.218180
-0.167005
-0.180434
-0.007105
-0.033492
0.435523
0.346283
0.344361
0.328678
0.245706
0.234210
0.230674
0.219550
0.308477
-0.175728
0.279045
-0.398948
-0.394221
-0.405619
-0.255979
-0.222284
-0.325387
-0.335600
-1.216452
-1.402300
-1.299953
0.129268
0.127361
0.144790
-0.329552
-0.319139
0.319056
0.311677
0.008420
0.025837
-0.194980
-0.169924
-0.149738
-0.230127
-0.287805
0.285255
0.293967
0.298020
-0.753277
-0.752121
-0.783776
0.281249
0.236113
0.229102
0.227113
-0.206869
-0.147903
-0.070829
-0.964899
-0.055942
0.306193
0.314795
0.317458
0.172122
0.176733
0.245891
0.255904
0.178765
0.160325
0.164816
0.428605
-0.118526
-0.062468
-0.082947
0.426247
-0.014953
-0.006485
-0.027934
0.238378
-0.126891
-0.041546
-0.017027
-0.049020
-1.000619
-0.912227
-1.093028
-0.004381
0.008377
-0.332433
-0.342013
-1.049718
-0.988188
-1.080513
-0.063116
-0.897176
-1.151953
-1.192069
-1.117852
-0.235450
-0.104423
-0.159894
0.499078
0.502809
-1.100404
-1.095297
-0.093417
-0.090310
0.224554
0.189458
0.213048
-0.035825
-0.085689
-0.059075
-0.084870
-0.103040
-0.106158
-0.031839
0.464317
0.469320
0.471266
-0.040569
-0.058347
-0.081678
-0.089253
-0.090132
-0.102201
0.087980
0.097803
0.087908
-0.014829
-1.037613
-1.081939
-1.046838
-0.401947
-0.398799
-0.409480
-0.390565
-0.409557
-0.420067
-0.428905
-0.405980
-0.393205
-0.419373
-0.392801
-0.134087
0.218005
0.217694
0.209186
-0.096693
0.211292
0.354647
0.359295
0.374965
-0.120737
-0.126173
0.338788
0.350333
0.355576
-0.301396
-0.296944
-0.075786
0.279018
-0.031428
0.245525
-0.993461
-1.004336
-1.156300
0.246554
0.250232
0.566084
0.564389
0.241900
0.432142
0.500051
-0.175267
0.568892
0.566529
0.571468
0.568177
0.434303
0.441423
0.443337
0.450189
0.095741
0.319136
0.324139
0.316390
-0.314508
-0.309887
-0.303441
0.311380
0.308000
0.424067
-0.874797
-0.899617
-0.829855
-0.958067
0.420521
-0.031899
0.271323
0.283210
0.283633
0.393689
0.388594
0.383761
0.377786
0.023729
0.001160
-0.433724
-0.441351
-0.190495
-0.457408
0.398382
0.402189
0.405694
-0.461704
-1.067857
-1.145370
0.495955
0.353940
-0.901888
-0.865636
0.105310
0.089381
0.102286
0.084629
0.497430
0.454662
0.485503
0.465595
0.353486
0.559581
-0.282427
-0.997086
-0.857576
-0.655880
-0.645252
-0.665493
-0.628366
-0.390138
-0.376515
-0.378582
-0.367397
-0.386446
-0.376999
-0.833801
-0.083908
-0.100288
-0.112306
-0.864954
-0.838699
-0.864560
-0.835241
-0.839380
-0.438027
-0.424714
-0.414109
-0.450931
-0.593224
-0.564457
-0.582177
-0.595314
-0.633474
-0.525849
-0.544713
-0.504182
-0.241760
-0.253516
-0.235720
-0.717854
-0.720372
-0.714724
-0.957632
-0.963072
-0.931645
-0.704475
-0.697669
-0.679522
-0.654069
-0.667492
-0.843414
-0.819082
-0.848669
-0.788152
-0.791558
-0.818155
-0.812452
0.413141
-0.671508
-0.650078
-0.068564
-0.094780
-0.676075
-0.665223
-0.695110
-0.684317
-0.655092
-0.682344
-0.656541
-0.253974
-0.830173
-0.803140
-0.210482
-0.439686
-0.463354
-0.456587
-0.440292
-0.429708
-0.719282
-0.743730
-0.710837
0.103096
0.115430
0.115033
0.408974
-0.403304
-0.415847
-0.429644
-0.392657
0.015590
-0.000810
-0.053154
-0.701478
-0.714951
-0.677935
-0.810627
-0.836900
-0.735685
-1.391869
-1.148515
-1.066715
0.416719
-0.562107
-0.539343
-0.902729
-0.531181
-0.841918
-0.830390
-0.884980
-0.804675
-0.799346
-0.683558
-0.716333
-0.727223
-0.744848
0.095506
0.132721
0.011254
-0.490679
-0.518495
0.005224
-0.526662
-0.546675
-0.550032
-0.526250
-0.502633
-0.506591
-0.917516
-0.924760
-0.858238
0.126422
-0.517400
0.305802
0.308255
-0.571390
-0.562886
-0.539826
-0.745215
-0.772722
-0.769262
-0.758150
-0.426720
-0.441441
-0.453251
-0.314352
-0.311254
-0.333865
-0.341495
-0.323740
-0.521219
-0.540048
-0.544413
0.536614
0.532817
-0.787239
-0.795645
0.530106
-0.169942
-0.247561
-0.479048
-0.492995
-0.509586
-0.536060
-0.507588
0.013869
-0.044769
0.053241
-0.365829
-0.365471
0.497771
0.477208
0.485947
0.490768
-0.792753
-0.773827
-0.818960
-0.810060
-0.662356
-0.644438
-0.635851
-0.623265
-0.010178
-0.788379
-0.756890
-0.790625
-0.735110
-0.768818
-0.391456
-0.420694
-0.400074
-0.409011
-0.383035
-0.863947
-0.964235
-0.495140
-0.519651
-0.001895
0.019398
-0.005844
0.023874
-0.486852
-0.464474
-0.483024
-0.469483
-0.449688
0.495527
-0.217720
-0.217833
-0.229928
-0.195679
0.540805
0.538311
0.535044
-0.450321
-0.501284
-0.516490
-0.500184
-0.530968
-0.534791
-0.807010
-0.778213
-0.801976
0.565505
-0.643171
-0.651511
-0.622518
-0.629962
-0.858265
-0.906264
-0.969479
-0.610698
-0.523192
-0.541192
-0.545631
-0.541868
-0.514004
-0.501134
-0.110768
-0.083275
-0.615302
-0.598052
-0.594955
-0.570996
-0.570455
0.524570
0.527828
-0.017452
-0.006086
0.004821
0.000231
-0.481196
-0.511909
-0.655229
-0.634336
-0.680102
-0.456468
-0.422774
-0.444764
-0.482964
-0.674013
-0.690679
-0.663961
-0.698207
-0.710027
-0.357566
-0.329427
-0.411174
-0.441426
0.154663
0.170136
0.141612
0.113219
0.115159
-0.687238
-0.642507
-0.614365
-0.640698
-0.664517
-0.664990
-0.715578
-0.752153
-0.680069
-0.682852
-0.680729
-0.653646
-0.386035
-0.397929
-0.024291
-0.367318
-0.350093
-0.348516
-0.331685
-0.591714
-0.614892
-0.641894
-0.637558
0.053881
-0.557920
-0.555717
-0.715812
-0.708338
-0.737067
-0.693732
-0.768162
-0.641258
-0.629759
-0.615531
-0.656000
-0.673673
0.427106
0.429719
0.422676
-0.614383
-0.589676
-0.446785
-0.726835
-0.738975
-0.766390
-0.581414
-0.595684
-0.569825
-0.556487
-0.355385
-0.344627
-0.331677
-0.347450
-0.633700
-0.611769
0.518046
0.506986
0.484239
-0.480561
-0.640441
-0.645771
-0.491015
-0.597575
-0.618666
-0.605524
-0.607877
-0.450498
-0.470381
-0.567169
-0.579760
-0.417259
-0.405160
-0.382666
-0.367507
-0.390837
-0.729335
0.269529
-0.375785
-0.359292
-0.389077
0.505454
-0.426478
-0.461223
0.403371
0.401639
0.407952
-0.441066
-0.465794
0.531803
0.289948
-0.751321
-0.348340