# vtk DataFile Version 2.0
Test
ASCII
DATASET POLYDATA
POINTS 858 float
0.000000 0.000000 0.000000
1.000000 0.000000 0.000000
1.000000 1.000000 0.000000
0.000000 1.000000 0.000000
0.300000 0.330000 0.000000
0.700000 0.680000 0.000000
0.100000 0.000000 0.000000
0.200000 0.000000 0.000000
0.300000 0.000000 0.000000
0.400000 0.000000 0.000000
0.500000 0.000000 0.000000
0.600000 0.000000 0.000000
0.700000 0.000000 0.000000
0.800000 0.000000 0.000000
0.900000 0.000000 0.000000
1.000000 0.100000 0.000000
1.000000 0.200000 0.000000
1.000000 0.300000 0.000000
1.000000 0.400000 0.000000
1.000000 0.500000 0.000000
1.000000 0.600000 0.000000
1.000000 0.700000 0.000000
1.000000 0.800000 0.000000
1.000000 0.900000 0.000000
0.900000 1.000000 0.000000
0.800000 1.000000 0.000000
0.700000 1.000000 0.000000
0.600000 1.000000 0.000000
0.500000 1.000000 0.000000
0.400000 1.000000 0.000000
0.300000 1.000000 0.000000
0.200000 1.000000 0.000000
0.100000 1.000000 0.000000
0.000000 0.900000 0.000000
0.000000 0.800000 0.000000
0.000000 0.700000 0.000000
0.000000 0.600000 0.000000
0.000000 0.500000 0.000000
0.000000 0.400000 0.000000
0.000000 0.300000 0.000000
0.000000 0.200000 0.000000
0.000000 0.100000 0.000000
0.307407 0.336481 0.000000
0.314815 0.342963 0.000000
0.322222 0.349444 0.000000
0.329630 0.355926 0.000000
0.337037 0.362407 0.000000
0.344444 0.368889 0.000000
0.351852 0.375370 0.000000
0.359259 0.381852 0.000000
0.366667 0.388333 0.000000
0.374074 0.394815 0.000000
0.381481 0.401296 0.000000
0.388889 0.407778 0.000000
0.396296 0.414259 0.000000
0.403704 0.420741 0.000000
0.411111 0.427222 0.000000
0.418519 0.433704 0.000000
0.425926 0.440185 0.000000
0.433333 0.446667 0.000000
0.440741 0.453148 0.000000
0.448148 0.459630 0.000000
0.455556 0.466111 0.000000
0.462963 0.472593 0.000000
0.470370 0.479074 0.000000
0.477778 0.485556 0.000000
0.485185 0.492037 0.000000
0.492593 0.498519 0.000000
0.500000 0.505000 0.000000
0.507407 0.511481 0.000000
0.514815 0.517963 0.000000
0.522222 0.524444 0.000000
0.529630 0.530926 0.000000
0.537037 0.537407 0.000000
0.544444 0.543889 0.000000
0.551852 0.550370 0.000000
0.559259 0.556852 0.000000
0.566667 0.563333 0.000000
0.574074 0.569815 0.000000
0.581481 0.576296 0.000000
0.588889 0.582778 0.000000
0.596296 0.589259 0.000000
0.603704 0.595741 0.000000
0.611111 0.602222 0.000000
0.618519 0.608704 0.000000
0.625926 0.615185 0.000000
0.633333 0.621667 0.000000
0.640741 0.628148 0.000000
0.648148 0.634630 0.000000
0.655556 0.641111 0.000000
0.662963 0.647593 0.000000
0.670370 0.654074 0.000000
0.677778 0.660556 0.000000
0.685185 0.667037 0.000000
0.692593 0.673519 0.000000
0.548037 0.570873 0.000000
0.554453 0.579695 0.000000
0.540788 0.582045 0.000000
0.550492 0.594703 0.000000
0.338797 0.350505 0.000000
0.329823 0.347064 0.000000
0.335712 0.339262 0.000000
0.451687 0.438509 0.000000
0.442642 0.430741 0.000000
0.457884 0.427703 0.000000
0.387297 0.847474 0.000000
0.374793 0.914734 0.000000
0.332869 0.847471 0.000000
0.447069 0.415163 0.000000
0.567391 0.482596 0.000000
0.554659 0.473874 0.000000
0.567453 0.464800 0.000000
0.301190 0.902112 0.000000
0.551747 0.457138 0.000000
0.356532 0.391813 0.000000
0.347986 0.386048 0.000000
0.176207 0.429241 0.000000
0.128375 0.468105 0.000000
0.136378 0.404291 0.000000
0.185621 0.475277 0.000000
0.497512 0.261165 0.000000
0.499167 0.296032 0.000000
0.469918 0.291504 0.000000
0.642232 0.687989 0.000000
0.624295 0.701188 0.000000
0.630549 0.678643 0.000000
0.647682 0.074905 0.000000
0.700945 0.096046 0.000000
0.657288 0.160421 0.000000
0.611443 0.684403 0.000000
0.559779 0.406431 0.000000
0.582162 0.394521 0.000000
0.580552 0.422827 0.000000
0.560788 0.374759 0.000000
0.541503 0.468043 0.000000
0.545465 0.480978 0.000000
0.428301 0.394826 0.000000
0.414860 0.384611 0.000000
0.432086 0.374027 0.000000
0.533961 0.477886 0.000000
0.527361 0.464336 0.000000
0.415481 0.368142 0.000000
0.484401 0.527206 0.000000
0.472984 0.524144 0.000000
0.481205 0.518972 0.000000
0.394266 0.424909 0.000000
0.401826 0.431399 0.000000
0.392742 0.434502 0.000000
0.642418 0.617836 0.000000
0.635302 0.612878 0.000000
0.644322 0.605726 0.000000
0.263646 0.464175 0.000000
0.250486 0.498376 0.000000
0.230296 0.467342 0.000000
0.491693 0.468898 0.000000
0.498004 0.479972 0.000000
0.487381 0.480785 0.000000
0.718619 0.489140 0.000000
0.756680 0.466072 0.000000
0.751564 0.516847 0.000000
0.497232 0.719177 0.000000
0.477497 0.748035 0.000000
0.465924 0.716726 0.000000
0.501292 0.467390 0.000000
0.529064 0.285755 0.000000
0.547173 0.240449 0.000000
0.474742 0.511943 0.000000
0.403118 0.392815 0.000000
0.412434 0.399392 0.000000
0.653057 0.614785 0.000000
0.659187 0.602396 0.000000
0.400247 0.379451 0.000000
0.459133 0.636583 0.000000
0.434636 0.647284 0.000000
0.440667 0.616932 0.000000
0.453650 0.664799 0.000000
0.666296 0.616100 0.000000
0.657731 0.628197 0.000000
0.420489 0.468863 0.000000
0.414183 0.459489 0.000000
0.424065 0.460120 0.000000
0.629321 0.574616 0.000000
0.630370 0.589442 0.000000
0.617226 0.584388 0.000000
0.422026 0.450877 0.000000
0.590180 0.614274 0.000000
0.596278 0.627413 0.000000
0.585881 0.628067 0.000000
0.630677 0.603443 0.000000
0.529117 0.486095 0.000000
0.517046 0.488781 0.000000
0.522040 0.477224 0.000000
0.308641 0.392803 0.000000
0.323746 0.398675 0.000000
0.304273 0.411173 0.000000
0.146020 0.514086 0.000000
0.087335 0.505198 0.000000
0.624982 0.561914 0.000000
0.643811 0.559907 0.000000
0.831909 0.406061 0.000000
0.881376 0.423788 0.000000
0.839177 0.457573 0.000000
0.509066 0.478681 0.000000
0.614792 0.620247 0.000000
0.608406 0.635616 0.000000
0.603251 0.619643 0.000000
0.640290 0.595050 0.000000
0.524731 0.497540 0.000000
0.338689 0.392113 0.000000
0.347423 0.395876 0.000000
0.340116 0.407012 0.000000
0.686563 0.659098 0.000000
0.682555 0.651347 0.000000
0.934704 0.856355 0.000000
0.940546 0.930926 0.000000
0.863552 0.916423 0.000000
0.172107 0.566287 0.000000
0.188105 0.516551 0.000000
0.221330 0.532895 0.000000
0.683914 0.680068 0.000000
0.692945 0.685712 0.000000
0.683376 0.697853 0.000000
0.672414 0.683990 0.000000
0.557147 0.529227 0.000000
0.554161 0.540325 0.000000
0.546244 0.533101 0.000000
0.391911 0.394487 0.000000
0.387591 0.383772 0.000000
0.385780 0.368800 0.000000
0.671617 0.628861 0.000000
0.664093 0.637808 0.000000
0.408700 0.450928 0.000000
0.406517 0.467364 0.000000
0.394366 0.455525 0.000000
0.388841 0.472148 0.000000
0.792728 0.486062 0.000000
0.461047 0.516036 0.000000
0.460182 0.532753 0.000000
0.450617 0.523703 0.000000
0.364207 0.398120 0.000000
0.371344 0.402923 0.000000
0.362621 0.408449 0.000000
0.235276 0.413110 0.000000
0.235915 0.390376 0.000000
0.260894 0.399649 0.000000
0.564107 0.604249 0.000000
0.558497 0.625526 0.000000
0.545610 0.611482 0.000000
0.542035 0.628852 0.000000
0.441269 0.401429 0.000000
0.443649 0.385779 0.000000
0.454140 0.398188 0.000000
0.456246 0.380948 0.000000
0.531090 0.597071 0.000000
0.528592 0.618783 0.000000
0.693800 0.600685 0.000000
0.675646 0.601117 0.000000
0.688895 0.583493 0.000000
0.466943 0.412411 0.000000
0.469666 0.393398 0.000000
0.215629 0.311290 0.000000
0.236374 0.342186 0.000000
0.194357 0.347185 0.000000
0.372859 0.289727 0.000000
0.362694 0.307734 0.000000
0.346245 0.295576 0.000000
0.824768 0.656091 0.000000
0.787989 0.680173 0.000000
0.787481 0.637866 0.000000
0.763354 0.658567 0.000000
0.564845 0.587843 0.000000
0.565674 0.575091 0.000000
0.575285 0.580662 0.000000
0.591463 0.532694 0.000000
0.606735 0.524365 0.000000
0.606700 0.541268 0.000000
0.696107 0.663701 0.000000
0.695223 0.651919 0.000000
0.114270 0.553146 0.000000
0.897846 0.490106 0.000000
0.941355 0.438159 0.000000
0.491870 0.442127 0.000000
0.508682 0.433741 0.000000
0.504276 0.453072 0.000000
0.616608 0.507977 0.000000
0.629719 0.487283 0.000000
0.643435 0.510566 0.000000
0.660659 0.486926 0.000000
0.584650 0.557787 0.000000
0.582076 0.545531 0.000000
0.595086 0.552412 0.000000
0.215445 0.494211 0.000000
0.502563 0.534321 0.000000
0.493623 0.527201 0.000000
0.502900 0.523550 0.000000
0.490744 0.536689 0.000000
0.303740 0.348241 0.000000
0.312638 0.354325 0.000000
0.302746 0.359450 0.000000
0.683727 0.548378 0.000000
0.666144 0.562133 0.000000
0.663581 0.542222 0.000000
0.366098 0.324774 0.000000
0.379406 0.309842 0.000000
0.251675 0.434611 0.000000
0.214900 0.437402 0.000000
0.581091 0.493223 0.000000
0.603283 0.484739 0.000000
0.593195 0.510449 0.000000
0.429738 0.356510 0.000000
0.412970 0.350726 0.000000
0.358920 0.356811 0.000000
0.352460 0.366146 0.000000
0.347463 0.357590 0.000000
0.353794 0.402394 0.000000
0.527483 0.436280 0.000000
0.546965 0.439869 0.000000
0.535210 0.453469 0.000000
0.624606 0.790385 0.000000
0.614250 0.755688 0.000000
0.654837 0.763041 0.000000
0.384960 0.332814 0.000000
0.619946 0.597007 0.000000
0.358705 0.265521 0.000000
0.397502 0.266486 0.000000
0.377869 0.228897 0.000000
0.471169 0.372235 0.000000
0.492664 0.362648 0.000000
0.488718 0.386734 0.000000
0.431288 0.062893 0.000000
0.512348 0.074893 0.000000
0.450325 0.128772 0.000000
0.515327 0.223180 0.000000
0.538419 0.183215 0.000000
0.367912 0.509419 0.000000
0.343175 0.515399 0.000000
0.351317 0.488263 0.000000
0.593186 0.193353 0.000000
0.476496 0.230456 0.000000
0.594140 0.256114 0.000000
0.629340 0.367381 0.000000
0.659922 0.374166 0.000000
0.641019 0.397588 0.000000
0.669525 0.412603 0.000000
0.510665 0.591750 0.000000
0.493263 0.584115 0.000000
0.507476 0.576852 0.000000
0.492575 0.790205 0.000000
0.516533 0.753914 0.000000
0.493265 0.606545 0.000000
0.794852 0.435952 0.000000
0.797754 0.379724 0.000000
0.755728 0.420083 0.000000
0.528549 0.642034 0.000000
0.507334 0.653897 0.000000
0.509532 0.626562 0.000000
0.580705 0.748031 0.000000
0.605192 0.727758 0.000000
0.748472 0.635779 0.000000
0.742539 0.660255 0.000000
0.323194 0.421808 0.000000
0.325468 0.445306 0.000000
0.301700 0.435431 0.000000
0.295276 0.460827 0.000000
0.622421 0.457821 0.000000
0.642814 0.468538 0.000000
0.320303 0.468200 0.000000
[...]
POINT_DATA 858
SCALARS UX float 1
LOOKUP_TABLE default
-0.000000
0.000000
0.042058
-0.056801
-0.028072
0.025304
0.000000
-0.000000
-0.000000
-0.000000
-0.000000
0.000000
0.000000
0.000000
-0.000000
0.023816
0.037911
0.047399
0.054627
0.059226
0.059548
0.055200
0.048519
0.043636
0.031503
0.021133
0.011508
0.002874
-0.006194
-0.015904
-0.026010
-0.036399
-0.046650
-0.057552
-0.059394
-0.062263
-0.065072
-0.066198
-0.062953
-0.054183
-0.040755
-0.025179
-0.026885
-0.025359
-0.023913
-0.024153
-0.022584
-0.020920
-0.021260
-0.020214
-0.019060
-0.017959
-0.018689
-0.017303
-0.016339
-0.014950
-0.014668
-0.013434
-0.013117
-0.012079
-0.010583
-0.010354
-0.008869
-0.008523
-0.007573
-0.005885
-0.004965
-0.005165
-0.003447
-0.002794
-0.001525
-0.000591
0.001217
0.000957
0.002666
0.003902
0.004005
0.005684
0.007231
0.007734
0.007528
0.008291
0.010038
0.010743
0.011544
0.013353
0.014225
0.014975
0.015449
0.017549
0.018021
0.019038
0.021336
0.021189
0.023595
-0.016862
-0.015906
-0.017483
-0.015534
-0.010907
-0.014740
-0.011208
0.010231
0.008697
0.010554
-0.018337
-0.018718
-0.024034
0.008660
0.022308
0.020874
0.020861
-0.026542
0.019311
-0.034330
-0.035964
-0.049428
-0.054264
-0.051450
-0.049422
0.001462
0.003107
0.000503
0.004920
0.003598
0.002013
0.002784
0.005601
0.007401
0.000114
0.015542
0.016204
0.018265
0.013129
0.019647
0.020895
0.005357
0.003283
0.003743
0.019967
0.018537
0.001874
-0.026093
-0.027251
-0.026655
-0.032008
-0.031752
-0.034978
0.029673
0.027679
0.032884
-0.043050
-0.043609
-0.045682
0.016031
0.016756
0.012785
0.033071
0.035259
0.037249
-0.010319
-0.011179
-0.013779
0.017024
0.004909
0.004251
-0.027290
0.002289
0.003736
0.033312
0.034194
0.001517
-0.019349
-0.020835
-0.022345
-0.017930
0.034726
0.032261
-0.033310
-0.033855
-0.032383
0.031545
0.031674
0.030114
-0.031607
-0.009496
-0.007864
-0.009021
0.030529
0.020137
0.019025
0.019136
-0.040297
-0.039661
-0.040627
-0.052803
-0.058196
0.030827
0.031708
0.038966
0.044901
0.042606
0.018192
-0.003996
-0.005690
-0.006947
0.032619
0.019958
-0.038476
-0.037736
-0.038904
0.030699
0.032792
0.038412
0.036446
0.028473
-0.049416
-0.048884
-0.045482
0.014220
0.018395
0.014509
0.010281
0.023913
0.020911
0.020096
0.000123
-0.000294
-0.000722
0.034799
0.030063
-0.034429
-0.034469
-0.035627
-0.035288
0.039592
-0.028515
-0.027539
-0.028710
-0.033010
-0.030784
-0.036970
-0.044834
-0.044002
-0.043047
-0.013332
-0.011858
-0.014334
-0.012916
0.006984
0.005735
0.007684
0.006184
-0.016989
-0.015021
0.035888
0.034989
0.035149
0.009983
0.008322
-0.035375
-0.039375
-0.042512
-0.008821
-0.009292
-0.012091
0.042184
0.037178
0.041123
0.038190
-0.014180
-0.012013
-0.008362
0.027349
0.027653
0.028820
0.032922
0.035125
-0.055253
0.049565
0.051400
0.014326
0.014684
0.016164
0.027027
0.026356
0.028756
0.028390
0.026719
0.027265
0.028671
-0.046725
-0.023713
-0.024916
-0.022773
-0.025004
-0.036542
-0.035841
-0.038860
0.033315
0.032980
0.031807
-0.007511
-0.007101
-0.044046
-0.046732
0.023923
0.024531
0.025891
0.001841
-0.000081
-0.005608
-0.009895
-0.008455
-0.037512
0.016062
0.017547
0.018056
0.005887
0.004589
0.009358
-0.004534
0.028103
-0.010364
-0.006669
-0.007850
0.006432
0.007163
0.009005
-0.001330
-0.000170
-0.002192
0.001609
0.001981
-0.034457
-0.035788
-0.036455
0.005324
-0.000827
0.008259
0.017921
0.020944
0.020964
0.024317
-0.019037
-0.021016
-0.020659
-0.008291
-0.006690
-0.018958
0.037194
0.033925
0.032510
-0.012772
-0.013640
-0.015841
0.000390
0.002696
0.039199
0.037210
-0.039706
-0.039258
-0.040725
-0.040784
0.023755
0.025918
-0.039025
0.002241
-0.003696
-0.003119
-0.004724
-0.046202
-0.050787
-0.058084
-0.046954
-0.042382
-0.041486
-0.010664
-0.011662
0.034172
0.035091
-0.041627
-0.040797
-0.053206
-0.045571
-0.053834
-0.059002
-0.013975
-0.031864
-0.028106
-0.030011
-0.028831
-0.005523
-0.004197
-0.047611
0.040125
0.046771
0.035785
-0.040773
-0.039956
-0.047379
-0.011742
-0.013407
-0.009406
-0.026985
-0.026165
-0.029419
-0.015875
0.039758
0.006841
0.005337
-0.038854
-0.007601
-0.005039
0.005352
0.005944
0.007823
0.009014
0.005043
0.040492
-0.015918
-0.020081
-0.013639
-0.021772
-0.023128
-0.015981
0.042434
0.033041
-0.022813
0.028817
0.028120
0.023837
-0.021854
-0.006878
-0.010015
-0.006846
0.003919
0.010458
-0.033511
-0.031391
0.005966
0.007091
0.011430
-0.046441
-0.043596
-0.017249
0.014810
0.020902
0.013289
-0.038045
-0.038210
-0.017551
-0.015603
0.030429
0.031151
-0.040558
-0.033700
-0.035383
0.044308
-0.037743
0.010518
0.011642
0.015919
0.026735
0.029714
-0.005035
-0.042199
-0.039824
-0.001728
-0.014129
-0.006309
-0.005322
-0.043862
-0.033371
-0.046155
-0.032204
-0.036679
-0.037820
-0.033042
0.037954
0.038553
0.037462
0.027098
0.028948
-0.029669
-0.028352
-0.007072
-0.004076
0.044736
0.044499
-0.029800
0.034130
0.036982
-0.035018
-0.003099
-0.005246
-0.028415
-0.026422
-0.037145
-0.036299
-0.036398
-0.036437
-0.025092
0.032698
0.033425
0.033889
-0.059952
0.020337
0.029816
0.001466
0.003468
0.000396
-0.001725
0.045904
0.048514
0.052109
0.053535
0.000059
-0.011052
-0.010311
0.006936
0.030130
0.028817
0.034944
0.034180
-0.017228
-0.019236
0.011504
0.010150
0.012322
0.011920
0.005339
0.001403
0.007578
0.010157
-0.003178
0.036048
0.037078
-0.020276
-0.016345
-0.016338
0.015490
0.014127
-0.013344
0.012998
-0.040223
-0.038773
-0.041412
-0.000161
-0.000949
-0.042027
-0.042334
-0.039676
-0.024877
-0.025126
0.036835
0.038980
-0.023767
-0.026010
-0.023211
-0.011711
-0.016087
-0.024947
-0.003061
-0.001093
-0.039597
-0.005489
-0.003139
0.007549
0.007305
-0.017806
-0.018428
-0.019732
0.016466
0.001577
0.001412
0.035612
-0.003381
-0.008967
-0.005856
-0.007272
-0.030881
-0.032212
-0.031895
0.003148
-0.035124
0.003931
0.006908
-0.002375
-0.005664
-0.013578
0.011540
0.012573
0.010970
0.025058
0.023614
-0.037814
-0.038546
0.017960
0.012859
0.015796
0.024517
-0.002520
-0.026115
-0.036080
0.013478
-0.027708
-0.029839
0.009676
-0.029928
-0.024556
0.036350
0.035579
0.007183
0.047504
-0.040058
0.017431
-0.014105
-0.025185
-0.022390
-0.011280
-0.037800
-0.027839
-0.038239
0.032595
0.025806
0.026014
0.018630
0.043213
0.027689
0.007403
-0.014572
-0.013712
-0.023719
-0.022500
-0.020430
-0.020700
-0.020349
0.013808
0.015497
0.014382
0.007987
0.007247
0.020808
0.020623
0.018708
-0.020541
0.016951
0.032374
0.011768
0.015227
0.014132
-0.019191
0.028652
0.030311
0.012351
0.025704
0.024751
0.000852
-0.026196
-0.026974
-0.026586
-0.025427
0.019592
0.017187
0.024616
-0.034386
0.018979
-0.027254
-0.016049
-0.014836
-0.024755
-0.002417
0.033210
-0.032416
-0.033328
-0.031989
-0.011429
-0.033789
0.012348
-0.010959
-0.000355
-0.037452
-0.036774
-0.022185
0.001924
-0.020806
-0.020550
-0.002943
0.041546
0.042326
-0.029608
-0.020108
-0.034097
-0.002545
0.030437
0.026455
0.036837
0.031835
-0.002893
0.039458
-0.035133
-0.034377
-0.021078
-0.031845
-0.005467
-0.009329
-0.006587
-0.029398
-0.030894
-0.004377
-0.003128
-0.031467
-0.036224
-0.000357
-0.000664
-0.034083
-0.010137
-0.037705
-0.026981
-0.026121
-0.029429
-0.011074
0.004212
0.008320
0.010386
-0.011206
-0.027720
-0.030189
-0.002605
0.028972
-0.001769
0.019482
0.017973
0.021517
0.022751
0.016868
0.019600
-0.033199
-0.031784
-0.041216
0.022472
-0.026951
-0.002010
-0.001024
0.012926
-0.039200
0.019129
-0.004954
-0.004231
0.011048
0.016541
-0.042741
-0.051667
-0.006529
0.037006
-0.013939
0.023018
0.017817
-0.055194
-0.049293
-0.039905
0.046161
0.040254
-0.027381
-0.027362
-0.031069
0.012175
-0.015702
0.032165
0.000553
-0.006550
0.031511
0.018425
-0.038830
-0.054988
0.007697
-0.004754
-0.002358
-0.006908
0.020374
0.026388
0.011125
-0.017336
-0.020786
0.027286
0.010187
-0.036332
-0.035845
-0.038489
0.012078
0.020664
-0.036673
0.023334
0.027318
-0.028003
0.033768
0.022123
-0.033127
-0.034964
0.022465
-0.037064
-0.037338
-0.029222
0.001415
-0.003969
-0.006514
0.007314
-0.013947
0.032771
-0.032360
-0.031467
-0.024648
0.017819
-0.027055
-0.020647
-0.018492
0.023454
0.022107
-0.029111
-0.030485
-0.015013
0.012988
-0.032576
0.028507
-0.023947
0.025045
0.024901
0.025037
0.026364
0.019581
0.017578
0.021109
-0.022374
0.006728
-0.006778
0.009894
-0.018143
-0.017377
0.001850
0.003612
-0.034338
-0.028543
-0.025469
0.024585
0.024376
0.004811
0.022951
0.016672
-0.023566
-0.025017
0.005570
0.022584
0.004311
-0.030709
-0.031066
0.021955
0.019357
SCALARS UY float 1
LOOKUP_TABLE default
-0.000000
-0.000000
-0.330000
-0.330000
-0.094870
-0.232410
-0.000000
-0.000000
-0.000000
-0.000000
-0.000000
-0.000000
-0.000000
-0.000000
-0.000000
-0.041396
-0.074907
-0.106623
-0.136941
-0.165967
-0.194645
-0.224560
-0.257681
-0.293391
-0.330000
-0.330000
-0.330000
-0.330000
-0.330000
-0.330000
-0.330000
-0.330000
-0.330000
-0.295765
-0.261994
-0.229069
-0.197591
-0.168085
-0.139701
-0.110942
-0.079007
-0.043175
-0.098625
-0.102187
-0.105608
-0.106692
-0.109895
-0.113175
-0.114263
-0.117016
-0.119890
-0.122930
-0.124578
-0.126825
-0.129038
-0.131801
-0.133661
-0.136046
-0.138063
-0.140623
-0.143702
-0.145052
-0.147962
-0.149548
-0.151994
-0.155432
-0.157796
-0.159044
-0.161874
-0.163927
-0.166797
-0.169000
-0.172127
-0.172624
-0.175808
-0.178477
-0.179697
-0.183003
-0.186207
-0.187507
-0.191270
-0.193222
-0.196105
-0.197502
-0.199574
-0.203134
-0.205551
-0.208198
-0.209805
-0.213576
-0.215322
-0.218243
-0.222296
-0.223571
-0.228219
-0.202941
-0.206261
-0.206761
-0.211063
-0.095104
-0.096815
-0.091063
-0.120903
-0.117937
-0.117117
-0.282142
-0.303191
-0.281285
-0.112899
-0.139579
-0.136020
-0.134400
-0.298540
-0.130974
-0.132270
-0.130650
-0.141323
-0.155279
-0.134447
-0.156394
-0.070688
-0.081009
-0.078629
-0.240835
-0.244317
-0.237870
-0.020371
-0.027237
-0.045352
-0.239043
-0.116716
-0.114510
-0.122970
-0.107328
-0.133345
-0.137367
-0.106424
-0.103128
-0.100679
-0.135657
-0.131294
-0.098539
-0.187353
-0.185958
-0.184392
-0.146561
-0.149192
-0.151892
-0.192059
-0.190293
-0.185122
-0.152990
-0.164368
-0.153493
-0.131158
-0.135294
-0.137954
-0.153771
-0.148124
-0.165140
-0.245093
-0.253257
-0.243142
-0.130881
-0.079090
-0.066231
-0.182134
-0.105875
-0.107650
-0.189263
-0.185246
-0.101563
-0.218251
-0.220329
-0.211339
-0.226590
-0.190726
-0.195530
-0.165498
-0.162011
-0.162097
-0.172925
-0.178007
-0.175907
-0.157846
-0.217622
-0.221777
-0.221896
-0.184028
-0.137853
-0.138091
-0.134711
-0.131119
-0.134839
-0.137079
-0.169825
-0.168061
-0.168558
-0.169911
-0.131097
-0.138818
-0.148483
-0.134644
-0.217971
-0.224607
-0.218650
-0.180790
-0.141450
-0.133811
-0.135613
-0.139314
-0.213564
-0.208209
-0.279906
-0.305743
-0.302041
-0.186773
-0.170190
-0.175688
-0.236266
-0.238496
-0.243762
-0.239289
-0.153550
-0.159805
-0.156605
-0.107232
-0.103619
-0.098381
-0.196076
-0.202257
-0.158660
-0.164192
-0.159501
-0.164268
-0.156417
-0.182948
-0.187823
-0.184534
-0.135078
-0.135958
-0.141420
-0.134905
-0.127027
-0.130317
-0.214556
-0.220261
-0.215685
-0.220381
-0.108729
-0.104406
-0.108346
-0.103643
-0.210735
-0.216797
-0.189216
-0.186940
-0.182818
-0.112981
-0.107774
-0.100344
-0.110385
-0.113640
-0.075680
-0.080764
-0.077287
-0.213599
-0.221892
-0.207659
-0.214759
-0.209191
-0.202653
-0.202457
-0.156605
-0.155465
-0.160611
-0.216034
-0.209053
-0.182920
-0.160703
-0.145646
-0.122727
-0.121352
-0.126664
-0.151450
-0.146313
-0.154730
-0.148815
-0.165474
-0.160100
-0.163287
-0.162614
-0.190138
-0.187509
-0.185445
-0.190711
-0.111434
-0.114903
-0.117305
-0.170689
-0.173158
-0.166600
-0.085687
-0.081499
-0.142455
-0.143329
-0.143844
-0.143259
-0.150005
-0.095782
-0.093706
-0.095630
-0.102269
-0.097652
-0.138633
-0.123307
-0.125659
-0.128733
-0.269872
-0.259913
-0.262277
-0.088125
-0.182405
-0.068965
-0.069457
-0.058931
-0.101903
-0.100210
-0.106885
-0.015591
-0.019096
-0.032670
-0.060167
-0.049313
-0.173941
-0.174105
-0.166110
-0.053688
-0.061187
-0.072607
-0.108773
-0.112556
-0.118987
-0.125509
-0.208048
-0.204810
-0.203587
-0.266728
-0.256404
-0.211250
-0.139628
-0.120895
-0.132574
-0.223435
-0.225819
-0.217959
-0.256767
-0.251534
-0.206675
-0.215792
-0.142505
-0.150324
-0.145163
-0.153252
-0.136655
-0.141564
-0.157407
-0.031599
-0.027407
-0.044071
-0.040294
-0.117574
-0.121778
-0.144572
-0.126773
-0.192623
-0.178390
-0.310815
-0.289964
-0.176863
-0.176839
-0.159615
-0.169315
-0.202688
-0.206288
-0.227739
-0.209009
-0.071771
-0.214560
-0.222004
-0.229717
-0.212385
-0.213146
-0.214240
-0.223162
-0.106879
-0.125646
-0.193727
-0.224285
-0.208992
-0.246390
-0.062869
-0.059236
-0.051925
-0.204734
-0.212393
-0.203316
-0.070176
-0.120802
-0.111030
-0.110883
-0.145471
-0.090447
-0.091465
-0.092968
-0.089208
-0.097837
-0.275979
-0.282691
-0.197052
-0.270654
-0.251688
-0.260472
-0.205641
-0.200679
-0.246576
-0.196952
-0.101900
-0.198701
-0.118730
-0.127196
-0.111501
-0.265563
-0.048300
-0.045314
-0.039015
-0.093963
-0.066839
-0.301247
-0.276915
-0.113586
-0.024833
-0.046495
-0.104163
-0.105696
-0.076539
-0.254519
-0.251870
-0.267247
-0.146300
-0.151362
-0.217883
-0.226520
-0.158812
-0.155697
-0.243540
-0.239253
-0.220089
-0.163573
-0.158163
-0.244071
-0.250790
-0.247258
-0.138226
-0.145339
-0.025986
-0.119538
-0.112512
-0.012461
-0.039471
-0.017212
-0.020050
-0.121619
-0.181694
-0.132406
-0.180319
-0.204329
-0.189832
-0.200482
-0.202394
-0.196371
-0.210947
-0.168929
-0.168498
-0.183379
-0.187709
-0.225525
-0.229676
-0.189146
-0.202130
-0.180725
-0.166302
-0.176929
-0.185098
-0.056150
-0.052051
-0.261261
-0.247138
-0.156284
-0.159263
-0.161847
-0.155161
-0.235684
-0.176692
-0.181349
-0.179733
-0.187953
-0.173871
-0.165824
-0.227224
-0.229489
-0.097048
-0.093107
-0.212047
-0.195391
-0.206595
-0.183611
-0.036597
-0.087130
-0.083943
-0.252783
-0.164234
-0.158204
-0.221299
-0.222467
-0.212786
-0.204979
-0.114996
-0.111250
-0.118918
-0.113711
-0.308510
-0.288438
-0.290944
-0.106485
-0.305837
-0.203211
-0.204770
-0.085095
-0.079170
-0.084846
-0.119778
-0.117977
-0.083114
-0.112466
-0.121624
-0.121778
-0.120960
-0.224636
-0.229812
-0.137963
-0.145829
-0.114058
-0.203283
-0.206105
-0.186730
-0.187371
-0.214686
-0.197498
-0.204974
-0.210395
-0.176514
-0.183979
-0.227922
-0.234053
-0.162865
-0.111395
-0.105498
-0.234611
-0.240212
-0.199920
-0.203334
-0.200721
-0.139806
-0.275703
-0.265083
-0.213848
-0.096653
-0.224844
-0.230038
-0.229941
-0.188276
-0.189044
-0.194663
-0.086933
-0.155128
-0.235620
-0.229833
-0.270430
-0.282639
-0.088063
-0.120260
-0.122351
-0.123345
-0.175840
-0.174187
-0.173079
-0.179249
-0.098927
-0.083793
-0.081770
-0.133857
-0.221565
-0.190321
-0.150200
-0.063959
-0.196546
-0.187317
-0.097785
-0.195635
-0.193859
-0.199231
-0.198491
-0.078771
-0.177905
-0.126410
-0.123194
-0.234960
-0.058307
-0.064685
-0.041256
-0.080212
-0.055473
-0.142439
-0.272579
-0.287401
-0.269869
-0.287345
-0.250381
-0.133932
-0.114957
-0.193905
-0.196992
-0.193970
-0.192833
-0.211476
-0.080393
-0.083274
-0.124043
-0.127353
-0.128279
-0.128908
-0.126560
-0.128308
-0.131328
-0.118299
-0.236166
-0.127083
-0.081489
-0.097343
-0.107130
-0.096527
-0.196801
-0.173301
-0.170552
-0.126594
-0.151912
-0.147919
-0.232783
-0.191795
-0.190958
-0.091918
-0.195633
-0.082013
-0.065111
-0.080659
-0.257605
-0.128099
-0.088829
-0.190805
-0.187232
-0.195195
-0.256946
-0.221796
-0.176571
-0.172167
-0.175567
-0.214128
-0.173517
-0.134828
-0.219076
-0.089438
-0.151459
-0.146727
-0.196669
-0.092583
-0.197726
-0.193979
-0.093572
-0.187352
-0.174255
-0.085457
-0.072275
-0.083510
-0.088088
-0.162791
-0.255069
-0.246115
-0.238485
-0.234480
-0.178364
-0.168135
-0.169267
-0.200543
-0.152187
-0.240264
-0.233084
-0.234390
-0.186331
-0.181291
-0.235280
-0.241170
-0.139114
-0.142349
-0.111261
-0.241922
-0.168283
-0.226666
-0.165202
-0.169288
-0.172060
-0.175203
-0.273861
-0.099001
-0.088839
-0.086587
-0.236279
-0.178435
-0.172280
-0.068976
-0.195551
-0.078453
-0.151690
-0.149012
-0.144747
-0.149694
-0.146931
-0.239302
-0.169716
-0.172786
-0.129180
-0.138248
-0.192622
-0.247683
-0.048337
-0.283322
-0.128021
-0.307188
-0.061789
-0.076514
-0.026972
-0.031591
-0.300705
-0.298357
-0.077009
-0.196236
-0.029287
-0.052885
-0.053215
-0.124165
-0.271543
-0.270965
-0.228261
-0.226480
-0.162956
-0.166807
-0.168569
-0.304537
-0.056396
-0.163746
-0.085938
-0.245095
-0.140574
-0.270647
-0.101250
-0.251697
-0.245674
-0.082429
-0.083071
-0.210573
-0.243266
-0.101591
-0.105011
-0.234917
-0.225855
-0.230645
-0.133155
-0.125888
-0.128183
-0.130655
-0.232636
-0.095610
-0.121643
-0.167920
-0.230537
-0.191297
-0.201870
-0.127006
-0.099658
-0.103817
-0.135777
-0.106704
-0.107207
-0.152426
-0.113714
-0.102143
-0.101332
-0.123833
-0.200155
-0.175025
-0.168534
-0.164801
-0.222651
-0.130999
-0.094146
-0.186299
-0.188276
-0.144183
-0.140601
-0.179226
-0.176171
-0.093535
-0.118300
-0.143521
-0.233899
-0.200770
-0.179428
-0.157508
-0.153050
-0.155742
-0.164229
-0.156006
-0.139689
-0.172075
-0.133840
-0.206112
-0.144900
-0.089901
-0.173289
-0.117662
-0.124445
-0.116792
-0.157738
-0.158508
-0.183707
-0.149100
-0.118077
-0.144902
-0.143096
-0.176378
-0.179980
-0.215817
-0.163868
-0.120668
-0.179566
-0.176775
-0.142202
-0.144991
SCALARS DAMAGE float 1
LOOKUP_TABLE default
0.999980
0.999981
0.999985
0.999987
0.000000
0.000000
0.999987
0.999990
0.999992
0.999993
0.999992
0.999992
0.999990
0.999989
0.999987
0.999984
0.999988
0.999989
0.999990
0.999990
0.999990
0.999989
0.999987
0.999986
0.999987
0.999988
0.999990
0.999991
0.999990
0.999989
0.999989
0.999988
0.999988
0.999987
0.999988
0.999988
0.999990
0.999990
0.999991
0.999989
0.999988
0.999981
-0.000000
0.000000
0.000000
0.000000
0.000000
0.000000
0.000000
0.000000
0.000000
0.000000
0.000000
0.000000
0.000000
0.000000
0.000000
0.000000
0.000000
0.000000
0.000000
0.000000
0.000000
0.000000
0.000000
0.000000
0.000000
0.000000
0.000000
0.000000
0.000000
0.000000
0.000000
0.000000
0.000000
0.000000
0.000000
0.000000
0.000000
0.000000
0.000000
0.000000
0.000000
0.000000
0.000000
0.000000
0.000000
0.000000
0.000000
0.000000
0.000000
0.000000
0.000000
0.000000
-0.000000
0.678589
0.728310
0.862990
0.890198
0.481508
0.344893
0.649610
0.685445
0.689960
0.857643
0.999989
0.999989
0.999989
0.879945
0.980461
0.977587
0.991745
0.999988
0.988748
0.443568
0.491332
0.999986
0.999988
0.999989
0.999989
0.999989
0.999966
0.999929
0.943754
0.987932
0.947283
0.999991
0.999990
0.999990
0.982008
0.999397
0.999870
0.999490
0.999929
0.970275
0.952894
0.901027
0.890103
0.970666
0.933840
0.955003
0.953445
0.820315
0.870494
0.763535
0.448057
0.444781
0.670096
0.433209
0.389614
0.708158
0.999802
0.999977
0.999971
0.748550
0.668622
0.466569
0.999974
0.999987
0.999989
0.999978
0.999989
0.999985
0.844366
0.999988
0.999990
0.751288
0.726550
0.752602
0.683878
0.868655
0.844888
0.999747
0.999945
0.999714
0.999949
0.811649
0.516076
0.798317
0.754528
0.638235
0.879405
0.761456
0.673311
0.496211
0.768711
0.834941
0.898408
0.539726
0.879068
0.775421
0.895600
0.930997
0.904142
0.978177
0.999988
0.999989
0.918001
0.970586
0.999988
0.999988
0.999988
0.807261
0.510083
0.827990
0.681270
0.790189
0.752042
0.744947
0.687500
0.869986
0.351010
0.474949
0.999986
0.999986
0.999987
0.999988
0.999987
0.999987
0.513409
0.484324
0.845197
0.747255
0.706955
0.439397
0.448530
0.544045
0.656978
0.834332
0.718186
0.392459
0.715366
0.881261
0.873506
0.957088
0.999987
0.887873
0.952112
0.948600
0.433437
0.382486
0.675752
0.999435
0.998374
0.996285
0.881092
0.967082
0.960663
0.985305
0.916165
0.966105
0.959930
0.983864
0.957852
0.987273
0.972709
0.939346
0.986317
0.955220
0.984106
0.999119
0.996332
0.999959
0.994803
0.977196
0.981074
0.999974
0.999539
0.999566
0.994417
0.717076
0.454038
0.373299
0.922781
0.971624
0.936960
0.475914
0.689649
0.999988
0.999989
0.999989
0.931617
0.978928
0.931615
0.992042
0.998479
0.997550
0.999715
0.630916
0.782394
0.823552
0.999985
0.726906
0.732600
0.541021
0.850549
0.525979
0.473291
0.730020
0.997079
0.985876
0.994934
0.955784
0.988019
0.999714
0.999945
0.981866
0.996221
0.976766
0.985944
0.977826
0.692262
0.366643
0.493459
0.703243
0.988848
0.994118
0.980957
0.999978
0.999723
1.000024
0.971023
0.462755
0.998511
0.999625
0.999973
0.994683
0.998712
0.994860
0.999992
0.999992
0.999992
0.999991
0.999991
0.997186
0.999407
0.996368
0.999990
0.999991
0.999990
0.999988
0.999988
0.999982
0.999987