# vtk DataFile Version 2.0
Test
ASCII
DATASET POLYDATA
POINTS 5816 float
0.000000 0.000000 0.000000
2.000000 0.000000 0.000000
2.000000 4.000000 0.000000
0.000000 4.000000 0.000000
0.000000 0.500000 0.000000
1.500000 2.000000 0.000000
2.000000 2.500000 0.000000
0.285714 0.000000 0.000000
0.571429 0.000000 0.000000
0.857143 0.000000 0.000000
1.142857 0.000000 0.000000
1.428571 0.000000 0.000000
1.714286 0.000000 0.000000
2.000000 0.275040 0.000000
2.000000 0.520628 0.000000
2.000000 0.739917 0.000000
2.000000 0.935725 0.000000
2.000000 1.110565 0.000000
2.000000 1.266683 0.000000
2.000000 1.406084 0.000000
2.000000 1.530557 0.000000
2.000000 1.641701 0.000000
2.000000 1.740944 0.000000
2.000000 1.829560 0.000000
2.000000 1.908686 0.000000
2.000000 1.979340 0.000000
2.000000 2.042428 0.000000
2.000000 2.098760 0.000000
2.000000 2.149060 0.000000
2.000000 2.193974 0.000000
2.000000 2.234078 0.000000
2.000000 2.269888 0.000000
2.000000 2.301863 0.000000
2.000000 2.330415 0.000000
2.000000 2.355908 0.000000
2.000000 2.378673 0.000000
2.000000 2.398999 0.000000
2.000000 2.417149 0.000000
2.000000 2.433355 0.000000
2.000000 2.447826 0.000000
2.000000 2.460747 0.000000
2.000000 2.472285 0.000000
2.000000 2.482587 0.000000
2.000000 2.491786 0.000000
2.000000 2.508637 0.000000
2.000000 2.519089 0.000000
2.000000 2.531737 0.000000
2.000000 2.547044 0.000000
2.000000 2.565568 0.000000
2.000000 2.587985 0.000000
2.000000 2.615113 0.000000
2.000000 2.647942 0.000000
2.000000 2.687670 0.000000
2.000000 2.735749 0.000000
2.000000 2.793931 0.000000
2.000000 2.864341 0.000000
2.000000 2.949549 0.000000
2.000000 3.052664 0.000000
2.000000 3.177450 0.000000
2.000000 3.328462 0.000000
2.000000 3.511210 0.000000
2.000000 3.732366 0.000000
1.714286 4.000000 0.000000
1.428571 4.000000 0.000000
1.142857 4.000000 0.000000
0.857143 4.000000 0.000000
0.571429 4.000000 0.000000
0.285714 4.000000 0.000000
0.000000 3.715673 0.000000
0.000000 3.453827 0.000000
0.000000 3.212685 0.000000
0.000000 2.990611 0.000000
0.000000 2.786096 0.000000
0.000000 2.597752 0.000000
0.000000 2.424300 0.000000
0.000000 2.264564 0.000000
0.000000 2.117457 0.000000
0.000000 1.981983 0.000000
0.000000 1.857220 0.000000
0.000000 1.742322 0.000000
0.000000 1.636510 0.000000
0.000000 1.539064 0.000000
0.000000 1.449323 0.000000
0.000000 1.366678 0.000000
0.000000 1.290567 0.000000
0.000000 1.220475 0.000000
0.000000 1.155925 0.000000
0.000000 1.096479 0.000000
0.000000 1.041733 0.000000
0.000000 0.991316 0.000000
0.000000 0.944886 0.000000
0.000000 0.902126 0.000000
0.000000 0.862748 0.000000
0.000000 0.826483 0.000000
0.000000 0.793086 0.000000
0.000000 0.762330 0.000000
0.000000 0.734005 0.000000
0.000000 0.707920 0.000000
0.000000 0.683898 0.000000
0.000000 0.661775 0.000000
0.000000 0.641402 0.000000
0.000000 0.622639 0.000000
0.000000 0.605360 0.000000
0.000000 0.589447 0.000000
0.000000 0.574792 0.000000
0.000000 0.561296 0.000000
0.000000 0.548868 0.000000
0.000000 0.537421 0.000000
0.000000 0.526881 0.000000
0.000000 0.517173 0.000000
0.000000 0.508233 0.000000
0.000000 0.491468 0.000000
0.000000 0.479827 0.000000
0.000000 0.463944 0.000000
0.000000 0.442273 0.000000
0.000000 0.412707 0.000000
0.000000 0.372368 0.000000
0.000000 0.317330 0.000000
0.000000 0.242238 0.000000
0.000000 0.139785 0.000000
0.005639 0.505639 0.000000
0.011278 0.511278 0.000000
0.016917 0.516917 0.000000
0.022556 0.522556 0.000000
0.028195 0.528195 0.000000
0.033835 0.533835 0.000000
0.039474 0.539474 0.000000
0.045113 0.545113 0.000000
0.050752 0.550752 0.000000
0.056391 0.556391 0.000000
0.062030 0.562030 0.000000
0.067669 0.567669 0.000000
0.073308 0.573308 0.000000
0.078947 0.578947 0.000000
0.084586 0.584586 0.000000
0.090226 0.590226 0.000000
0.095865 0.595865 0.000000
0.101504 0.601504 0.000000
0.107143 0.607143 0.000000
0.112782 0.612782 0.000000
0.118421 0.618421 0.000000
0.124060 0.624060 0.000000
0.129699 0.629699 0.000000
0.135338 0.635338 0.000000
0.140977 0.640977 0.000000
0.146617 0.646617 0.000000
0.152256 0.652256 0.000000
0.157895 0.657895 0.000000
0.163534 0.663534 0.000000
0.169173 0.669173 0.000000
0.174812 0.674812 0.000000
0.180451 0.680451 0.000000
0.186090 0.686090 0.000000
0.191729 0.691729 0.000000
0.197368 0.697368 0.000000
0.203008 0.703008 0.000000
0.208647 0.708647 0.000000
0.214286 0.714286 0.000000
0.219925 0.719925 0.000000
0.225564 0.725564 0.000000
0.231203 0.731203 0.000000
0.236842 0.736842 0.000000
0.242481 0.742481 0.000000
0.248120 0.748120 0.000000
0.253759 0.753759 0.000000
0.259398 0.759398 0.000000
0.265038 0.765038 0.000000
0.270677 0.770677 0.000000
0.276316 0.776316 0.000000
0.281955 0.781955 0.000000
0.287594 0.787594 0.000000
0.293233 0.793233 0.000000
0.298872 0.798872 0.000000
0.304511 0.804511 0.000000
0.310150 0.810150 0.000000
0.315789 0.815789 0.000000
0.321429 0.821429 0.000000
0.327068 0.827068 0.000000
0.332707 0.832707 0.000000
0.338346 0.838346 0.000000
0.343985 0.843985 0.000000
0.349624 0.849624 0.000000
0.355263 0.855263 0.000000
0.360902 0.860902 0.000000
0.366541 0.866541 0.000000
0.372180 0.872180 0.000000
0.377820 0.877820 0.000000
0.383459 0.883459 0.000000
0.389098 0.889098 0.000000
0.394737 0.894737 0.000000
0.400376 0.900376 0.000000
0.406015 0.906015 0.000000
0.411654 0.911654 0.000000
0.417293 0.917293 0.000000
0.422932 0.922932 0.000000
0.428571 0.928571 0.000000
0.434211 0.934211 0.000000
0.439850 0.939850 0.000000
0.445489 0.945489 0.000000
0.451128 0.951128 0.000000
0.456767 0.956767 0.000000
0.462406 0.962406 0.000000
0.468045 0.968045 0.000000
0.473684 0.973684 0.000000
0.479323 0.979323 0.000000
0.484962 0.984962 0.000000
0.490602 0.990602 0.000000
0.496241 0.996241 0.000000
0.501880 1.001880 0.000000
0.507519 1.007519 0.000000
0.513158 1.013158 0.000000
0.518797 1.018797 0.000000
0.524436 1.024436 0.000000
0.530075 1.030075 0.000000
0.535714 1.035714 0.000000
0.541353 1.041353 0.000000
0.546992 1.046992 0.000000
0.552632 1.052632 0.000000
0.558271 1.058271 0.000000
0.563910 1.063910 0.000000
0.569549 1.069549 0.000000
0.575188 1.075188 0.000000
0.580827 1.080827 0.000000
0.586466 1.086466 0.000000
0.592105 1.092105 0.000000
0.597744 1.097744 0.000000
0.603383 1.103383 0.000000
0.609023 1.109023 0.000000
0.614662 1.114662 0.000000
0.620301 1.120301 0.000000
0.625940 1.125940 0.000000
0.631579 1.131579 0.000000
0.637218 1.137218 0.000000
0.642857 1.142857 0.000000
0.648496 1.148496 0.000000
0.654135 1.154135 0.000000
0.659774 1.159774 0.000000
0.665414 1.165414 0.000000
0.671053 1.171053 0.000000
0.676692 1.176692 0.000000
0.682331 1.182331 0.000000
0.687970 1.187970 0.000000
0.693609 1.193609 0.000000
0.699248 1.199248 0.000000
0.704887 1.204887 0.000000
0.710526 1.210526 0.000000
0.716165 1.216165 0.000000
0.721805 1.221805 0.000000
0.727444 1.227444 0.000000
0.733083 1.233083 0.000000
0.738722 1.238722 0.000000
0.744361 1.244361 0.000000
0.750000 1.250000 0.000000
0.755639 1.255639 0.000000
0.761278 1.261278 0.000000
0.766917 1.266917 0.000000
0.772556 1.272556 0.000000
0.778195 1.278195 0.000000
0.783835 1.283835 0.000000
0.789474 1.289474 0.000000
0.795113 1.295113 0.000000
0.800752 1.300752 0.000000
0.806391 1.306391 0.000000
0.812030 1.312030 0.000000
0.817669 1.317669 0.000000
0.823308 1.323308 0.000000
0.828947 1.328947 0.000000
0.834586 1.334586 0.000000
0.840226 1.340226 0.000000
0.845865 1.345865 0.000000
0.851504 1.351504 0.000000
0.857143 1.357143 0.000000
0.862782 1.362782 0.000000
0.868421 1.368421 0.000000
0.874060 1.374060 0.000000
0.879699 1.379699 0.000000
0.885338 1.385338 0.000000
0.890977 1.390977 0.000000
0.896617 1.396617 0.000000
0.902256 1.402256 0.000000
0.907895 1.407895 0.000000
0.913534 1.413534 0.000000
0.919173 1.419173 0.000000
0.924812 1.424812 0.000000
0.930451 1.430451 0.000000
0.936090 1.436090 0.000000
0.941729 1.441729 0.000000
0.947368 1.447368 0.000000
0.953008 1.453008 0.000000
0.958647 1.458647 0.000000
0.964286 1.464286 0.000000
0.969925 1.469925 0.000000
0.975564 1.475564 0.000000
0.981203 1.481203 0.000000
0.986842 1.486842 0.000000
0.992481 1.492481 0.000000
0.998120 1.498120 0.000000
1.003759 1.503759 0.000000
1.009398 1.509398 0.000000
1.015038 1.515038 0.000000
1.020677 1.520677 0.000000
1.026316 1.526316 0.000000
1.031955 1.531955 0.000000
1.037594 1.537594 0.000000
1.043233 1.543233 0.000000
1.048872 1.548872 0.000000
1.054511 1.554511 0.000000
1.060150 1.560150 0.000000
1.065789 1.565789 0.000000
1.071429 1.571429 0.000000
1.077068 1.577068 0.000000
1.082707 1.582707 0.000000
1.088346 1.588346 0.000000
1.093985 1.593985 0.000000
1.099624 1.599624 0.000000
1.105263 1.605263 0.000000
1.110902 1.610902 0.000000
1.116541 1.616541 0.000000
1.122180 1.622180 0.000000
1.127820 1.627820 0.000000
1.133459 1.633459 0.000000
1.139098 1.639098 0.000000
1.144737 1.644737 0.000000
1.150376 1.650376 0.000000
1.156015 1.656015 0.000000
1.161654 1.661654 0.000000
1.167293 1.667293 0.000000
1.172932 1.672932 0.000000
1.178571 1.678571 0.000000
1.184211 1.684211 0.000000
1.189850 1.689850 0.000000
1.195489 1.695489 0.000000
1.201128 1.701128 0.000000
1.206767 1.706767 0.000000
1.212406 1.712406 0.000000
1.218045 1.718045 0.000000
1.223684 1.723684 0.000000
1.229323 1.729323 0.000000
1.234962 1.734962 0.000000
1.240602 1.740602 0.000000
1.246241 1.746241 0.000000
1.251880 1.751880 0.000000
1.257519 1.757519 0.000000
1.263158 1.763158 0.000000
1.268797 1.768797 0.000000
1.274436 1.774436 0.000000
1.280075 1.780075 0.000000
1.285714 1.785714 0.000000
1.291353 1.791353 0.000000
1.296992 1.796992 0.000000
1.302632 1.802632 0.000000
1.308271 1.808271 0.000000
1.313910 1.813910 0.000000
1.319549 1.819549 0.000000
1.325188 1.825188 0.000000
1.330827 1.830827 0.000000
1.336466 1.836466 0.000000
1.342105 1.842105 0.000000
1.347744 1.847744 0.000000
1.353383 1.853383 0.000000
1.359023 1.859023 0.000000
1.364662 1.864662 0.000000
1.370301 1.870301 0.000000
1.375940 1.875940 0.000000
1.381579 1.881579 0.000000
1.387218 1.887218 0.000000
1.392857 1.892857 0.000000
[...]
POINT_DATA 5816
SCALARS UX float 1
LOOKUP_TABLE default
-0.000000
0.000000
1.525792
-1.555886
-6.584949
1.102623
1.720289
0.000000
-0.000000
-0.000000
-0.000000
0.000000
-0.000000
0.773374
1.122044
1.349433
1.510483
1.627560
1.710157
1.777836
1.824979
1.857775
1.878882
1.887646
1.888677
1.883822
1.874740
1.863075
1.849917
1.836536
1.823320
1.810608
1.798779
1.787762
1.777703
1.768648
1.760511
1.753209
1.746706
1.740900
1.735751
1.731181
1.727111
1.723502
1.716939
1.712898
1.708080
1.702310
1.695462
1.687393
1.677915
1.666833
1.654163
1.639987
1.624569
1.607982
1.590972
1.574171
1.558965
1.545725
1.535616
1.528897
1.076999
0.637404
0.205202
-0.225580
-0.661697
-1.105406
-1.561617
-1.570508
-1.587674
-1.609553
-1.634872
-1.662440
-1.690402
-1.717684
-1.743825
-1.768043
-1.790415
-1.811005
-1.830069
-1.847992
-1.865356
-1.883773
-1.902936
-1.924203
-1.948637
-1.977496
-2.009580
-2.048855
-2.094545
-2.150191
-2.210657
-2.279315
-2.358805
-2.455363
-2.557235
-2.682527
-2.831707
-3.017241
-3.258508
-3.570762
-4.091449
-4.710270
-5.471697
-6.613056
-8.236413
-10.432599
-13.886386
-19.185077
-22.578460
-4.964771
-3.703752
-2.869446
-2.195469
-1.741989
-1.420252
-1.164231
-0.818383
-0.541555
-4.396471
-3.475639
-3.350622
-3.057858
-2.904413
-2.804223
-2.706962
-2.619764
-2.538978
-2.449595
-2.359330
-2.283498
-2.207820
-2.136483
-2.073037
-2.014161
-1.959265
-1.910007
-1.867361
-1.825126
-1.783386
-1.746525
-1.710876
-1.675100
-1.643903
-1.612658
-1.585331
-1.559414
-1.534640
-1.513074
-1.491650
-1.470965
-1.451249
-1.431241
-1.412922
-1.394368
-1.378048
-1.361612
-1.345050
-1.328576
-1.312602
-1.298502
-1.285276
-1.272252
-1.258917
-1.245888
-1.233652
-1.221782
-1.209952
-1.199343
-1.188356
-1.177659
-1.167272
-1.156887
-1.146930
-1.137052
-1.127282
-1.117452
-1.107697
-1.098200
-1.088626
-1.079562
-1.070386
-1.061464
-1.052809
-1.044353
-1.035684
-1.026811
-1.018252
-1.009463
-1.001113
-0.992942
-0.984909
-0.976713
-0.968655
-0.960471
-0.952243
-0.943890
-0.936003
-0.927945
-0.920011
-0.912064
-0.903983
-0.895996
-0.887942
-0.879827
-0.871729
-0.863730
-0.855803
-0.847718
-0.839703
-0.831614
-0.823570
-0.815501
-0.807505
-0.799438
-0.791307
-0.783324
-0.775274
-0.767280
-0.759206
-0.751083
-0.742851
-0.734683
-0.726550
-0.718375
-0.710083
-0.701814
-0.693494
-0.685112
-0.676715
-0.668247
-0.659733
-0.651209
-0.642640
-0.634051
-0.625504
-0.616956
-0.608375
-0.599696
-0.590953
-0.582209
-0.573395
-0.564526
-0.555677
-0.546780
-0.537877
-0.528853
-0.519802
-0.510724
-0.501633
-0.492485
-0.483268
-0.474031
-0.464752
-0.455456
-0.446128
-0.436727
-0.427276
-0.417770
-0.408227
-0.398626
-0.389002
-0.379288
-0.369530
-0.359736
-0.349901
-0.340076
-0.330147
-0.320173
-0.310152
-0.300073
-0.289943
-0.279716
-0.269455
-0.259120
-0.248774
-0.238381
-0.227986
-0.217557
-0.207059
-0.196495
-0.185873
-0.175228
-0.164568
-0.153840
-0.143039
-0.132186
-0.121250
-0.110293
-0.099316
-0.088292
-0.077228
-0.066151
-0.055060
-0.043940
-0.032746
-0.021472
-0.010054
0.001395
0.012855
0.024352
0.035873
0.047434
0.059033
0.070717
0.082423
0.094134
0.105839
0.117571
0.129322
0.141125
0.152936
0.164801
0.176731
0.188703
0.200709
0.212728
0.224797
0.236885
0.249129
0.261469
0.273839
0.286191
0.298526
0.310841
0.323120
0.335445
0.347893
0.360421
0.373002
0.385590
0.398164
0.410742
0.423351
0.435903
0.448527
0.461245
0.473981
0.486710
0.499489
0.512362
0.525291
0.538220
0.551171
0.564168
0.577144
0.590136
0.603123
0.616129
0.629096
0.642132
0.655241
0.668493
0.681745
0.694980
0.708226
0.721512
0.734865
0.748226
0.761652
0.775011
0.788369
0.801738
0.815192
0.828618
0.842107
0.855657
0.869163
0.882701
0.896366
0.910015
0.923739
0.937362
0.950976
0.964747
0.978541
0.992092
1.005708
1.019447
1.033279
1.047104
1.060994
1.075008
1.089042
1.115852
1.128141
1.139053
1.149452
1.159352
1.168868
1.178127
1.187052
1.195759
1.204274
1.212540
1.220549
1.228367
1.236053
1.243518
1.250817
1.257992
1.265021
1.271927
1.278699
1.285384
1.291995
1.298517
1.304964
1.311369
1.317729
1.324046
1.330327
1.336595
1.342846
1.349092
1.355326
1.361559
1.367802
1.374037
1.380280
1.386532
1.392791
1.399061
1.405339
1.411630
1.417930
1.424244
1.430567
1.436901
1.443237
1.449580
1.455933
1.462290
1.468652
1.475019
1.481385
1.487752
1.494126
1.500497
1.506874
1.513250
1.519622
1.526009
1.532376
1.538749
1.545124
1.551499
1.557865
1.564236
1.570610
1.576990
1.583376
1.589761
1.596154
1.602553
1.608953
1.615361
1.621784
1.628214
1.634662
1.641119
1.647589
1.654066
1.660566
1.667097
1.673645
1.680225
1.686824
1.693452
1.700118
1.706808
1.713531
0.731286
0.727844
0.704919
0.756243
0.144602
0.095171
0.097802
0.045400
0.193319
0.249729
0.285817
-0.450336
-0.493763
-0.415122
-0.547569
-0.181990
-0.109548
-0.163517
1.535579
1.549308
1.543423
1.538916
-0.370620
-0.344581
-0.356431
-0.356387
-0.151170
1.415598
1.438546
1.420932
1.437419
-0.361406
-0.315578
-0.323023
-0.276994
-0.088112
-0.130968
-0.131869
-0.176994
-0.121201
-0.080779
-0.081709
1.185688
1.152417
1.190537
1.150617
-0.108719
0.125335
0.102893
0.153830
0.142530
0.541157
0.496910
0.548633
0.538588
0.536067
0.500542
0.497325
-0.914837
-0.907661
-0.961534
-0.935125
0.485837
-0.048142
-0.072604
-1.044195
-1.014438
-1.014960
-1.043301
-1.038772
-1.016736
-1.040137
-0.050740
0.008909
-0.023256
-0.120078
-1.623968
-1.579194
-1.558356
-1.532302
1.665869
1.637920
1.635372
1.635434
-0.703007
-0.699691
-0.867798
-0.522316
-1.599429
-1.523442
-1.559242
-1.494614
-1.534470
-1.452992
-1.779591
-1.758017
-1.700282
-1.835302
-1.660675
-1.647731
-1.710436
-1.595169
-2.544297
-2.511955
-2.630875
-2.449906
1.527207
1.587977
1.576770
-0.052961
-1.003447
-0.025392
-0.146518
-0.120915
-0.143049
-0.131644
-1.042222
-1.065187
-0.456221
-0.516731
-0.507267
-1.071573
-0.698592
-0.678176
-0.665327
-0.850736
-0.729716
-0.755363
-0.629595
-0.478858
-0.307105
-0.476602
-0.299674
-0.550475
-0.530180
-0.617797
-0.490666
-0.821954
-0.742731
-0.767718
-0.674538
-0.717881
-0.396747
-0.368942
-0.391774
1.668565
1.674590
1.684602
1.652544
-0.355721
0.632706
0.598059
0.599837
1.668024
1.660296
-0.369937
-0.351083
-0.269952
-0.435857
-0.883014
-1.085595
-1.089311
0.339778
-1.913846
-1.892136
-1.963175
-1.858599
-0.090182
-0.088301
-0.002605
-0.012567
-1.255032
-1.261137
0.640258
-0.104251
-0.120767
-0.099414
-0.017199
0.064918
-0.353782
-0.334598
-0.294719
0.089174
-1.061273
-1.069166
-1.033005
1.563566
1.529847
1.572006
1.571694
-1.091345
0.149747
0.164024
0.173122
0.740097
0.720321
0.772163
0.409637
0.363041
0.379055
0.186249
0.112022
0.101258
0.335278
-0.083013
-0.074699
-0.057519
-0.755798
-0.794725
-0.805931
-0.725628
0.236515
0.316205
0.368031
0.147758
0.054781
1.031232
1.009753
1.052356
0.903752
0.917724
0.957472
-0.676652
-0.666788
-0.688109
-0.929074
-0.909106
-0.908141
1.521939
1.503306
1.515660
1.522099
1.623454
1.634703
1.639143
0.949852
-0.628363
-0.622448
-0.713550
0.519650
0.459699
0.435179
-1.290308
-1.260084
-1.232158
-1.207627
-1.221795
-1.185522
-1.166657
-1.140423
0.761693
0.751795
0.786892
1.452264
1.432811
-0.690689
0.789641
1.546305
1.531411
1.524027
-0.656384
-0.664335
-0.685797
-0.681124
-0.348787
-0.338333
-0.249612
1.283559
1.324531
1.300621
0.800348
0.770417
-0.244088
0.806400
-0.261656
-0.284299
-0.268028
1.414105
1.443307
1.418603
1.442628
1.562904
1.572579
1.550676
-0.355312
-0.373824
-0.376161
0.932436
0.971722
0.971231
0.931738
0.090395
0.131196
0.134904
-0.356781
-0.569032
-0.599061
-0.573700
1.069832
1.117596
1.106524
-0.585576
1.259371
-0.366303
-0.360603
1.218619
1.228076
1.243148
1.203425
0.093078
0.117161
0.117470
1.281693
1.308556
1.321803
0.144462
1.076151
1.071648
1.098568
1.345980
1.044895
-0.398888
-0.409877
-0.433264
-0.433177
0.269277
0.300014
0.271956
0.621757
0.585488
0.635967
0.584183
-0.352127
-0.377313
-0.335148
-0.355860
0.307227
-0.331493
-0.365899
0.073409
0.057407
0.090045
0.048881
0.039989
-0.335253
1.221352
1.188211
1.221856
0.867323
0.871433
0.844015
-0.858599
-0.913710
-0.895214
0.763408
0.745844
0.775041
0.743183
-0.657585
-0.694433
-0.657320
-0.696368
1.032397
1.064164
1.053536
-0.333839
-0.334169
-0.281038
0.312076
0.361365
0.312563
-0.391447
0.361231
-0.799793
-0.826031
-0.795484
-0.826796
1.647254
-1.366831
-1.335160
-1.294137
-1.279287
-1.091059
-1.105052
-1.423773
-1.431510
-1.379856
-0.247799
-0.238993
-1.471424
1.087226
1.259998
1.246115
1.214780
1.213428
1.237968
1.043522
-0.465415
-0.466510
-0.513127
1.175391
0.425717
0.327428
0.273652
0.110222
1.181374
1.169808
1.452183
1.455278
1.458373
-0.459395
-0.524893
1.280209
-0.596923
-0.572757
-0.640784
-0.549534
-1.226297
-1.235717
-1.278304
-1.286847
-1.095440
-1.124442
-1.153569
1.111428
1.080785
1.083940
1.470244
1.488196
1.493961
0.827888
0.753792
0.830433
-0.758097
-0.719145
-0.706770
-0.662858
0.745040
-0.512815
-0.566353
-0.516532
-0.293488
0.363623
0.410230
0.420503
1.195523
1.231132
1.241221
-0.735236
-0.761967
-0.789820
1.190214
1.249617
1.294722
-0.607333
-0.556845
-0.527672
-0.563139
0.046710
0.026260
0.020310
-0.810295
-0.771838
-0.786542
-0.781914
-1.169706
-1.174237
-1.193767
-1.159978
0.502995
0.464128
0.480213
0.431737
1.223241
1.221699
1.191511
1.220573
1.230024
-0.310003
-0.305995
-0.291589
0.074815
-1.219482
-0.656737
-0.695935
1.310972
1.291943
1.297934
1.315004
-1.369306
-1.388459
-1.313603
-1.432298
-1.487404
1.046138
1.060769
1.034913
-0.644829
-0.159975
-0.184946
-0.200748
-1.202596
-1.250619
-1.107160
-1.098796
-1.074278
-0.220758
-0.245509
-0.293743
-0.342909
-0.349618
-0.408496
-0.382480
-0.396646
1.072663
1.042063
-1.602127
-1.696103
-1.651306
-0.645581
-0.655230
-0.699082
-0.702498
-0.357218
-0.391802
-0.356764
1.530902
1.533873
-2.467864
-2.378720
-1.859642
-1.857579
-1.923302
0.937207
0.910916
0.954104
-0.009667
0.004246
0.020220
1.417398
1.407907
1.447854
-0.069946
-0.050266
-0.030049
0.932666
0.056527
-0.006773
-0.007799
-1.010465
-1.020255
-0.993544
1.259615
1.261872
-0.492264
-0.522894
-0.560716
-0.573906
-0.448399
-0.433197
1.250028
-0.385031
-0.429465
-0.433936
-0.486246
-0.332359
0.124020
0.147803
-0.486411
-1.396479
-1.450965
-1.075822
-1.110332
-1.029230
-1.056549
-0.472136
-1.069375
-0.266640
-0.212953
-0.250906
-0.340886
-0.394605
-0.395364
1.556362
1.564089
1.546428
1.561360
-1.483668
-1.441846
-1.517390
1.105773
1.120875
1.103555
-1.328598
-1.285069
1.290383
1.287268
1.276980
-1.007770
-1.038542
1.270457
0.142121
1.467331
1.444438
-1.005539
-1.034187
-1.005283
-1.036819
-0.976018
-0.986261
-0.742060
-0.766697
-0.746052
-0.773836
-1.659715
-1.660906
-1.725738
1.479747
1.464506
1.481063
-0.717163
-0.736773
-0.705392
0.395428
0.243558
0.105460
0.367324
0.391424
0.352856
1.426284
-1.158754
-1.234368
-0.023612
-0.022749
1.088099
1.121755
1.119769
-0.030280
-0.073561
0.157552
0.167665
-1.240784
-1.196273
0.965860
0.936624
0.959960
1.474270
1.481629
1.336357
1.277011
1.368775
0.926177
0.993064
1.011602
-0.384341
-0.633950
-0.627122
-0.655211
-0.381804
1.323995
-0.913669
-0.872203
-0.888317
-0.673852
-0.678805
-0.697864
-0.707155
0.182840
0.197356
0.151258
-0.840255
-0.082242
-0.548069
-0.534064
-0.565489
-0.928336
-0.972038
-0.951476
-0.943590
1.413957
1.407212
1.399230
0.665579
0.693850
0.675107
1.492878
0.702595
0.659797
0.630878
0.183061
0.094586
0.132523
1.113303
1.086270
1.106049
1.529187
-0.876027
-0.863264
-0.890084
-0.862037
-0.886021
-0.861928
-0.865375
1.467543
0.035042
0.047552
-2.172097
-2.274329
-2.118138
-0.607160
-0.618896
-0.154021
-0.162906
-0.106021
-0.218757
0.866418
0.828675
0.815882
0.770327
0.515621
-0.938854
1.421345
1.407521
1.417091
-1.971392
-2.084706
-1.936661
-0.726637
-0.704592
-0.715020
-0.750357
-0.766233
1.314930
1.315847
1.339640
-0.995634
-0.998806
-1.027797
-1.017086
0.342163
0.361664
0.306401
0.357932
0.673969
0.631862
0.685842
0.627951
0.466196
0.495902
0.488084
1.468847
1.463504
0.519586
-0.903166
-0.911694
-0.580714
-0.576423
-0.551460
-0.548524
0.895863
0.938045
0.952778
0.997063
0.844154
0.832075
-0.225470
0.775181
0.221363
0.257009
0.236332
0.106340
0.078920
0.018929
0.000804
0.231688
0.148956
-1.219968
-1.235389
-1.276797
0.178180
-1.198987
-1.167749
-1.141084
-0.780487
-0.745787
-0.457910
-0.442910
-0.481461
-0.091876
-0.668323
-0.691323
-0.710923
-0.663291
-0.719628
-0.705484
-0.699423
0.526562
0.541884
0.547737
-0.243402
-0.267933
-0.251880
-0.260668
1.157439
1.176802
1.161188
1.187104
-0.158930
-0.142930
-0.138887
0.778090
0.819487
0.513638
0.653956
0.680591
0.358366
0.408707
0.389116
0.394324
0.055925
0.078501
0.082604
0.107883
-0.560553
-0.586075
-0.587921
-0.615988
-0.579684
-0.601989
-0.447855
1.377046
1.385813
0.606624
0.600210
0.562736
0.651722
0.453454
0.466031
0.457168
0.575321
0.604498
0.566665
1.503462
-0.947837
-0.961550
-0.921946
-0.521389
-0.493371
-0.500230
-0.473935
-0.636133
-0.610395
-0.630622
-0.595643
-0.640345
-0.672522
0.781608
0.810324
0.794020
1.474549
1.467483
0.831898
0.773502
0.727971
0.784810
0.734848
-0.291436
-0.285050
-0.257352
-0.315222
-0.935684
-1.046380
-1.057171
-0.309604
-0.297222
-0.328389
0.534332
0.571857
0.560543
0.559455
-0.006831
-0.025010
-0.628715
-0.612216
-0.116548
-0.064227
0.117907
0.129473
0.450620
0.484782
-1.126636
-1.174008
-0.434321
-0.417503
-0.433338
0.269802
0.229810
0.277331
-0.095502
0.201080
0.229597
0.235358
0.219535
0.193135
0.228575
-0.326427
-0.336105
-0.312810
-1.039309
0.163100
-0.462793
-0.450662
-0.442784
-0.644751
-0.084068
-0.094533
-0.607144
-0.617275
-0.569883
-0.658025
-0.950065
-0.832158
-0.688890
-0.685657
-0.844446
-0.826507
-0.826645
-0.514248
0.450355
0.404998
0.408586
0.313255
0.314808
0.263446
0.239611
0.386582
0.260779
-0.627136
-0.644483
-0.670802
-0.653694
-0.614679
-0.627686
-0.130165
-0.143143
-0.112171
-0.158141
-0.164808
-0.185391
-0.513872
-0.481558
-0.478048
-0.448772
0.701677
0.747001
1.272522
-0.786107
-0.746172
-5.476836
-6.194003
0.682308
0.772890
0.805995
-0.841045
-0.865607
-0.876666
-1.220917
-0.819559
-0.805240
-0.787655
0.673970
0.639919
0.601696
-0.531329
-0.502651
-0.183171
-0.230895
-0.243016
-0.488003
0.194196
0.203156
0.232598
0.171999
-0.958568
-0.218160
-0.253058
-0.140719
-0.166917
0.989121
0.913648
0.995545
0.920879
1.051866
1.074329
0.593481
0.624071
0.596881
0.634201
0.611581
0.641362
0.559512
0.885020
0.895281
1.361790
1.364304
1.339486
1.383816
1.381167
0.557600
0.468659
1.153773
1.138503
-0.528426
-0.526189
-0.685479
0.608090
0.635346
-0.406913
-0.438744
0.005315
-0.057957
1.282647
1.028693
1.025997
0.981860
0.729203
0.699732
0.687895
0.660522
0.925319
-0.425003
0.841276
-0.971573
-0.959944
-0.988456
-0.626989
-0.551127
-0.796557
-0.821150
-4.221783
-5.102127
-4.634043
0.401516
0.393783
0.439855
-0.806398
-0.781381
0.972476
0.949122
0.063966
0.113308
-0.490679
-0.416555
-0.352911
-0.574090
-0.737407
0.836550
0.858743
0.871314
-1.996413
-1.981883
-2.077579
0.823563
0.684155
0.665832
0.659288
-0.557166
-0.387587
-0.157376
-3.055640
-0.119372
0.892131
0.915119
0.923366
0.514953
0.529561
0.738799
0.763427
0.537153
0.487856
0.502612
1.264706
-0.264983
-0.119803
-0.172392
1.259863
-0.009650
0.013711
-0.039816
0.715603
-0.289177
-0.055279
0.008531
-0.074066
-3.237217
-2.811339
-3.682777
0.038170
0.073808
-0.812207
-0.835368
-3.367151
-3.090882
-3.418504
-0.113119
-2.749603
-3.589065
-3.832189
-3.497815
-0.597093
-0.231299
-0.378101
1.496905
1.507888
-3.327546
-3.655884
-0.226940
-0.218327
0.698892
0.598595
0.664994
-0.080534
-0.174783
-0.103293
-0.205824
-0.231527
-0.235545
-0.031841
1.387960
1.399889
1.406757
-0.063376
-0.107132
-0.194624
-0.211889
-0.215157
-0.243949
0.260329
0.286046
0.261197
-0.005006
-2.975092
-3.197659
-3.090847
-0.980114
-0.972520
-0.999065
-0.951884
-0.999511
-1.025636
-1.048047
-0.996884
-0.965120
-1.031987
-0.957832
-0.343069
0.630398
0.630467
0.607173
-0.237840
0.614586
1.047271
1.062447
1.104854
-0.282927
-0.297656
1.001202
1.031641
1.047436
-0.739656
-0.728925
-0.179711
0.815721
-0.045879
0.731347
-2.821075
-2.918347
-3.737891
0.713794
0.724815
1.693199
1.688468
0.702275
1.272294
1.508974
-0.425133
1.700853
1.694390
1.707813
1.698790
1.304508
1.321589
1.329131
1.345345
0.305585
0.930202
0.944998
0.923749
-0.770702
-0.759489
-0.744214
0.909339
0.901492
1.251503
-2.650727
-2.761734
-2.477274
-3.004209
1.244089
-0.067544
0.805588
0.838189
0.837376
1.169174
1.156917
1.142497
1.128563
0.122039
0.054569
-1.062323
-1.081254
-0.459189
-1.122862
1.180396
1.192233
1.199742
-1.133189
-3.490916
-3.761912
1.496700
1.032730
-2.506021
-2.391760
0.322092
0.280823
0.311974
0.266031
1.492370
1.370486
1.461729
1.407952
1.038840
1.675046
-0.694422
-2.778175
-2.342259
-1.678034
-1.658903
-1.707867
-1.608334
-0.951947
-0.918201
-0.923585
-0.895915
-0.942577
-0.919140
-2.257454
-0.190672
-0.230535
-0.258344
-2.257110
-2.173593
-2.244612
-2.155520
-2.163865
-1.097217
-1.056046
-1.030707
-1.127274
-1.487873
-1.408696
-1.455820
-1.490477
-1.615399
-1.297678
-1.348017
-1.240781
-0.593506
-0.629174
-0.581387
-1.887053
-1.885774
-1.885819
-2.638361
-2.700394
-2.578475
-1.783049
-1.765509
-1.714443
-1.644411
-1.682196
-2.229430
-2.141353
-2.222646
-2.012876
-2.020953
-2.098363
-2.081536
1.213613
-1.706178
-1.648666
-0.152877
-0.224925
-1.814224
-1.773426
-1.871082
-1.828489
-1.736458
-1.813950
-1.736484
-0.622866
-2.324902
-2.224930
-0.509973
-1.083045
-1.146346
-1.125959
-1.082340
-1.056013
-1.823172
-1.889788
-1.801045
0.311665
0.344577
0.345422
1.201442
-0.992810
-1.026955
-1.061677
-0.966277
0.082835
0.035777
-0.117777
-1.802837
-1.848309
-1.741019
-2.101182
-2.179361
-1.898098
-5.055780
-3.909559
-3.582799
1.224252
-1.398660
-1.336957
-2.381841
-1.314239
-2.423691
-2.360794
-2.551300
-2.296826
-2.265173
-1.727953
-1.819260
-1.845714
-1.896003
0.328480
0.428269
0.092535
-1.207452
-1.280626
0.075214
-1.304477
-1.360896
-1.367736
-1.305828
-1.239914
-1.252136
-2.731221
-2.790599
-2.532003
0.373714
-1.279970
0.888275
0.896168
-1.427697
-1.401107
-1.338546
-1.900488
-1.973440
-1.969424
-1.930239
-1.050108
-1.089171
-1.121710
-0.775497
-0.769012
-0.827034
-0.851543
-0.805437
-1.285748
-1.336281
-1.346956
1.609876
1.599272
-2.026657
-2.039471
1.591224
-0.441753
-0.654182
-1.257362
-1.304266
-1.338958
-1.419719
-1.354237
0.082215
-0.091055
0.196367
-0.914858
-0.919612
1.504572
1.446502
1.472147
1.483623
-2.318696
-2.237731
-2.411076
-2.363440
-1.667493
-1.618784
-1.594382
-1.560197
0.013283
-2.059271
-1.964624
-2.055930
-1.913314
-2.011838
-0.986786
-1.066093
-1.005539
-1.039424
-0.958878
-2.612056
-3.057308
-1.217481
-1.282388
0.056879
0.116714
0.044124
0.129030
-1.200951
-1.142639
-1.192883
-1.154790
-1.103642
1.485442
-0.552969
-0.558943
-0.583051
-0.486308
1.622263
1.615026
1.606760
-1.106930
-1.232481
-1.272237
-1.229547
-1.310542
-1.320610
-2.135515
-2.050016
-2.107922
1.691414
-1.667791
-1.697114
-1.609637
-1.634962
-2.508734
-2.657608
-2.892997
-1.571510
-1.307727
-1.361653
-1.368853
-1.354834
-1.277836
-1.245906
-0.243362
-0.168769
-1.558660
-1.512468
-1.500937
-1.435393
-1.436145
1.574796
1.584301
-0.000474
0.025531
0.055337
0.046472
-1.184487
-1.269249
-1.669062
-1.610652
-1.736417
-1.178601
-1.089806
-1.159029
-1.259069
-1.714270
-1.754204
-1.682406
-1.779002
-1.806633
-0.976159
-0.886953
-1.121117
-1.213131
0.498100
0.541871
0.458473
0.330662
0.334588
-1.740710
-1.618090
-1.539206
-1.610634
-1.676844
-1.680061
-1.930958
-2.046097
-1.777981
-1.793007
-1.792682
-1.708717
-1.051200
-1.076114
-0.020332
-0.914068
-0.868613
-0.862081
-0.818908
-1.489876
-1.554368
-1.628771
-1.619939
0.197163
-1.382795
-1.376521
-1.994395
-1.960510
-2.063930
-1.753706
-1.956127
-1.680051
-1.650098
-1.602845
-1.729570
-1.779930
1.255128
1.263333
1.244916
-1.541882
-1.473259
-1.216817
-1.997338
-2.027283
-2.103347
-1.457144
-1.498525
-1.426764
-1.388936
-0.876145
-0.847263
-0.815259
-0.856988
-1.593780
-1.531265
1.547192
1.511487
1.451013
-1.181887
-1.607426
-1.623102
-1.216584
-1.500188
-1.558051
-1.519122
-1.532339
-1.136443
-1.187188
-1.548265
-1.590729
-1.092760
-1.050012
-0.997175
-0.945937
-1.002417
-1.983094
0.838680
-0.926215
-0.883471
-0.959641
1.526492
-1.046097
-1.136618
1.185978
1.180189
1.197466
-1.079978
-1.142974
1.598678
0.901634
-1.918616
-0.901031
-0.858491