# vtk DataFile Version 2.0
Test
ASCII
DATASET POLYDATA
POINTS 858 float
0.000000 0.000000 0.000000
1.000000 0.000000 0.000000
1.000000 1.000000 0.000000
0.000000 1.000000 0.000000
0.300000 0.330000 0.000000
0.700000 0.680000 0.000000
0.100000 0.000000 0.000000
0.200000 0.000000 0.000000
0.300000 0.000000 0.000000
0.400000 0.000000 0.000000
0.500000 0.000000 0.000000
0.600000 0.000000 0.000000
0.700000 0.000000 0.000000
0.800000 0.000000 0.000000
0.900000 0.000000 0.000000
1.000000 0.100000 0.000000
1.000000 0.200000 0.000000
1.000000 0.300000 0.000000
1.000000 0.400000 0.000000
1.000000 0.500000 0.000000
1.000000 0.600000 0.000000
1.000000 0.700000 0.000000
1.000000 0.800000 0.000000
1.000000 0.900000 0.000000
0.900000 1.000000 0.000000
0.800000 1.000000 0.000000
0.700000 1.000000 0.000000
0.600000 1.000000 0.000000
0.500000 1.000000 0.000000
0.400000 1.000000 0.000000
0.300000 1.000000 0.000000
0.200000 1.000000 0.000000
0.100000 1.000000 0.000000
0.000000 0.900000 0.000000
0.000000 0.800000 0.000000
0.000000 0.700000 0.000000
0.000000 0.600000 0.000000
0.000000 0.500000 0.000000
0.000000 0.400000 0.000000
0.000000 0.300000 0.000000
0.000000 0.200000 0.000000
0.000000 0.100000 0.000000
0.307407 0.336481 0.000000
0.314815 0.342963 0.000000
0.322222 0.349444 0.000000
0.329630 0.355926 0.000000
0.337037 0.362407 0.000000
0.344444 0.368889 0.000000
0.351852 0.375370 0.000000
0.359259 0.381852 0.000000
0.366667 0.388333 0.000000
0.374074 0.394815 0.000000
0.381481 0.401296 0.000000
0.388889 0.407778 0.000000
0.396296 0.414259 0.000000
0.403704 0.420741 0.000000
0.411111 0.427222 0.000000
0.418519 0.433704 0.000000
0.425926 0.440185 0.000000
0.433333 0.446667 0.000000
0.440741 0.453148 0.000000
0.448148 0.459630 0.000000
0.455556 0.466111 0.000000
0.462963 0.472593 0.000000
0.470370 0.479074 0.000000
0.477778 0.485556 0.000000
0.485185 0.492037 0.000000
0.492593 0.498519 0.000000
0.500000 0.505000 0.000000
0.507407 0.511481 0.000000
0.514815 0.517963 0.000000
0.522222 0.524444 0.000000
0.529630 0.530926 0.000000
0.537037 0.537407 0.000000
0.544444 0.543889 0.000000
0.551852 0.550370 0.000000
0.559259 0.556852 0.000000
0.566667 0.563333 0.000000
0.574074 0.569815 0.000000
0.581481 0.576296 0.000000
0.588889 0.582778 0.000000
0.596296 0.589259 0.000000
0.603704 0.595741 0.000000
0.611111 0.602222 0.000000
0.618519 0.608704 0.000000
0.625926 0.615185 0.000000
0.633333 0.621667 0.000000
0.640741 0.628148 0.000000
0.648148 0.634630 0.000000
0.655556 0.641111 0.000000
0.662963 0.647593 0.000000
0.670370 0.654074 0.000000
0.677778 0.660556 0.000000
0.685185 0.667037 0.000000
0.692593 0.673519 0.000000
0.548037 0.570873 0.000000
0.554453 0.579695 0.000000
0.540788 0.582045 0.000000
0.550492 0.594703 0.000000
0.338797 0.350505 0.000000
0.329823 0.347064 0.000000
0.335712 0.339262 0.000000
0.451687 0.438509 0.000000
0.442642 0.430741 0.000000
0.457884 0.427703 0.000000
0.387297 0.847474 0.000000
0.374793 0.914734 0.000000
0.332869 0.847471 0.000000
0.447069 0.415163 0.000000
0.567391 0.482596 0.000000
0.554659 0.473874 0.000000
0.567453 0.464800 0.000000
0.301190 0.902112 0.000000
0.551747 0.457138 0.000000
0.356532 0.391813 0.000000
0.347986 0.386048 0.000000
0.176207 0.429241 0.000000
0.128375 0.468105 0.000000
0.136378 0.404291 0.000000
0.185621 0.475277 0.000000
0.497512 0.261165 0.000000
0.499167 0.296032 0.000000
0.469918 0.291504 0.000000
0.642232 0.687989 0.000000
0.624295 0.701188 0.000000
0.630549 0.678643 0.000000
0.647682 0.074905 0.000000
0.700945 0.096046 0.000000
0.657288 0.160421 0.000000
0.611443 0.684403 0.000000
0.559779 0.406431 0.000000
0.582162 0.394521 0.000000
0.580552 0.422827 0.000000
0.560788 0.374759 0.000000
0.541503 0.468043 0.000000
0.545465 0.480978 0.000000
0.428301 0.394826 0.000000
0.414860 0.384611 0.000000
0.432086 0.374027 0.000000
0.533961 0.477886 0.000000
0.527361 0.464336 0.000000
0.415481 0.368142 0.000000
0.484401 0.527206 0.000000
0.472984 0.524144 0.000000
0.481205 0.518972 0.000000
0.394266 0.424909 0.000000
0.401826 0.431399 0.000000
0.392742 0.434502 0.000000
0.642418 0.617836 0.000000
0.635302 0.612878 0.000000
0.644322 0.605726 0.000000
0.263646 0.464175 0.000000
0.250486 0.498376 0.000000
0.230296 0.467342 0.000000
0.491693 0.468898 0.000000
0.498004 0.479972 0.000000
0.487381 0.480785 0.000000
0.718619 0.489140 0.000000
0.756680 0.466072 0.000000
0.751564 0.516847 0.000000
0.497232 0.719177 0.000000
0.477497 0.748035 0.000000
0.465924 0.716726 0.000000
0.501292 0.467390 0.000000
0.529064 0.285755 0.000000
0.547173 0.240449 0.000000
0.474742 0.511943 0.000000
0.403118 0.392815 0.000000
0.412434 0.399392 0.000000
0.653057 0.614785 0.000000
0.659187 0.602396 0.000000
0.400247 0.379451 0.000000
0.459133 0.636583 0.000000
0.434636 0.647284 0.000000
0.440667 0.616932 0.000000
0.453650 0.664799 0.000000
0.666296 0.616100 0.000000
0.657731 0.628197 0.000000
0.420489 0.468863 0.000000
0.414183 0.459489 0.000000
0.424065 0.460120 0.000000
0.629321 0.574616 0.000000
0.630370 0.589442 0.000000
0.617226 0.584388 0.000000
0.422026 0.450877 0.000000
0.590180 0.614274 0.000000
0.596278 0.627413 0.000000
0.585881 0.628067 0.000000
0.630677 0.603443 0.000000
0.529117 0.486095 0.000000
0.517046 0.488781 0.000000
0.522040 0.477224 0.000000
0.308641 0.392803 0.000000
0.323746 0.398675 0.000000
0.304273 0.411173 0.000000
0.146020 0.514086 0.000000
0.087335 0.505198 0.000000
0.624982 0.561914 0.000000
0.643811 0.559907 0.000000
0.831909 0.406061 0.000000
0.881376 0.423788 0.000000
0.839177 0.457573 0.000000
0.509066 0.478681 0.000000
0.614792 0.620247 0.000000
0.608406 0.635616 0.000000
0.603251 0.619643 0.000000
0.640290 0.595050 0.000000
0.524731 0.497540 0.000000
0.338689 0.392113 0.000000
0.347423 0.395876 0.000000
0.340116 0.407012 0.000000
0.686563 0.659098 0.000000
0.682555 0.651347 0.000000
0.934704 0.856355 0.000000
0.940546 0.930926 0.000000
0.863552 0.916423 0.000000
0.172107 0.566287 0.000000
0.188105 0.516551 0.000000
0.221330 0.532895 0.000000
0.683914 0.680068 0.000000
0.692945 0.685712 0.000000
0.683376 0.697853 0.000000
0.672414 0.683990 0.000000
0.557147 0.529227 0.000000
0.554161 0.540325 0.000000
0.546244 0.533101 0.000000
0.391911 0.394487 0.000000
0.387591 0.383772 0.000000
0.385780 0.368800 0.000000
0.671617 0.628861 0.000000
0.664093 0.637808 0.000000
0.408700 0.450928 0.000000
0.406517 0.467364 0.000000
0.394366 0.455525 0.000000
0.388841 0.472148 0.000000
0.792728 0.486062 0.000000
0.461047 0.516036 0.000000
0.460182 0.532753 0.000000
0.450617 0.523703 0.000000
0.364207 0.398120 0.000000
0.371344 0.402923 0.000000
0.362621 0.408449 0.000000
0.235276 0.413110 0.000000
0.235915 0.390376 0.000000
0.260894 0.399649 0.000000
0.564107 0.604249 0.000000
0.558497 0.625526 0.000000
0.545610 0.611482 0.000000
0.542035 0.628852 0.000000
0.441269 0.401429 0.000000
0.443649 0.385779 0.000000
0.454140 0.398188 0.000000
0.456246 0.380948 0.000000
0.531090 0.597071 0.000000
0.528592 0.618783 0.000000
0.693800 0.600685 0.000000
0.675646 0.601117 0.000000
0.688895 0.583493 0.000000
0.466943 0.412411 0.000000
0.469666 0.393398 0.000000
0.215629 0.311290 0.000000
0.236374 0.342186 0.000000
0.194357 0.347185 0.000000
0.372859 0.289727 0.000000
0.362694 0.307734 0.000000
0.346245 0.295576 0.000000
0.824768 0.656091 0.000000
0.787989 0.680173 0.000000
0.787481 0.637866 0.000000
0.763354 0.658567 0.000000
0.564845 0.587843 0.000000
0.565674 0.575091 0.000000
0.575285 0.580662 0.000000
0.591463 0.532694 0.000000
0.606735 0.524365 0.000000
0.606700 0.541268 0.000000
0.696107 0.663701 0.000000
0.695223 0.651919 0.000000
0.114270 0.553146 0.000000
0.897846 0.490106 0.000000
0.941355 0.438159 0.000000
0.491870 0.442127 0.000000
0.508682 0.433741 0.000000
0.504276 0.453072 0.000000
0.616608 0.507977 0.000000
0.629719 0.487283 0.000000
0.643435 0.510566 0.000000
0.660659 0.486926 0.000000
0.584650 0.557787 0.000000
0.582076 0.545531 0.000000
0.595086 0.552412 0.000000
0.215445 0.494211 0.000000
0.502563 0.534321 0.000000
0.493623 0.527201 0.000000
0.502900 0.523550 0.000000
0.490744 0.536689 0.000000
0.303740 0.348241 0.000000
0.312638 0.354325 0.000000
0.302746 0.359450 0.000000
0.683727 0.548378 0.000000
0.666144 0.562133 0.000000
0.663581 0.542222 0.000000
0.366098 0.324774 0.000000
0.379406 0.309842 0.000000
0.251675 0.434611 0.000000
0.214900 0.437402 0.000000
0.581091 0.493223 0.000000
0.603283 0.484739 0.000000
0.593195 0.510449 0.000000
0.429738 0.356510 0.000000
0.412970 0.350726 0.000000
0.358920 0.356811 0.000000
0.352460 0.366146 0.000000
0.347463 0.357590 0.000000
0.353794 0.402394 0.000000
0.527483 0.436280 0.000000
0.546965 0.439869 0.000000
0.535210 0.453469 0.000000
0.624606 0.790385 0.000000
0.614250 0.755688 0.000000
0.654837 0.763041 0.000000
0.384960 0.332814 0.000000
0.619946 0.597007 0.000000
0.358705 0.265521 0.000000
0.397502 0.266486 0.000000
0.377869 0.228897 0.000000
0.471169 0.372235 0.000000
0.492664 0.362648 0.000000
0.488718 0.386734 0.000000
0.431288 0.062893 0.000000
0.512348 0.074893 0.000000
0.450325 0.128772 0.000000
0.515327 0.223180 0.000000
0.538419 0.183215 0.000000
0.367912 0.509419 0.000000
0.343175 0.515399 0.000000
0.351317 0.488263 0.000000
0.593186 0.193353 0.000000
0.476496 0.230456 0.000000
0.594140 0.256114 0.000000
0.629340 0.367381 0.000000
0.659922 0.374166 0.000000
0.641019 0.397588 0.000000
0.669525 0.412603 0.000000
0.510665 0.591750 0.000000
0.493263 0.584115 0.000000
0.507476 0.576852 0.000000
0.492575 0.790205 0.000000
0.516533 0.753914 0.000000
0.493265 0.606545 0.000000
0.794852 0.435952 0.000000
0.797754 0.379724 0.000000
0.755728 0.420083 0.000000
0.528549 0.642034 0.000000
0.507334 0.653897 0.000000
0.509532 0.626562 0.000000
0.580705 0.748031 0.000000
0.605192 0.727758 0.000000
0.748472 0.635779 0.000000
0.742539 0.660255 0.000000
0.323194 0.421808 0.000000
0.325468 0.445306 0.000000
0.301700 0.435431 0.000000
0.295276 0.460827 0.000000
0.622421 0.457821 0.000000
0.642814 0.468538 0.000000
0.320303 0.468200 0.000000
[...]
POINT_DATA 858
SCALARS UX float 1
LOOKUP_TABLE default
-0.000000
0.000000
0.000174
-0.002742
0.000376
-0.001743
0.000000
-0.000000
-0.000000
-0.000000
-0.000000
0.000000
0.000000
0.000000
-0.000000
0.000742
0.001025
0.000889
0.000445
-0.000130
-0.000538
-0.000575
-0.000284
0.000043
-0.000054
-0.000239
-0.000457
-0.000963
-0.001558
-0.001989
-0.002250
-0.002380
-0.002545
-0.002564
-0.002127
-0.001481
-0.000891
-0.000552
-0.000541
-0.000694
-0.000780
-0.000633
0.000384
-0.000191
0.000076
-0.000193
0.000123
-0.000043
0.000305
0.000199
0.000089
0.000623
0.000414
0.000246
0.000482
0.000056
0.000054
0.000044
0.000304
-0.001815
0.003381
0.004114
0.001557
-0.005932
0.000557
-0.000029
-0.000357
0.026019
0.005334
0.009388
0.005003
-0.014731
0.006595
0.007083
0.026642
0.021032
-0.080328
-0.058248
-0.023375
-0.049150
-0.019330
-0.016765
-0.017264
-0.024792
0.039206
0.007594
-0.022338
-0.038943
0.005867
0.000524
-0.002118
-0.005025
-0.001306
-0.001972
-0.001963
0.006296
0.001464
0.003064
0.000339
-0.000162
-0.000324
-0.000225
0.000607
0.000375
0.000326
-0.001916
-0.002051
-0.001928
0.000166
-0.000459
-0.000271
-0.000485
-0.002109
-0.000322
0.000614
0.000590
0.000179
-0.000010
-0.000031
0.000277
-0.000243
-0.000267
-0.000265
-0.002361
-0.002118
-0.002838
0.000072
0.000177
0.000149
-0.002821
-0.000412
-0.000338
-0.000415
-0.000352
0.000063
0.000174
0.000037
-0.000017
-0.000077
0.000718
0.000380
-0.000095
0.007415
0.005936
0.005514
0.000900
0.000891
0.000995
0.004730
0.004917
-0.000193
0.000723
0.000693
0.000524
0.000979
0.001817
0.001753
-0.001383
-0.000825
-0.001454
-0.002055
-0.001910
-0.001730
0.000854
-0.000241
-0.000153
0.004416
0.000028
0.000070
0.002026
-0.001311
-0.000037
0.000257
0.000117
0.001440
-0.000746
0.000236
0.002111
0.001562
0.001261
0.001117
-0.006348
-0.005092
-0.006047
0.000795
-0.005799
-0.004644
-0.004337
-0.000221
0.001439
0.002341
0.001112
0.000589
0.000657
0.000681
0.000030
-0.000225
-0.008545
-0.005880
-0.000064
-0.000050
-0.000419
0.001571
-0.004590
-0.006207
-0.004385
-0.002688
0.003273
0.000645
0.000687
0.000754
-0.001052
-0.000339
-0.000245
-0.000025
-0.000204
-0.000009
0.000257
0.000433
-0.002214
-0.001899
-0.001826
-0.002302
0.008612
-0.061511
0.011197
0.000072
0.000008
-0.000102
0.000104
-0.000275
0.001117
0.001512
0.001282
0.001587
-0.000855
0.004595
0.005727
0.004626
0.000672
0.000726
0.000778
0.000416
0.000337
0.000474
-0.002482
-0.002821
-0.001241
-0.002054
0.000067
-0.000030
0.000024
-0.000079
0.001060
-0.000918
-0.001523
-0.001508
-0.002423
0.000109
-0.000054
-0.000069
0.000122
0.000019
-0.000221
-0.000214
-0.000196
-0.001249
-0.001360
-0.001384
-0.001451
-0.001494
-0.003805
-0.006358
-0.006483
-0.004821
-0.010212
-0.001404
-0.000883
-0.000239
-0.000427
0.000041
0.000295
-0.000012
0.000342
-0.002239
-0.001290
-0.002943
-0.001593
-0.031394
-0.019671
-0.019352
0.000451
0.008443
0.008238
0.006203
0.010199
0.000547
0.000290
0.000431
-0.003138
-0.004063
-0.004069
-0.000213
-0.000221
0.000567
0.000384
-0.000433
-0.000589
-0.000869
-0.000147
-0.000158
-0.000193
-0.000135
-0.000272
0.000746
-0.000179
-0.000347
-0.000063
-0.001086
-0.001372
-0.001056
-0.000204
-0.005799
-0.000220
-0.000238
-0.000238
-0.000160
-0.000253
-0.000164
-0.000099
-0.000068
-0.000164
-0.000185
-0.000108
0.001964
0.001647
0.001534
-0.000010
-0.000227
-0.000058
-0.000114
-0.000058
-0.000170
-0.000221
0.003002
0.004435
0.006085
-0.001852
-0.001994
0.001582
-0.000384
0.000055
-0.000315
-0.001963
-0.001613
-0.000591
-0.001740
-0.001776
-0.001419
-0.001467
0.000809
0.000981
0.000811
0.000906
-0.000448
-0.000901
0.001108
-0.000004
-0.000179
-0.000203
-0.000213
-0.000084
-0.000237
-0.000245
0.000103
0.000312
0.000739
-0.001789
-0.001873
-0.003081
-0.002560
0.000868
0.000934
-0.000525
-0.000268
-0.001158
-0.000895
-0.000191
0.000196
-0.000072
-0.000537
0.000592
-0.009404
-0.003729
-0.000827
0.000548
0.000386
-0.000517
-0.000624
-0.000051
-0.001443
-0.000226
-0.000248
-0.000244
0.001679
0.000832
0.001323
-0.000204
0.000231
0.000133
0.000139
0.000884
-0.000214
-0.000197
-0.000278
-0.000291
-0.000301
-0.000845
-0.000990
-0.001449
-0.001865
-0.001501
-0.001821
0.003408
0.005336
-0.001599
-0.001353
0.000413
0.008123
-0.000023
-0.000238
0.000036
-0.001711
-0.000235
-0.000259
-0.000231
-0.000234
0.000101
-0.002216
-0.001876
0.000173
0.000257
0.000311
-0.000435
-0.000265
-0.000157
-0.001150
-0.001077
-0.000855
0.000897
0.001043
-0.000022
-0.001146
-0.003037
-0.002007
-0.001217
-0.000963
-0.000268
-0.000762
0.001240
-0.001923
-0.001426
-0.001438
-0.000669
-0.001084
-0.000195
0.000305
0.000282
-0.000096
-0.000325
-0.000189
-0.000181
0.000201
0.002027
0.000277
0.002548
0.000369
0.000839
0.000980
-0.001268
-0.001441
-0.001353
-0.024222
-0.015918
0.003887
0.004554
-0.004770
-0.004754
-0.001199
-0.001225
0.003689
-0.002239
-0.001957
0.001494
-0.000231
-0.000234
-0.001568
-0.001214
0.001204
0.001315
0.001439
0.001130
-0.000807
-0.004442
-0.002584
-0.003115
-0.000512
-0.041953
-0.012543
-0.005033
-0.004536
-0.000114
-0.000163
-0.001086
-0.001016
-0.000854
-0.000692
-0.000112
-0.000213
-0.000211
-0.001470
-0.007995
-0.005492
-0.001525
-0.001474
0.000702
0.005340
0.000058
-0.000047
0.000309
-0.000161
-0.000828
-0.001184
-0.000802
-0.000297
-0.001408
-0.000721
-0.001032
-0.000045
-0.000147
-0.000174
-0.000369
-0.000258
-0.000194
-0.000368
0.000454
0.000453
0.000413
-0.007276
-0.004707
0.000634
0.000717
0.000392
0.002672
0.001936
-0.001885
-0.001641
0.000782
0.003780
0.002955
-0.004464
0.003974
0.005155
-0.005469
-0.003623
0.001083
0.000109
0.000023
-0.002775
-0.002336
0.022824
0.007753
0.012423
0.003428
-0.001300
-0.001484
-0.001314
-0.000133
-0.003771
-0.003919
-0.003399
0.002510
0.001959
0.001587
-0.000273
0.001064
-0.003207
-0.004221
-0.001614
-0.001651
-0.000203
0.000490
0.000535
0.000745
-0.011369
-0.018026
0.001287
0.001076
0.000044
0.000017
0.000168
-0.000442
-0.009761
0.007501
0.000962
0.000258
0.002859
0.003233
-0.000315
0.002060
0.008466
-0.000803
-0.000423
-0.000174
-0.000897
0.000516
-0.000432
-0.001628
-0.000466
-0.000337
-0.000276
-0.000581
-0.000597
0.000811
-0.000481
-0.000409
-0.000652
-0.000518
-0.000599
-0.000484
0.000228
0.019147
0.048049
0.010656
0.012094
0.001573
-0.000145
-0.000090
0.000513
0.000543
0.000637
0.001018
0.001195
-0.000347
-0.000468
-0.000260
-0.000994
0.000147
0.000715
-0.000242
-0.000244
-0.000105
0.018198
-0.009548
-0.009731
0.000729
-0.000011
-0.000712
-0.003902
0.006437
0.005404
-0.000020
0.005347
0.000301
0.000383
0.000467
-0.001494
-0.000464
-0.000121
0.032349
0.028049
0.007014
-0.001898
-0.001548
0.002557
0.002206
0.002625
-0.005516
0.002138
0.001089
-0.004005
-0.000205
0.001033
0.000904
0.012328
-0.000203
0.015073
0.020258
-0.000162
-0.001429
-0.001192
-0.000227
-0.000232
-0.000376
-0.000204
-0.005140
-0.000910
-0.000866
-0.001162
-0.003506
-0.001568
0.001780
0.001920
0.010051
0.000913
-0.002590
-0.002510
-0.002967
0.003723
0.003191
-0.003203
-0.002624
0.000766
0.000819
0.000162
-0.002546
0.001869
-0.002783
0.001338
-0.000527
0.000926
0.002120
-0.001850
-0.000139
-0.000251
-0.000140
-0.002084
0.002936
0.001631
-0.000253
0.006606
-0.000252
0.005235
0.004877
0.003231
0.006086
0.006320
-0.001625
0.001978
0.002207
0.000538
-0.000471
0.004652
-0.002227
-0.000183
-0.000665
0.000542
-0.000341
-0.000245
-0.000244
0.000394
0.000555
-0.002342
-0.002490
-0.000231
-0.001158
-0.000364
0.000670
0.000507
-0.000424
-0.002050
-0.001862
-0.000869
-0.001128
0.001622
0.002476
0.001943
-0.000547
-0.000284
-0.002896
-0.000245
-0.002298
-0.000678
-0.000732
-0.000173
-0.001772
-0.001849
-0.000225
-0.000234
-0.009421
-0.001369
0.000246
-0.000338
-0.001207
-0.000403
-0.001530
0.000358
0.000586
0.000490
0.000571
-0.002477
0.000169
0.000437
-0.042221
-0.001608
0.003850
-0.000478
-0.000274
0.000004
0.000119
-0.000444
0.000398
0.000283
0.000821
0.000137
-0.000063
-0.000079
0.000964
-0.002970
-0.004374
0.001877
0.001416
-0.000047
0.000718
0.000103
0.006010
0.012273
-0.000431
-0.000111
0.003315
0.002597
-0.000179
0.000079
0.000845
-0.001373
0.004266
-0.008147
-0.008506
0.002521
-0.003486
-0.035688
0.006517
0.001113
0.001133
0.000669
-0.008060
0.003226
-0.000310
0.006098
0.000268
0.000138
0.000301
0.000474
0.000945
-0.008002
-0.000321
0.000242
0.000725
0.004818
0.002490
0.004407
-0.015750
-0.045889
0.000302
0.003255
0.002798
0.001046
0.004334
SCALARS UY float 1
LOOKUP_TABLE default
-0.000000
-0.000000
-0.010000
-0.010000
-0.003213
-0.007161
-0.000000
-0.000000
-0.000000
-0.000000
-0.000000
-0.000000
-0.000000
-0.000000
-0.000000
-0.001177
-0.002066
-0.002911
-0.003782
-0.004852
-0.006093
-0.007349
-0.008431
-0.009282
-0.010000
-0.010000
-0.010000
-0.010000
-0.010000
-0.010000
-0.010000
-0.010000
-0.010000
-0.009431
-0.008746
-0.007868
-0.006740
-0.005423
-0.004130
-0.002991
-0.002020
-0.001110
-0.003318
-0.003296
-0.003487
-0.003444
-0.003533
-0.003605
-0.003885
-0.003742
-0.003759
-0.003759
-0.003943
-0.003950
-0.004023
-0.004097
-0.004071
-0.004280
-0.004574
-0.004461
-0.004155
-0.003959
-0.003570
-0.005291
-0.005863
-0.006435
-0.009292
0.003525
-0.000367
-0.001845
-0.003226
-0.010987
0.003683
-0.006076
0.033175
0.011672
-0.027163
-0.033763
-0.014894
-0.018913
-0.009088
-0.004047
-0.017380
-0.032640
0.045834
0.008383
-0.032586
-0.004028
-0.001738
-0.003834
-0.006327
-0.007209
-0.006001
-0.007159
-0.007419
-0.000775
-0.004171
-0.001610
-0.002544
-0.003431
-0.003362
-0.003286
-0.004378
-0.004267
-0.004264
-0.008040
-0.008904
-0.008316
-0.004162
-0.007489
-0.006104
-0.006874
-0.008962
-0.005882
-0.003735
-0.003804
-0.004294
-0.004822
-0.004076
-0.004812
-0.003017
-0.003420
-0.003234
-0.004597
-0.004077
-0.003603
-0.000874
-0.001122
-0.001953
-0.002939
-0.005418
-0.005493
-0.006116
-0.004922
-0.005325
-0.005272
-0.003994
-0.003874
-0.003820
-0.004729
-0.004799
-0.003728
-0.004138
-0.004770
-0.004780
-0.003913
-0.003945
-0.003969
-0.007889
-0.010696
-0.010671
-0.004539
-0.004972
-0.004643
-0.003664
-0.003564
-0.003139
-0.005950
-0.005425
-0.006144
-0.005222
-0.005965
-0.005904
-0.003984
-0.003445
-0.002932
-0.004994
-0.003933
-0.004005
-0.009453
-0.010249
-0.003802
-0.006167
-0.006481
-0.006506
-0.006113
-0.008852
-0.008374
-0.004052
-0.003998
-0.004005
-0.011680
-0.011659
-0.014235
-0.003978
-0.000568
-0.001220
-0.000998
-0.011164
-0.004379
-0.004071
-0.004490
-0.003776
-0.003813
-0.003931
-0.005342
-0.005334
-0.010533
-0.009383
-0.004432
-0.004455
-0.004956
-0.004235
0.002353
-0.000195
-0.001222
-0.011031
-0.003794
-0.003774
-0.003802
-0.003868
-0.007972
-0.008172
-0.008817
-0.009443
-0.009276
-0.005928
-0.005301
-0.005463
-0.006529
-0.006773
-0.006566
-0.006150
0.007344
-0.050314
0.002850
-0.003925
-0.003801
-0.003662
-0.008509
-0.007856
-0.004009
-0.004084
-0.004073
-0.004202
-0.005469
-0.004399
-0.004860
-0.004557
-0.003724
-0.003809
-0.003821
-0.004031
-0.003795
-0.003875
-0.002246
-0.002002
-0.002510
-0.002719
-0.004063
-0.003946
-0.004057
-0.003947
-0.002990
-0.003341
-0.008677
-0.009260
-0.008595
-0.004161
-0.004075
-0.002990
-0.003291
-0.003373
-0.002905
-0.003043
-0.002914
-0.007108
-0.007396
-0.007120
-0.007348
-0.004327
-0.008767
-0.005653
-0.009604
-0.008095
-0.007825
-0.007899
-0.008170
-0.005856
-0.005120
-0.004406
-0.004143
-0.004443
-0.004223
-0.007651
-0.007115
-0.006842
-0.006386
-0.014783
-0.013036
-0.010308
-0.004990
-0.004654
-0.004673
-0.003128
-0.003654
-0.003446
-0.003454
-0.003496
-0.007651
-0.008685
-0.007768
-0.003200
-0.003096
-0.004236
-0.004326
-0.009146
-0.008262
-0.009843
-0.003665
-0.003564
-0.003475
-0.003591
-0.003470
-0.003800
-0.004913
-0.005560
-0.005167
-0.006385
-0.005432
-0.006428
-0.003319
-0.011594
-0.002663
-0.002742
-0.002346
-0.003955
-0.004035
-0.004158
-0.000670
-0.000843
-0.001406
-0.002618
-0.002175
-0.004739
-0.004940
-0.004528
-0.002382
-0.002599
-0.003250
-0.005060
-0.005032
-0.005557
-0.005513
-0.004994
-0.005918
-0.005507
-0.006375
-0.005429
-0.005596
-0.004892
-0.004287
-0.004920
-0.003422
-0.004413
-0.004441
-0.004858
-0.004456
-0.007397
-0.007428
-0.003994
-0.004182
-0.004153
-0.004422
-0.006982
-0.006623
-0.004427
-0.001399
-0.001124
-0.001860
-0.001665
-0.003500
-0.003625
-0.004432
-0.003800
-0.006068
-0.005469
-0.009015
-0.007967
-0.008376
-0.007722
-0.004708
-0.005051
-0.006549
-0.006593
-0.007429
-0.006934
-0.002696
-0.006755
-0.006904
-0.007147
-0.006674
-0.001543
-0.003938
-0.007171
-0.003342
-0.003801
-0.008938
-0.007139
-0.006641
-0.007871
-0.002391
-0.002129
-0.002004
-0.006412
-0.006629
-0.006354
-0.002503
-0.003959
-0.004129
-0.004120
-0.003986
-0.003318
-0.003389
-0.003826
-0.003806
-0.004108
-0.007222
-0.007222
-0.007147
-0.007404
-0.007141
-0.006710
-0.006315
-0.006221
-0.006461
-0.006848
-0.003486
-0.005586
-0.004563
-0.005082
-0.004636
-0.007701
-0.001937
-0.001653
-0.001526
-0.003735
-0.002930
-0.009172
-0.008448
-0.004200
-0.000956
-0.001864
-0.003018
-0.003115
-0.002747
-0.007114
-0.007715
-0.007421
-0.003933
-0.004084
-0.005528
-0.005397
-0.006815
-0.006339
-0.007695
-0.007480
-0.006961
-0.005488
-0.004301
-0.005973
-0.006268
-0.006962
-0.006002
-0.005890
-0.000982
-0.003583
-0.003405
-0.000506
-0.001227
-0.000533
-0.000691
-0.003625
-0.005213
-0.003972
-0.004905
-0.006455
-0.005882
-0.006268
-0.007781
-0.007627
-0.007591
-0.017846
-0.013728
-0.004654
-0.005029
-0.001154
-0.001043
-0.006434
-0.006782
-0.004302
-0.006752
-0.007048
-0.005554
-0.002347
-0.002138
-0.007908
-0.007463
-0.004125
-0.004128
-0.004269
-0.004028
-0.007113
-0.010468
-0.010459
-0.009538
-0.006140
-0.020803
-0.010368
-0.004446
-0.004900
-0.003656
-0.003508
-0.006944
-0.006403
-0.006649
-0.005825
-0.001608
-0.003192
-0.003118
-0.005302
-0.008688
-0.007351
-0.007451
-0.007443
-0.004360
-0.003868
-0.004218
-0.004182
-0.004200
-0.004383
-0.008792
-0.007408
-0.007921
-0.004375
-0.008530
-0.008396
-0.008049
-0.003087
-0.002935
-0.003075
-0.005193
-0.004734
-0.003068
-0.004819
-0.003602
-0.003557
-0.003630
-0.003094
-0.002640
-0.004030
-0.004270
-0.003477
-0.006361
-0.006456
-0.007927
-0.007173
-0.006630
-0.006069
-0.006449
-0.002779
-0.002358
-0.004224
-0.000319
-0.002183
-0.004713
-0.003830
-0.003776
-0.006103
-0.005518
0.005833
-0.000693
-0.003310
-0.004150
-0.006501
-0.005641
-0.007701
-0.003565
-0.001516
-0.001626
-0.002046
-0.005491
-0.005641
-0.005984
-0.003569
-0.004015
-0.004782
-0.005494
-0.006148
-0.007187
-0.003200
-0.004299
-0.004232
-0.004379
-0.016993
-0.017329
-0.005065
-0.005396
-0.004389
-0.003749
-0.003508
-0.006236
0.003068
-0.005062
-0.003937
-0.002662
-0.005996
-0.005268
-0.004318
-0.005974
-0.005018
-0.008442
-0.008527
-0.003518
-0.005873
-0.003678
-0.005832
-0.005516
-0.001698
-0.002000
-0.001402
-0.002250
-0.001506
-0.003879
-0.008550
-0.008832
-0.008364
-0.008591
-0.008042
-0.005536
-0.004236
0.017383
0.005163
-0.004159
-0.002653
-0.006216
-0.002689
-0.002896
-0.004101
-0.003957
-0.003926
-0.004420
-0.004437
-0.006604
-0.006948
-0.005773
-0.006765
-0.004645
-0.002603
-0.004463
-0.005062
-0.004439
-0.002624
-0.015189
-0.012742
-0.004206
-0.013887
-0.010827
-0.003658
-0.005371
-0.005335
-0.002901
-0.005916
-0.003293
-0.002539
-0.002940
-0.007983
-0.006263
-0.002749
-0.002682
0.013992
-0.005587
-0.004973
-0.007468
-0.004539
-0.004344
-0.004327
-0.001777
-0.004587
-0.003915
-0.001098
-0.003460
-0.004009
-0.003909
-0.004340
-0.003607
-0.003918
-0.002100
-0.003495
-0.006696
-0.006080
-0.002581
-0.002355
-0.002453
-0.003365
-0.007676
-0.008001
-0.007896
-0.007713
-0.001977
-0.006602
-0.004429
-0.004358
-0.005037
-0.003969
-0.003413
-0.003513
-0.002722
-0.005078
-0.004723
-0.002331
-0.003127
-0.003859
-0.003855
-0.004030
-0.003123
-0.004221
-0.002595
-0.004644
-0.003898
-0.005023
-0.004058
-0.007083
-0.003807
-0.003958
-0.003930
-0.004651
-0.004616
-0.004270
-0.002821
-0.007680
-0.003138
-0.000400
-0.002625
-0.001678
0.000262
-0.003956
-0.007128
-0.004181
-0.004197
-0.003783
-0.007940
-0.005577
-0.003878
-0.002089
-0.008048
-0.003681
-0.009262
-0.002513
-0.003015
-0.000918
-0.000955
-0.009270
-0.009340
-0.002978
-0.008212
-0.000823
-0.001680
-0.001920
-0.003639
-0.008623
-0.008440
-0.007374
-0.007407
-0.004278
-0.004830
-0.004325
-0.008903
-0.001883
-0.007019
-0.003416
-0.004301
-0.005407
-0.008068
-0.002993
-0.008248
-0.005300
-0.003166
-0.003245
-0.001891
-0.007383
-0.003872
-0.004567
-0.006277
-0.006575
-0.007456
-0.003984
-0.003665
-0.003694
-0.003717
-0.006232
-0.003976
-0.003585
-0.023994
-0.007370
-0.005534
-0.007908
-0.006136
-0.003014
-0.003147
-0.007435
-0.003331
-0.003300
-0.004025
-0.004114
-0.003697
-0.003592
-0.004337
-0.018923
-0.009679
-0.004147
-0.004134
-0.006831
-0.004397
-0.003018
-0.001754
-0.003315
-0.008087
-0.005967
-0.004170
-0.004159
-0.003333
-0.004246
-0.003853
-0.007565
-0.006274
-0.018715
-0.034350
-0.015843
-0.015503
-0.052475
-0.001752
-0.004047
-0.005854
-0.004386
-0.003563
-0.002663
-0.003186
-0.001546
-0.004235
-0.004384
-0.003533
-0.004171
-0.004102
-0.020264
-0.008297
-0.004297
-0.004643
-0.003258
-0.006011
-0.005699
-0.003141
-0.028363
-0.004372
-0.004425
-0.004243
-0.004254
-0.003073
SCALARS DAMAGE float 1
LOOKUP_TABLE default
1.000000
1.000000
1.000000
1.000000
0.000000
0.000000
1.000000
1.000000
1.000000
1.000000
1.000000
1.000000
1.000000
1.000000
1.000000
1.000000
1.000000
1.000000
1.000000
1.000000
1.000000
1.000000
1.000000
1.000000
1.000000
1.000000
1.000000
1.000000
1.000000
1.000000
1.000000
1.000000
1.000000
1.000000
1.000000
1.000000
1.000000
1.000000
1.000000
1.000000
1.000000
1.000000
-0.000000
0.000000
0.000000
0.000000
0.000000
0.000000
0.000000
0.000000
0.000000
0.000000
0.000000
0.000000
0.000000
0.000000
0.000000
0.000000
0.000000
0.000000
0.000000
0.000000
0.000000
0.000000
0.000000
0.000000
0.000000
0.000000
0.000000
0.000000
0.000000
0.000000
0.000000
0.000000
0.000000
0.000000
0.000000
0.000000
0.000000
0.000000
0.000000
0.000000
0.000000
0.000000
0.000000
0.000000
0.000000
0.000000
0.000000
0.000000
0.000000
0.000000
0.000000
0.000000
-0.000000
0.678595
0.728317
0.862997
0.890205
0.481512
0.344895
0.649616
0.685452
0.689967
0.857651
1.000000
1.000000
1.000000
0.879952
0.980470
0.977596
0.991754
1.000000
0.988757
0.443573
0.491337
0.999998
1.000000
1.000000
1.000001
0.999998
0.999976
0.999939
0.943763
0.987941
0.947292
1.000000
1.000000
1.000000
0.982017
0.999407
0.999880
0.999501
0.999939
0.970283
0.952903
0.901034
0.890110
0.970674
0.933848
0.955012
0.953453
0.820323
0.870501
0.763542
0.448062
0.444786
0.670103
0.433214
0.389619
0.708165
0.999815
0.999989
0.999984
0.748557
0.668629
0.466575
0.999987
1.000000
1.000002
0.999988
0.999999
0.999996
0.844373
0.999998
1.000000
0.751296
0.726556
0.752608
0.683886
0.868665
0.844895
0.999757
0.999956
0.999724
0.999959
0.811658
0.516082
0.798325
0.754535
0.638241
0.879414
0.761464
0.673318
0.496217
0.768718
0.834948
0.898416
0.539732
0.879076
0.775428
0.895608
0.931009
0.904153
0.978190
1.000000
1.000000
0.918010
0.970596
1.000000
1.000000
1.000000
0.807268
0.510088
0.827998
0.681276
0.790197
0.752049
0.744956
0.687508
0.869996
0.351015
0.474956
1.000000
1.000000
1.000000
1.000000
1.000000
1.000000
0.513414
0.484329
0.845205
0.747262
0.706961
0.439401
0.448534
0.544051
0.656984
0.834339
0.718195
0.392464
0.715373
0.881269
0.873515
0.957098
1.000000
0.887881
0.952121
0.948609
0.433442
0.382490
0.675760
0.999448
0.998388
0.996299
0.881100
0.967090
0.960671
0.985314
0.916173
0.966113
0.959938
0.983873
0.957860
0.987282
0.972721
0.939357
0.986329
0.955228
0.984115
0.999134
0.996347
0.999972
0.994812
0.977205
0.981082
0.999986
0.999554
0.999579
0.994432
0.717083
0.454042
0.373302
0.922790
0.971633
0.936969
0.475921
0.689659
1.000000
1.000000
1.000000
0.931625
0.978936
0.931623
0.992052
0.998490
0.997561
0.999726
0.630923
0.782402
0.823560
0.999998
0.726913
0.732607
0.541027
0.850557
0.525987
0.473297
0.730031
0.997091
0.985887
0.994946
0.955792
0.988028
0.999728
0.999958
0.981875
0.996231
0.976775
0.985953
0.977835
0.692268
0.366646
0.493464
0.703251
0.988857
0.994128
0.980965
0.999987
0.999732
1.000033
0.971031
0.462760
0.998519
0.999634
0.999981
0.994692
0.998721
0.994869
1.000000
1.000000
1.000000
1.000000
1.000000
0.997197
0.999419
0.996379
1.000000
1.000000
1.000000
0.999999