# vtk DataFile Version 2.0
Test
ASCII
DATASET POLYDATA
POINTS 858 float
0.000000 0.000000 0.000000
1.000000 0.000000 0.000000
1.000000 1.000000 0.000000
0.000000 1.000000 0.000000
0.300000 0.330000 0.000000
0.700000 0.680000 0.000000
0.100000 0.000000 0.000000
0.200000 0.000000 0.000000
0.300000 0.000000 0.000000
0.400000 0.000000 0.000000
0.500000 0.000000 0.000000
0.600000 0.000000 0.000000
0.700000 0.000000 0.000000
0.800000 0.000000 0.000000
0.900000 0.000000 0.000000
1.000000 0.100000 0.000000
1.000000 0.200000 0.000000
1.000000 0.300000 0.000000
1.000000 0.400000 0.000000
1.000000 0.500000 0.000000
1.000000 0.600000 0.000000
1.000000 0.700000 0.000000
1.000000 0.800000 0.000000
1.000000 0.900000 0.000000
0.900000 1.000000 0.000000
0.800000 1.000000 0.000000
0.700000 1.000000 0.000000
0.600000 1.000000 0.000000
0.500000 1.000000 0.000000
0.400000 1.000000 0.000000
0.300000 1.000000 0.000000
0.200000 1.000000 0.000000
0.100000 1.000000 0.000000
0.000000 0.900000 0.000000
0.000000 0.800000 0.000000
0.000000 0.700000 0.000000
0.000000 0.600000 0.000000
0.000000 0.500000 0.000000
0.000000 0.400000 0.000000
0.000000 0.300000 0.000000
0.000000 0.200000 0.000000
0.000000 0.100000 0.000000
0.307407 0.336481 0.000000
0.314815 0.342963 0.000000
0.322222 0.349444 0.000000
0.329630 0.355926 0.000000
0.337037 0.362407 0.000000
0.344444 0.368889 0.000000
0.351852 0.375370 0.000000
0.359259 0.381852 0.000000
0.366667 0.388333 0.000000
0.374074 0.394815 0.000000
0.381481 0.401296 0.000000
0.388889 0.407778 0.000000
0.396296 0.414259 0.000000
0.403704 0.420741 0.000000
0.411111 0.427222 0.000000
0.418519 0.433704 0.000000
0.425926 0.440185 0.000000
0.433333 0.446667 0.000000
0.440741 0.453148 0.000000
0.448148 0.459630 0.000000
0.455556 0.466111 0.000000
0.462963 0.472593 0.000000
0.470370 0.479074 0.000000
0.477778 0.485556 0.000000
0.485185 0.492037 0.000000
0.492593 0.498519 0.000000
0.500000 0.505000 0.000000
0.507407 0.511481 0.000000
0.514815 0.517963 0.000000
0.522222 0.524444 0.000000
0.529630 0.530926 0.000000
0.537037 0.537407 0.000000
0.544444 0.543889 0.000000
0.551852 0.550370 0.000000
0.559259 0.556852 0.000000
0.566667 0.563333 0.000000
0.574074 0.569815 0.000000
0.581481 0.576296 0.000000
0.588889 0.582778 0.000000
0.596296 0.589259 0.000000
0.603704 0.595741 0.000000
0.611111 0.602222 0.000000
0.618519 0.608704 0.000000
0.625926 0.615185 0.000000
0.633333 0.621667 0.000000
0.640741 0.628148 0.000000
0.648148 0.634630 0.000000
0.655556 0.641111 0.000000
0.662963 0.647593 0.000000
0.670370 0.654074 0.000000
0.677778 0.660556 0.000000
0.685185 0.667037 0.000000
0.692593 0.673519 0.000000
0.548037 0.570873 0.000000
0.554453 0.579695 0.000000
0.540788 0.582045 0.000000
0.550492 0.594703 0.000000
0.338797 0.350505 0.000000
0.329823 0.347064 0.000000
0.335712 0.339262 0.000000
0.451687 0.438509 0.000000
0.442642 0.430741 0.000000
0.457884 0.427703 0.000000
0.387297 0.847474 0.000000
0.374793 0.914734 0.000000
0.332869 0.847471 0.000000
0.447069 0.415163 0.000000
0.567391 0.482596 0.000000
0.554659 0.473874 0.000000
0.567453 0.464800 0.000000
0.301190 0.902112 0.000000
0.551747 0.457138 0.000000
0.356532 0.391813 0.000000
0.347986 0.386048 0.000000
0.176207 0.429241 0.000000
0.128375 0.468105 0.000000
0.136378 0.404291 0.000000
0.185621 0.475277 0.000000
0.497512 0.261165 0.000000
0.499167 0.296032 0.000000
0.469918 0.291504 0.000000
0.642232 0.687989 0.000000
0.624295 0.701188 0.000000
0.630549 0.678643 0.000000
0.647682 0.074905 0.000000
0.700945 0.096046 0.000000
0.657288 0.160421 0.000000
0.611443 0.684403 0.000000
0.559779 0.406431 0.000000
0.582162 0.394521 0.000000
0.580552 0.422827 0.000000
0.560788 0.374759 0.000000
0.541503 0.468043 0.000000
0.545465 0.480978 0.000000
0.428301 0.394826 0.000000
0.414860 0.384611 0.000000
0.432086 0.374027 0.000000
0.533961 0.477886 0.000000
0.527361 0.464336 0.000000
0.415481 0.368142 0.000000
0.484401 0.527206 0.000000
0.472984 0.524144 0.000000
0.481205 0.518972 0.000000
0.394266 0.424909 0.000000
0.401826 0.431399 0.000000
0.392742 0.434502 0.000000
0.642418 0.617836 0.000000
0.635302 0.612878 0.000000
0.644322 0.605726 0.000000
0.263646 0.464175 0.000000
0.250486 0.498376 0.000000
0.230296 0.467342 0.000000
0.491693 0.468898 0.000000
0.498004 0.479972 0.000000
0.487381 0.480785 0.000000
0.718619 0.489140 0.000000
0.756680 0.466072 0.000000
0.751564 0.516847 0.000000
0.497232 0.719177 0.000000
0.477497 0.748035 0.000000
0.465924 0.716726 0.000000
0.501292 0.467390 0.000000
0.529064 0.285755 0.000000
0.547173 0.240449 0.000000
0.474742 0.511943 0.000000
0.403118 0.392815 0.000000
0.412434 0.399392 0.000000
0.653057 0.614785 0.000000
0.659187 0.602396 0.000000
0.400247 0.379451 0.000000
0.459133 0.636583 0.000000
0.434636 0.647284 0.000000
0.440667 0.616932 0.000000
0.453650 0.664799 0.000000
0.666296 0.616100 0.000000
0.657731 0.628197 0.000000
0.420489 0.468863 0.000000
0.414183 0.459489 0.000000
0.424065 0.460120 0.000000
0.629321 0.574616 0.000000
0.630370 0.589442 0.000000
0.617226 0.584388 0.000000
0.422026 0.450877 0.000000
0.590180 0.614274 0.000000
0.596278 0.627413 0.000000
0.585881 0.628067 0.000000
0.630677 0.603443 0.000000
0.529117 0.486095 0.000000
0.517046 0.488781 0.000000
0.522040 0.477224 0.000000
0.308641 0.392803 0.000000
0.323746 0.398675 0.000000
0.304273 0.411173 0.000000
0.146020 0.514086 0.000000
0.087335 0.505198 0.000000
0.624982 0.561914 0.000000
0.643811 0.559907 0.000000
0.831909 0.406061 0.000000
0.881376 0.423788 0.000000
0.839177 0.457573 0.000000
0.509066 0.478681 0.000000
0.614792 0.620247 0.000000
0.608406 0.635616 0.000000
0.603251 0.619643 0.000000
0.640290 0.595050 0.000000
0.524731 0.497540 0.000000
0.338689 0.392113 0.000000
0.347423 0.395876 0.000000
0.340116 0.407012 0.000000
0.686563 0.659098 0.000000
0.682555 0.651347 0.000000
0.934704 0.856355 0.000000
0.940546 0.930926 0.000000
0.863552 0.916423 0.000000
0.172107 0.566287 0.000000
0.188105 0.516551 0.000000
0.221330 0.532895 0.000000
0.683914 0.680068 0.000000
0.692945 0.685712 0.000000
0.683376 0.697853 0.000000
0.672414 0.683990 0.000000
0.557147 0.529227 0.000000
0.554161 0.540325 0.000000
0.546244 0.533101 0.000000
0.391911 0.394487 0.000000
0.387591 0.383772 0.000000
0.385780 0.368800 0.000000
0.671617 0.628861 0.000000
0.664093 0.637808 0.000000
0.408700 0.450928 0.000000
0.406517 0.467364 0.000000
0.394366 0.455525 0.000000
0.388841 0.472148 0.000000
0.792728 0.486062 0.000000
0.461047 0.516036 0.000000
0.460182 0.532753 0.000000
0.450617 0.523703 0.000000
0.364207 0.398120 0.000000
0.371344 0.402923 0.000000
0.362621 0.408449 0.000000
0.235276 0.413110 0.000000
0.235915 0.390376 0.000000
0.260894 0.399649 0.000000
0.564107 0.604249 0.000000
0.558497 0.625526 0.000000
0.545610 0.611482 0.000000
0.542035 0.628852 0.000000
0.441269 0.401429 0.000000
0.443649 0.385779 0.000000
0.454140 0.398188 0.000000
0.456246 0.380948 0.000000
0.531090 0.597071 0.000000
0.528592 0.618783 0.000000
0.693800 0.600685 0.000000
0.675646 0.601117 0.000000
0.688895 0.583493 0.000000
0.466943 0.412411 0.000000
0.469666 0.393398 0.000000
0.215629 0.311290 0.000000
0.236374 0.342186 0.000000
0.194357 0.347185 0.000000
0.372859 0.289727 0.000000
0.362694 0.307734 0.000000
0.346245 0.295576 0.000000
0.824768 0.656091 0.000000
0.787989 0.680173 0.000000
0.787481 0.637866 0.000000
0.763354 0.658567 0.000000
0.564845 0.587843 0.000000
0.565674 0.575091 0.000000
0.575285 0.580662 0.000000
0.591463 0.532694 0.000000
0.606735 0.524365 0.000000
0.606700 0.541268 0.000000
0.696107 0.663701 0.000000
0.695223 0.651919 0.000000
0.114270 0.553146 0.000000
0.897846 0.490106 0.000000
0.941355 0.438159 0.000000
0.491870 0.442127 0.000000
0.508682 0.433741 0.000000
0.504276 0.453072 0.000000
0.616608 0.507977 0.000000
0.629719 0.487283 0.000000
0.643435 0.510566 0.000000
0.660659 0.486926 0.000000
0.584650 0.557787 0.000000
0.582076 0.545531 0.000000
0.595086 0.552412 0.000000
0.215445 0.494211 0.000000
0.502563 0.534321 0.000000
0.493623 0.527201 0.000000
0.502900 0.523550 0.000000
0.490744 0.536689 0.000000
0.303740 0.348241 0.000000
0.312638 0.354325 0.000000
0.302746 0.359450 0.000000
0.683727 0.548378 0.000000
0.666144 0.562133 0.000000
0.663581 0.542222 0.000000
0.366098 0.324774 0.000000
0.379406 0.309842 0.000000
0.251675 0.434611 0.000000
0.214900 0.437402 0.000000
0.581091 0.493223 0.000000
0.603283 0.484739 0.000000
0.593195 0.510449 0.000000
0.429738 0.356510 0.000000
0.412970 0.350726 0.000000
0.358920 0.356811 0.000000
0.352460 0.366146 0.000000
0.347463 0.357590 0.000000
0.353794 0.402394 0.000000
0.527483 0.436280 0.000000
0.546965 0.439869 0.000000
0.535210 0.453469 0.000000
0.624606 0.790385 0.000000
0.614250 0.755688 0.000000
0.654837 0.763041 0.000000
0.384960 0.332814 0.000000
0.619946 0.597007 0.000000
0.358705 0.265521 0.000000
0.397502 0.266486 0.000000
0.377869 0.228897 0.000000
0.471169 0.372235 0.000000
0.492664 0.362648 0.000000
0.488718 0.386734 0.000000
0.431288 0.062893 0.000000
0.512348 0.074893 0.000000
0.450325 0.128772 0.000000
0.515327 0.223180 0.000000
0.538419 0.183215 0.000000
0.367912 0.509419 0.000000
0.343175 0.515399 0.000000
0.351317 0.488263 0.000000
0.593186 0.193353 0.000000
0.476496 0.230456 0.000000
0.594140 0.256114 0.000000
0.629340 0.367381 0.000000
0.659922 0.374166 0.000000
0.641019 0.397588 0.000000
0.669525 0.412603 0.000000
0.510665 0.591750 0.000000
0.493263 0.584115 0.000000
0.507476 0.576852 0.000000
0.492575 0.790205 0.000000
0.516533 0.753914 0.000000
0.493265 0.606545 0.000000
0.794852 0.435952 0.000000
0.797754 0.379724 0.000000
0.755728 0.420083 0.000000
0.528549 0.642034 0.000000
0.507334 0.653897 0.000000
0.509532 0.626562 0.000000
0.580705 0.748031 0.000000
0.605192 0.727758 0.000000
0.748472 0.635779 0.000000
0.742539 0.660255 0.000000
0.323194 0.421808 0.000000
0.325468 0.445306 0.000000
0.301700 0.435431 0.000000
0.295276 0.460827 0.000000
0.622421 0.457821 0.000000
0.642814 0.468538 0.000000
0.320303 0.468200 0.000000
[...]
POINT_DATA 858
SCALARS UX float 1
LOOKUP_TABLE default
-0.000000
0.000000
0.049690
-0.067144
-0.033181
0.029908
0.000000
-0.000000
-0.000000
-0.000000
-0.000000
0.000000
0.000000
0.000000
-0.000000
0.028146
0.044805
0.056020
0.064567
0.070007
0.070388
0.065242
0.057335
0.051558
0.037215
0.024960
0.013587
0.003383
-0.007334
-0.018810
-0.030755
-0.043033
-0.055147
-0.068032
-0.070209
-0.073600
-0.076920
-0.078250
-0.074411
-0.064041
-0.048168
-0.029758
-0.031777
-0.029973
-0.028264
-0.028548
-0.026693
-0.024726
-0.025127
-0.023890
-0.022529
-0.021226
-0.022084
-0.020441
-0.019295
-0.017649
-0.017303
-0.015849
-0.015471
-0.014236
-0.012448
-0.012177
-0.010435
-0.010030
-0.008910
-0.006913
-0.005870
-0.006064
-0.004033
-0.003299
-0.001779
-0.000681
0.001448
0.001141
0.003159
0.004620
0.004740
0.006724
0.008554
0.009147
0.008903
0.009807
0.011875
0.012715
0.013658
0.015820
0.016827
0.017715
0.018268
0.020733
0.021322
0.022255
0.025285
0.025050
0.027895
-0.019938
-0.018811
-0.020677
-0.018375
-0.012892
-0.017423
-0.013248
0.012118
0.010292
0.012487
-0.021687
-0.022137
-0.028420
0.010250
0.026372
0.024678
0.024662
-0.031384
0.022830
-0.040571
-0.042506
-0.058429
-0.064145
-0.060818
-0.058424
0.001728
0.003673
0.000595
0.005769
0.004218
0.002322
0.003290
0.006619
0.008747
0.000091
0.018375
0.019157
0.021593
0.015521
0.023228
0.024703
0.006332
0.003879
0.004424
0.023606
0.021916
0.002215
-0.030842
-0.032206
-0.031496
-0.037862
-0.037571
-0.041374
0.035050
0.032674
0.038878
-0.050895
-0.051556
-0.054004
0.018957
0.019805
0.015117
0.039092
0.041677
0.044033
-0.012218
-0.013232
-0.016306
0.020128
0.005803
0.005025
-0.032251
0.002702
0.004414
0.039380
0.040424
0.001791
-0.022886
-0.024641
-0.026425
-0.021211
0.041053
0.038135
-0.039397
-0.040062
-0.038314
0.037293
0.037447
0.035602
-0.037435
-0.011242
-0.009320
-0.010686
0.036091
0.023806
0.022493
0.022624
-0.047637
-0.046886
-0.048030
-0.062420
-0.068793
0.036442
0.037483
0.046057
0.053074
0.050363
0.021507
-0.004735
-0.006757
-0.008229
0.038562
0.023593
-0.045485
-0.044610
-0.045995
0.036384
0.038916
0.045386
0.043058
0.033635
-0.058418
-0.057788
-0.053769
0.016778
0.021723
0.017129
0.012125
0.028266
0.024717
0.023752
0.000141
-0.000350
-0.000855
0.041151
0.035557
-0.040742
-0.040775
-0.042144
-0.041736
0.046800
-0.033707
-0.032552
-0.033938
-0.039010
-0.036408
-0.043706
-0.053000
-0.052014
-0.050889
-0.015775
-0.014038
-0.016960
-0.015288
0.008260
0.006781
0.009088
0.007312
-0.020096
-0.017774
0.042433
0.041363
0.041553
0.011810
0.009842
-0.041812
-0.046540
-0.050250
-0.010426
-0.010982
-0.014290
0.049869
0.043952
0.048623
0.045156
-0.016772
-0.014203
-0.009887
0.032330
0.032689
0.034069
0.038967
0.041597
-0.065316
0.058590
0.060755
0.016946
0.017366
0.019114
0.031949
0.031156
0.033992
0.033558
0.031586
0.032230
0.033893
-0.055237
-0.028031
-0.029452
-0.026914
-0.029559
-0.043194
-0.042364
-0.045934
0.039381
0.038985
0.037599
-0.008878
-0.008393
-0.052071
-0.055244
0.028281
0.028998
0.030606
0.002176
-0.000096
-0.006629
-0.011697
-0.009995
-0.044351
0.018993
0.020746
0.021348
0.006944
0.005405
0.011047
-0.005359
0.033227
-0.012249
-0.007881
-0.009277
0.007606
0.008470
0.010649
-0.001572
-0.000201
-0.002590
0.001902
0.002341
-0.040742
-0.042314
-0.043106
0.006292
-0.000978
0.009762
0.021183
0.024757
0.024781
0.028744
-0.022516
-0.024854
-0.024431
-0.009816
-0.007928
-0.022424
0.043964
0.040099
0.038427
-0.015118
-0.016144
-0.018743
0.000439
0.003162
0.046359
0.044004
-0.046943
-0.046417
-0.048148
-0.048219
0.028081
0.030636
-0.046142
0.002648
-0.004368
-0.003686
-0.005582
-0.054612
-0.060031
-0.068659
-0.055503
-0.050105
-0.049046
-0.012617
-0.013798
0.040395
0.041482
-0.049214
-0.048233
-0.062897
-0.053874
-0.063638
-0.069746
-0.016518
-0.037674
-0.033233
-0.035484
-0.034090
-0.006538
-0.004972
-0.056284
0.047425
0.055281
0.042318
-0.048204
-0.047238
-0.056010
-0.013878
-0.015845
-0.011117
-0.031907
-0.030939
-0.034783
-0.018763
0.046992
0.008089
0.006306
-0.045938
-0.008985
-0.005956
0.006328
0.007027
0.009250
0.010641
0.005947
0.047881
-0.018830
-0.023750
-0.016137
-0.025747
-0.027347
-0.018906
0.050171
0.039051
-0.026975
0.034061
0.033238
0.028175
-0.025845
-0.008128
-0.011836
-0.008090
0.004633
0.012360
-0.039620
-0.037114
0.007052
0.008380
0.013508
-0.054891
-0.051530
-0.020387
0.017491
0.024692
0.015693
-0.044985
-0.045181
-0.020763
-0.018462
0.035969
0.036822
-0.047949
-0.039844
-0.041833
0.052377
-0.044629
0.012411
0.013745
0.018800
0.031602
0.035122
-0.005950
-0.049884
-0.047074
-0.002042
-0.016698
-0.007456
-0.006289
-0.051850
-0.039456
-0.054560
-0.038075
-0.043365
-0.044713
-0.039066
0.044894
0.045593
0.044314
0.032033
0.034222
-0.035074
-0.033517
-0.008388
-0.004858
0.052888
0.052608
-0.035230
0.040344
0.043719
-0.041402
-0.003662
-0.006199
-0.033598
-0.031244
-0.043927
-0.042932
-0.043043
-0.043094
-0.029672
0.038655
0.039515
0.040061
-0.070869
0.024044
0.035247
0.001648
0.003987
0.000467
-0.002039
0.054264
0.057350
0.061595
0.063284
0.000069
-0.013064
-0.012187
0.008178
0.035618
0.034065
0.041325
0.040411
-0.020380
-0.022749
0.013607
0.012004
0.014578
0.014096
0.006296
0.001645
0.008944
0.012010
-0.003770
0.042687
0.043879
-0.023966
-0.019319
-0.019311
0.018315
0.016705
-0.015773
0.015369
-0.047547
-0.045831
-0.048953
-0.000247
-0.001182
-0.049685
-0.050049
-0.046898
-0.029415
-0.029710
0.043551
0.046088
-0.028105
-0.030752
-0.027447
-0.013853
-0.018975
-0.029488
-0.003665
-0.001342
-0.046817
-0.006490
-0.003714
0.008836
0.008594
-0.021053
-0.021791
-0.023333
0.019468
0.001849
0.001651
0.042137
-0.003998
-0.010624
-0.006955
-0.008625
-0.036511
-0.038085
-0.037711
0.003721
-0.041554
0.004555
0.007974
-0.002824
-0.006710
-0.016049
0.013660
0.014881
0.012997
0.029623
0.027916
-0.044709
-0.045573
0.021229
0.015199
0.018670
0.028981
-0.003012
-0.030871
-0.042671
0.015929
-0.032759
-0.035277
0.011440
-0.035384
-0.029032
0.043016
0.042112
0.008491
0.056156
-0.047353
0.020608
-0.016691
-0.029765
-0.026463
-0.013331
-0.044676
-0.032902
-0.045209
0.038511
0.030485
0.030733
0.022004
0.051068
0.032729
0.008771
-0.017225
-0.016210
-0.028043
-0.026601
-0.024163
-0.024466
-0.024052
0.016338
0.018330
0.017018
0.009495
0.008635
0.024598
0.024381
0.022115
-0.024295
0.020043
0.038262
0.013911
0.018001
0.016705
-0.022689
0.033873
0.035834
0.014626
0.030385
0.029258
0.000939
-0.030967
-0.031887
-0.031424
-0.030061
0.023156
0.020312
0.029093
-0.040654
0.022438
-0.032213
-0.018970
-0.017534
-0.029268
-0.002879
0.039281
-0.038327
-0.039408
-0.037821
-0.013524
-0.039953
0.014620
-0.012974
-0.000419
-0.044289
-0.043486
-0.026231
0.002275
-0.024600
-0.024295
-0.003480
0.049119
0.050036
-0.034995
-0.023766
-0.040300
-0.003008
0.035979
0.031257
0.043533
0.037624
-0.003459
0.046648
-0.041545
-0.040652
-0.024924
-0.037708
-0.006490
-0.011052
-0.007816
-0.034755
-0.036524
-0.005207
-0.003728
-0.037208
-0.042833
-0.000426
-0.000820
-0.040307
-0.012007
-0.044582
-0.031895
-0.030871
-0.034794
-0.013105
0.004980
0.009835
0.012277
-0.013267
-0.032777
-0.035693
-0.003078
0.034235
-0.002090
0.023024
0.021245
0.025435
0.026892
0.019932
0.023151
-0.039256
-0.037579
-0.048724
0.026566
-0.031862
-0.002402
-0.001210
0.015263
-0.046338
0.022592
-0.005854
-0.005001
0.013057
0.019549
-0.050528
-0.061077
-0.007717
0.043770
-0.016473
0.027203
0.021056
-0.065240
-0.058272
-0.047177
0.054560
0.047581
-0.032379
-0.032352
-0.036736
0.014375
-0.018558
0.038021
0.000654
-0.007766
0.037246
0.021762
-0.045897
-0.065002
0.009072
-0.005619
-0.002787
-0.008176
0.024069
0.031188
0.013153
-0.020508
-0.024584
0.032251
0.012073
-0.042944
-0.042367
-0.045498
0.014239
0.024424
-0.043347
0.027584
0.032292
-0.033106
0.040025
0.026151
-0.039156
-0.041328
0.026557
-0.043810
-0.044135
-0.034638
0.001666
-0.004694
-0.007701
0.008725
-0.016490
0.038739
-0.038264
-0.037215
-0.029147
0.021068
-0.031979
-0.024400
-0.021854
0.027725
0.026134
-0.034418
-0.036042
-0.017746
0.015362
-0.038525
0.033692
-0.028315
0.029610
0.029435
0.029595
0.031165
0.023147
0.020775
0.024954
-0.026432
0.007995
-0.008020
0.011694
-0.021445
-0.020503
0.002181
0.004401
-0.040587
-0.033779
-0.030128
0.029069
0.028815
0.005671
0.027131
0.019707
-0.027862
-0.029545
0.006571
0.026697
0.005133
-0.036305
-0.036729
0.025955
0.022879
SCALARS UY float 1
LOOKUP_TABLE default
-0.000000
-0.000000
-0.390000
-0.390000
-0.112115
-0.274692
-0.000000
-0.000000
-0.000000
-0.000000
-0.000000
-0.000000
-0.000000
-0.000000
-0.000000
-0.048923
-0.088529
-0.126012
-0.161843
-0.196144
-0.230032
-0.265381
-0.304524
-0.346730
-0.390000
-0.390000
-0.390000
-0.390000
-0.390000
-0.390000
-0.390000
-0.390000
-0.390000
-0.349540
-0.309629
-0.270719
-0.233519
-0.198651
-0.165108
-0.131119
-0.093376
-0.051027
-0.116553
-0.120761
-0.124804
-0.126084
-0.129869
-0.133745
-0.135029
-0.138280
-0.141672
-0.145269
-0.147214
-0.149863
-0.152472
-0.155727
-0.157915
-0.160703
-0.163104
-0.166131
-0.169781
-0.171386
-0.174824
-0.176701
-0.179594
-0.183661
-0.186397
-0.187924
-0.191290
-0.193690
-0.197104
-0.199709
-0.203400
-0.203991
-0.207754
-0.210910
-0.212352
-0.216259
-0.220046
-0.221583
-0.226028
-0.228332
-0.231739
-0.233390
-0.235828
-0.240051
-0.242879
-0.246010
-0.247903
-0.252333
-0.254442
-0.257640
-0.262816
-0.264244
-0.269740
-0.239837
-0.243763
-0.244355
-0.249441
-0.112388
-0.114411
-0.107613
-0.142869
-0.139369
-0.138402
-0.333441
-0.358316
-0.332429
-0.133422
-0.164941
-0.160736
-0.158822
-0.352821
-0.154773
-0.156306
-0.154397
-0.167020
-0.183514
-0.158895
-0.184832
-0.083533
-0.095730
-0.092917
-0.284610
-0.288730
-0.281106
-0.024073
-0.032188
-0.053595
-0.282498
-0.137926
-0.135320
-0.145317
-0.126833
-0.157576
-0.162328
-0.125765
-0.121867
-0.118974
-0.160308
-0.155151
-0.116444
-0.221440
-0.219794
-0.217954
-0.173220
-0.176336
-0.179515
-0.226967
-0.224893
-0.218745
-0.180808
-0.194254
-0.181403
-0.154983
-0.159867
-0.162996
-0.181723
-0.175053
-0.195165
-0.289656
-0.299305
-0.287352
-0.154657
-0.093463
-0.078267
-0.215275
-0.125114
-0.127210
-0.223632
-0.218893
-0.120018
-0.257940
-0.260395
-0.249773
-0.267793
-0.225365
-0.231026
-0.195589
-0.191452
-0.191570
-0.204340
-0.210341
-0.207866
-0.186525
-0.257194
-0.262106
-0.262246
-0.217447
-0.162903
-0.163184
-0.159190
-0.154960
-0.159357
-0.162005
-0.200704
-0.198620
-0.199182
-0.200782
-0.154932
-0.164058
-0.175480
-0.159110
-0.257610
-0.265451
-0.258409
-0.213627
-0.167155
-0.158140
-0.160270
-0.164646
-0.252384
-0.246057
-0.330795
-0.361332
-0.356958
-0.220733
-0.201135
-0.207632
-0.279277
-0.281898
-0.288119
-0.282843
-0.181453
-0.188847
-0.185065
-0.126719
-0.122450
-0.116258
-0.231695
-0.238973
-0.187498
-0.194036
-0.188496
-0.194130
-0.184857
-0.216229
-0.221991
-0.218101
-0.159613
-0.160680
-0.167145
-0.159437
-0.150128
-0.154016
-0.253569
-0.260312
-0.254903
-0.260453
-0.128491
-0.123381
-0.128040
-0.122479
-0.249054
-0.256219
-0.223616
-0.220908
-0.216047
-0.133515
-0.127361
-0.118586
-0.130449
-0.134303
-0.089433
-0.095441
-0.091332
-0.252436
-0.262238
-0.245418
-0.253810
-0.247226
-0.239494
-0.239260
-0.185059
-0.183713
-0.189792
-0.255309
-0.247068
-0.216181
-0.189923
-0.172129
-0.145029
-0.143404
-0.149679
-0.178969
-0.172900
-0.182847
-0.175860
-0.195541
-0.189191
-0.192955
-0.192182
-0.224716
-0.221617
-0.219165
-0.225400
-0.131693
-0.135792
-0.138633
-0.201711
-0.204622
-0.196874
-0.101259
-0.096309
-0.168358
-0.169391
-0.169981
-0.169291
-0.177262
-0.113187
-0.110733
-0.113009
-0.120855
-0.115399
-0.163841
-0.145714
-0.148493
-0.152126
-0.318945
-0.307172
-0.309975
-0.104139
-0.215544
-0.081498
-0.082078
-0.069640
-0.120423
-0.118422
-0.126310
-0.018424
-0.022566
-0.038607
-0.071101
-0.058275
-0.205566
-0.205760
-0.196311
-0.063445
-0.072306
-0.085802
-0.128542
-0.133013
-0.140611
-0.148320
-0.245880
-0.242057
-0.240609
-0.315224
-0.303023
-0.249666
-0.165013
-0.142874
-0.156675
-0.264063
-0.266881
-0.257593
-0.303450
-0.297264
-0.244260
-0.255033
-0.168417
-0.177657
-0.171558
-0.181117
-0.161488
-0.167290
-0.186027
-0.037342
-0.032387
-0.052080
-0.047616
-0.138953
-0.143923
-0.170861
-0.149825
-0.227647
-0.210826
-0.367327
-0.342684
-0.209006
-0.208985
-0.188637
-0.200100
-0.239542
-0.243796
-0.269147
-0.247012
-0.084815
-0.253573
-0.262372
-0.271486
-0.251004
-0.251901
-0.253193
-0.263738
-0.126313
-0.148492
-0.228948
-0.265065
-0.246991
-0.291189
-0.074295
-0.070003
-0.061361
-0.241964
-0.251015
-0.240286
-0.082931
-0.142766
-0.131216
-0.131030
-0.171923
-0.106885
-0.108086
-0.109863
-0.105420
-0.115617
-0.326166
-0.334094
-0.232887
-0.319865
-0.297451
-0.307831
-0.243041
-0.237178
-0.291410
-0.232766
-0.120426
-0.234838
-0.140314
-0.150317
-0.131768
-0.313848
-0.057077
-0.053549
-0.046105
-0.111038
-0.078986
-0.356020
-0.327264
-0.134230
-0.029347
-0.054947
-0.123105
-0.124916
-0.090451
-0.300815
-0.297676
-0.315851
-0.172906
-0.178884
-0.257505
-0.267711
-0.187672
-0.183995
-0.287821
-0.282755
-0.260106
-0.193315
-0.186921
-0.288473
-0.296409
-0.292241
-0.163348
-0.171755
-0.030709
-0.141283
-0.132968
-0.014726
-0.046648
-0.020342
-0.023695
-0.143733
-0.214730
-0.156482
-0.213107
-0.241481
-0.224348
-0.236936
-0.239203
-0.232084
-0.249313
-0.199623
-0.199112
-0.216733
-0.221852
-0.266535
-0.271436
-0.223539
-0.238883
-0.213598
-0.196532
-0.209098
-0.218754
-0.066353
-0.061509
-0.308764
-0.292074
-0.184700
-0.188218
-0.191272
-0.183374
-0.278539
-0.208789
-0.214290
-0.212387
-0.222129
-0.205467
-0.195952
-0.268556
-0.271239
-0.114682
-0.110026
-0.250600
-0.230917
-0.244155
-0.216995
-0.043247
-0.102965
-0.099198
-0.298747
-0.194073
-0.186949
-0.261543
-0.262919
-0.251479
-0.242251
-0.135896
-0.131469
-0.140531
-0.134376
-0.364606
-0.340883
-0.343849
-0.125837
-0.361445
-0.240180
-0.242014
-0.100561
-0.093559
-0.100267
-0.141545
-0.139417
-0.098219
-0.132905
-0.143737
-0.143919
-0.142953
-0.265492
-0.271596
-0.163050
-0.172345
-0.134794
-0.240253
-0.243586
-0.220684
-0.221445
-0.253726
-0.233418
-0.242252
-0.248649
-0.208583
-0.217447
-0.269366
-0.276603
-0.192477
-0.131638
-0.124668
-0.277276
-0.283890
-0.236266
-0.240304
-0.237215
-0.165219
-0.325832
-0.313281
-0.252737
-0.114217
-0.265728
-0.271865
-0.271750
-0.222512
-0.223418
-0.230059
-0.102730
-0.183334
-0.278430
-0.271580
-0.319600
-0.334028
-0.104068
-0.142115
-0.144585
-0.145755
-0.207789
-0.205838
-0.204549
-0.211840
-0.116907
-0.099022
-0.096633
-0.158183
-0.261857
-0.224945
-0.177515
-0.075584
-0.232289
-0.221382
-0.115555
-0.231210
-0.229120
-0.235471
-0.234600
-0.093086
-0.210253
-0.149395
-0.145581
-0.277683
-0.068910
-0.076445
-0.048755
-0.094799
-0.065562
-0.168341
-0.322139
-0.339659
-0.318940
-0.339595
-0.295901
-0.158276
-0.135878
-0.229153
-0.232802
-0.229246
-0.227897
-0.249934
-0.095006
-0.098410
-0.146585
-0.150492
-0.151587
-0.152307
-0.149519
-0.151625
-0.155193
-0.139798
-0.279109
-0.150175
-0.096306
-0.115034
-0.126600
-0.114070
-0.232580
-0.204787
-0.201538
-0.149593
-0.179515
-0.174796
-0.275100
-0.226685
-0.225694
-0.108628
-0.231217
-0.096921
-0.076947
-0.095323
-0.304443
-0.151376
-0.104978
-0.225488
-0.221262
-0.230700
-0.303662
-0.262130
-0.208678
-0.203471
-0.207497
-0.253062
-0.205065
-0.159321
-0.258911
-0.105690
-0.179000
-0.173411
-0.232431
-0.109407
-0.233676
-0.229244
-0.110576
-0.221421
-0.205941
-0.100994
-0.085413
-0.098695
-0.104095
-0.192370
-0.301450
-0.290862
-0.281848
-0.277111
-0.210797
-0.198702
-0.200040
-0.237008
-0.179879
-0.283948
-0.275464
-0.277006
-0.220219
-0.214260
-0.278057
-0.285017
-0.164410
-0.168236
-0.131481
-0.285903
-0.198875
-0.267880
-0.195238
-0.200077
-0.203348
-0.207075
-0.323654
-0.116993
-0.104985
-0.102323
-0.279241
-0.210891
-0.203621
-0.081510
-0.231081
-0.092709
-0.179260
-0.176100
-0.171052
-0.176896
-0.173635
-0.282839
-0.200577
-0.204217
-0.152668
-0.163369
-0.227658
-0.292713
-0.057120
-0.334844
-0.151297
-0.363043
-0.073017
-0.090418
-0.031876
-0.037335
-0.355379
-0.352603
-0.091003
-0.231927
-0.034613
-0.062501
-0.062890
-0.146745
-0.320915
-0.320232
-0.269760
-0.267657
-0.192612
-0.197152
-0.199240
-0.359911
-0.066648
-0.193505
-0.101554
-0.289657
-0.166127
-0.319864
-0.119660
-0.297461
-0.290346
-0.097408
-0.098166
-0.248857
-0.287514
-0.120058
-0.124095
-0.277633
-0.266925
-0.272589
-0.157338
-0.148773
-0.151483
-0.154410
-0.275007
-0.112989
-0.143757
-0.198433
-0.272467
-0.226089
-0.238603
-0.150087
-0.117775
-0.122692
-0.160450
-0.126103
-0.126698
-0.180153
-0.134377
-0.120703
-0.119747
-0.146276
-0.236541
-0.206824
-0.199190
-0.194785
-0.263137
-0.154802
-0.111260
-0.220168
-0.222500
-0.170382
-0.166150
-0.211827
-0.208218
-0.110536
-0.139799
-0.169623
-0.276432
-0.237286
-0.212029
-0.186129
-0.180860
-0.184040
-0.194074
-0.184359
-0.165073
-0.203350
-0.158138
-0.243581
-0.171208
-0.106241
-0.204786
-0.139040
-0.146989
-0.138024
-0.186440
-0.187352
-0.217086
-0.176193
-0.139541
-0.171232
-0.169102
-0.208473
-0.212759
-0.255037
-0.193646
-0.142686
-0.212226
-0.208930
-0.168042
-0.171342
SCALARS DAMAGE float 1
LOOKUP_TABLE default
0.999971
0.999972
0.999979
0.999981
0.000000
0.000000
0.999982
0.999986
0.999988
0.999989
0.999989
0.999988
0.999986
0.999985
0.999981
0.999977
0.999982
0.999985
0.999986
0.999986
0.999986
0.999984
0.999981
0.999979
0.999981
0.999983
0.999986
0.999987
0.999986
0.999985
0.999984
0.999983
0.999982
0.999981
0.999982
0.999983
0.999985
0.999986
0.999987
0.999985
0.999982
0.999973
-0.000000
0.000000
0.000000
0.000000
0.000000
0.000000
0.000000
0.000000
0.000000
0.000000
0.000000
0.000000
0.000000
0.000000
0.000000
0.000000
0.000000
0.000000
0.000000
0.000000
0.000000
0.000000
0.000000
0.000000
0.000000
0.000000
0.000000
0.000000
0.000000
0.000000
0.000000
0.000000
0.000000
0.000000
0.000000
0.000000
0.000000
0.000000
0.000000
0.000000
0.000000
0.000000
0.000000
0.000000
0.000000
0.000000
0.000000
0.000000
0.000000
0.000000
0.000000
0.000000
-0.000000
0.678586
0.728308
0.862987
0.890194
0.481507
0.344892
0.649608
0.685443
0.689958
0.857640
0.999984
0.999984
0.999983
0.879942
0.980457
0.977583
0.991740
0.999983
0.988744
0.443566
0.491329
0.999981
0.999983
0.999983
0.999983
0.999985
0.999962
0.999925
0.943750
0.987927
0.947280
0.999987
0.999986
0.999985
0.982004
0.999392
0.999866
0.999486
0.999924
0.970271
0.952891
0.901024
0.890100
0.970662
0.933836
0.955000
0.953441
0.820312
0.870490
0.763531
0.448055
0.444779
0.670093
0.433207
0.389613
0.708154
0.999796
0.999971
0.999965
0.748547
0.668619
0.466567
0.999969
0.999982
0.999983
0.999973
0.999984
0.999980
0.844362
0.999983
0.999986
0.751285
0.726547
0.752599
0.683875
0.868651
0.844885
0.999742
0.999940
0.999710
0.999944
0.811645
0.516074
0.798314
0.754524
0.638232
0.879401
0.761453
0.673308
0.496209
0.768708
0.834938
0.898405
0.539723
0.879065
0.775417
0.895596
0.930991
0.904137
0.978171
0.999983
0.999984
0.917997
0.970582
0.999982
0.999983
0.999982
0.807258
0.510081
0.827987
0.681267
0.790186
0.752039
0.744944
0.687497
0.869982
0.351008
0.474947
0.999981
0.999980
0.999982
0.999982
0.999982
0.999982
0.513407
0.484322
0.845193
0.747252
0.706952
0.439395
0.448527
0.544043
0.656976
0.834328
0.718182
0.392457
0.715363
0.881257
0.873502
0.957084
0.999982
0.887869
0.952108
0.948596
0.433435
0.382484
0.675749
0.999429
0.998368
0.996278
0.881089
0.967078
0.960659
0.985302
0.916162
0.966101
0.959927
0.983861
0.957848
0.987269
0.972703
0.939341
0.986312
0.955217
0.984103
0.999112
0.996325
0.999953
0.994799
0.977193
0.981070
0.999968
0.999533
0.999561
0.994410
0.717073
0.454036
0.373297
0.922778
0.971620
0.936956
0.475911
0.689645
0.999983
0.999984
0.999985
0.931613
0.978924
0.931612
0.992037
0.998475
0.997545
0.999710
0.630912
0.782390
0.823548
0.999979
0.726903
0.732596
0.541018
0.850546
0.525976
0.473288
0.730016
0.997073
0.985871
0.994930
0.955780
0.988016
0.999708
0.999939
0.981862
0.996217
0.976762
0.985941
0.977823
0.692260
0.366642
0.493458
0.703240
0.988844
0.994114
0.980953
0.999974
0.999719
1.000020
0.971019
0.462753
0.998507
0.999621
0.999969
0.994679
0.998708
0.994856
0.999989
0.999988
0.999988
0.999986
0.999987
0.997181
0.999402
0.996363
0.999986
0.999987
0.999985
0.999983
0.999983
0.999977
0.999982