# vtk DataFile Version 2.0
Test
ASCII
DATASET POLYDATA
POINTS 5816 float
0.000000 0.000000 0.000000
2.000000 0.000000 0.000000
2.000000 4.000000 0.000000
0.000000 4.000000 0.000000
0.000000 0.500000 0.000000
1.500000 2.000000 0.000000
2.000000 2.500000 0.000000
0.285714 0.000000 0.000000
0.571429 0.000000 0.000000
0.857143 0.000000 0.000000
1.142857 0.000000 0.000000
1.428571 0.000000 0.000000
1.714286 0.000000 0.000000
2.000000 0.275040 0.000000
2.000000 0.520628 0.000000
2.000000 0.739917 0.000000
2.000000 0.935725 0.000000
2.000000 1.110565 0.000000
2.000000 1.266683 0.000000
2.000000 1.406084 0.000000
2.000000 1.530557 0.000000
2.000000 1.641701 0.000000
2.000000 1.740944 0.000000
2.000000 1.829560 0.000000
2.000000 1.908686 0.000000
2.000000 1.979340 0.000000
2.000000 2.042428 0.000000
2.000000 2.098760 0.000000
2.000000 2.149060 0.000000
2.000000 2.193974 0.000000
2.000000 2.234078 0.000000
2.000000 2.269888 0.000000
2.000000 2.301863 0.000000
2.000000 2.330415 0.000000
2.000000 2.355908 0.000000
2.000000 2.378673 0.000000
2.000000 2.398999 0.000000
2.000000 2.417149 0.000000
2.000000 2.433355 0.000000
2.000000 2.447826 0.000000
2.000000 2.460747 0.000000
2.000000 2.472285 0.000000
2.000000 2.482587 0.000000
2.000000 2.491786 0.000000
2.000000 2.508637 0.000000
2.000000 2.519089 0.000000
2.000000 2.531737 0.000000
2.000000 2.547044 0.000000
2.000000 2.565568 0.000000
2.000000 2.587985 0.000000
2.000000 2.615113 0.000000
2.000000 2.647942 0.000000
2.000000 2.687670 0.000000
2.000000 2.735749 0.000000
2.000000 2.793931 0.000000
2.000000 2.864341 0.000000
2.000000 2.949549 0.000000
2.000000 3.052664 0.000000
2.000000 3.177450 0.000000
2.000000 3.328462 0.000000
2.000000 3.511210 0.000000
2.000000 3.732366 0.000000
1.714286 4.000000 0.000000
1.428571 4.000000 0.000000
1.142857 4.000000 0.000000
0.857143 4.000000 0.000000
0.571429 4.000000 0.000000
0.285714 4.000000 0.000000
0.000000 3.715673 0.000000
0.000000 3.453827 0.000000
0.000000 3.212685 0.000000
0.000000 2.990611 0.000000
0.000000 2.786096 0.000000
0.000000 2.597752 0.000000
0.000000 2.424300 0.000000
0.000000 2.264564 0.000000
0.000000 2.117457 0.000000
0.000000 1.981983 0.000000
0.000000 1.857220 0.000000
0.000000 1.742322 0.000000
0.000000 1.636510 0.000000
0.000000 1.539064 0.000000
0.000000 1.449323 0.000000
0.000000 1.366678 0.000000
0.000000 1.290567 0.000000
0.000000 1.220475 0.000000
0.000000 1.155925 0.000000
0.000000 1.096479 0.000000
0.000000 1.041733 0.000000
0.000000 0.991316 0.000000
0.000000 0.944886 0.000000
0.000000 0.902126 0.000000
0.000000 0.862748 0.000000
0.000000 0.826483 0.000000
0.000000 0.793086 0.000000
0.000000 0.762330 0.000000
0.000000 0.734005 0.000000
0.000000 0.707920 0.000000
0.000000 0.683898 0.000000
0.000000 0.661775 0.000000
0.000000 0.641402 0.000000
0.000000 0.622639 0.000000
0.000000 0.605360 0.000000
0.000000 0.589447 0.000000
0.000000 0.574792 0.000000
0.000000 0.561296 0.000000
0.000000 0.548868 0.000000
0.000000 0.537421 0.000000
0.000000 0.526881 0.000000
0.000000 0.517173 0.000000
0.000000 0.508233 0.000000
0.000000 0.491468 0.000000
0.000000 0.479827 0.000000
0.000000 0.463944 0.000000
0.000000 0.442273 0.000000
0.000000 0.412707 0.000000
0.000000 0.372368 0.000000
0.000000 0.317330 0.000000
0.000000 0.242238 0.000000
0.000000 0.139785 0.000000
0.005639 0.505639 0.000000
0.011278 0.511278 0.000000
0.016917 0.516917 0.000000
0.022556 0.522556 0.000000
0.028195 0.528195 0.000000
0.033835 0.533835 0.000000
0.039474 0.539474 0.000000
0.045113 0.545113 0.000000
0.050752 0.550752 0.000000
0.056391 0.556391 0.000000
0.062030 0.562030 0.000000
0.067669 0.567669 0.000000
0.073308 0.573308 0.000000
0.078947 0.578947 0.000000
0.084586 0.584586 0.000000
0.090226 0.590226 0.000000
0.095865 0.595865 0.000000
0.101504 0.601504 0.000000
0.107143 0.607143 0.000000
0.112782 0.612782 0.000000
0.118421 0.618421 0.000000
0.124060 0.624060 0.000000
0.129699 0.629699 0.000000
0.135338 0.635338 0.000000
0.140977 0.640977 0.000000
0.146617 0.646617 0.000000
0.152256 0.652256 0.000000
0.157895 0.657895 0.000000
0.163534 0.663534 0.000000
0.169173 0.669173 0.000000
0.174812 0.674812 0.000000
0.180451 0.680451 0.000000
0.186090 0.686090 0.000000
0.191729 0.691729 0.000000
0.197368 0.697368 0.000000
0.203008 0.703008 0.000000
0.208647 0.708647 0.000000
0.214286 0.714286 0.000000
0.219925 0.719925 0.000000
0.225564 0.725564 0.000000
0.231203 0.731203 0.000000
0.236842 0.736842 0.000000
0.242481 0.742481 0.000000
0.248120 0.748120 0.000000
0.253759 0.753759 0.000000
0.259398 0.759398 0.000000
0.265038 0.765038 0.000000
0.270677 0.770677 0.000000
0.276316 0.776316 0.000000
0.281955 0.781955 0.000000
0.287594 0.787594 0.000000
0.293233 0.793233 0.000000
0.298872 0.798872 0.000000
0.304511 0.804511 0.000000
0.310150 0.810150 0.000000
0.315789 0.815789 0.000000
0.321429 0.821429 0.000000
0.327068 0.827068 0.000000
0.332707 0.832707 0.000000
0.338346 0.838346 0.000000
0.343985 0.843985 0.000000
0.349624 0.849624 0.000000
0.355263 0.855263 0.000000
0.360902 0.860902 0.000000
0.366541 0.866541 0.000000
0.372180 0.872180 0.000000
0.377820 0.877820 0.000000
0.383459 0.883459 0.000000
0.389098 0.889098 0.000000
0.394737 0.894737 0.000000
0.400376 0.900376 0.000000
0.406015 0.906015 0.000000
0.411654 0.911654 0.000000
0.417293 0.917293 0.000000
0.422932 0.922932 0.000000
0.428571 0.928571 0.000000
0.434211 0.934211 0.000000
0.439850 0.939850 0.000000
0.445489 0.945489 0.000000
0.451128 0.951128 0.000000
0.456767 0.956767 0.000000
0.462406 0.962406 0.000000
0.468045 0.968045 0.000000
0.473684 0.973684 0.000000
0.479323 0.979323 0.000000
0.484962 0.984962 0.000000
0.490602 0.990602 0.000000
0.496241 0.996241 0.000000
0.501880 1.001880 0.000000
0.507519 1.007519 0.000000
0.513158 1.013158 0.000000
0.518797 1.018797 0.000000
0.524436 1.024436 0.000000
0.530075 1.030075 0.000000
0.535714 1.035714 0.000000
0.541353 1.041353 0.000000
0.546992 1.046992 0.000000
0.552632 1.052632 0.000000
0.558271 1.058271 0.000000
0.563910 1.063910 0.000000
0.569549 1.069549 0.000000
0.575188 1.075188 0.000000
0.580827 1.080827 0.000000
0.586466 1.086466 0.000000
0.592105 1.092105 0.000000
0.597744 1.097744 0.000000
0.603383 1.103383 0.000000
0.609023 1.109023 0.000000
0.614662 1.114662 0.000000
0.620301 1.120301 0.000000
0.625940 1.125940 0.000000
0.631579 1.131579 0.000000
0.637218 1.137218 0.000000
0.642857 1.142857 0.000000
0.648496 1.148496 0.000000
0.654135 1.154135 0.000000
0.659774 1.159774 0.000000
0.665414 1.165414 0.000000
0.671053 1.171053 0.000000
0.676692 1.176692 0.000000
0.682331 1.182331 0.000000
0.687970 1.187970 0.000000
0.693609 1.193609 0.000000
0.699248 1.199248 0.000000
0.704887 1.204887 0.000000
0.710526 1.210526 0.000000
0.716165 1.216165 0.000000
0.721805 1.221805 0.000000
0.727444 1.227444 0.000000
0.733083 1.233083 0.000000
0.738722 1.238722 0.000000
0.744361 1.244361 0.000000
0.750000 1.250000 0.000000
0.755639 1.255639 0.000000
0.761278 1.261278 0.000000
0.766917 1.266917 0.000000
0.772556 1.272556 0.000000
0.778195 1.278195 0.000000
0.783835 1.283835 0.000000
0.789474 1.289474 0.000000
0.795113 1.295113 0.000000
0.800752 1.300752 0.000000
0.806391 1.306391 0.000000
0.812030 1.312030 0.000000
0.817669 1.317669 0.000000
0.823308 1.323308 0.000000
0.828947 1.328947 0.000000
0.834586 1.334586 0.000000
0.840226 1.340226 0.000000
0.845865 1.345865 0.000000
0.851504 1.351504 0.000000
0.857143 1.357143 0.000000
0.862782 1.362782 0.000000
0.868421 1.368421 0.000000
0.874060 1.374060 0.000000
0.879699 1.379699 0.000000
0.885338 1.385338 0.000000
0.890977 1.390977 0.000000
0.896617 1.396617 0.000000
0.902256 1.402256 0.000000
0.907895 1.407895 0.000000
0.913534 1.413534 0.000000
0.919173 1.419173 0.000000
0.924812 1.424812 0.000000
0.930451 1.430451 0.000000
0.936090 1.436090 0.000000
0.941729 1.441729 0.000000
0.947368 1.447368 0.000000
0.953008 1.453008 0.000000
0.958647 1.458647 0.000000
0.964286 1.464286 0.000000
0.969925 1.469925 0.000000
0.975564 1.475564 0.000000
0.981203 1.481203 0.000000
0.986842 1.486842 0.000000
0.992481 1.492481 0.000000
0.998120 1.498120 0.000000
1.003759 1.503759 0.000000
1.009398 1.509398 0.000000
1.015038 1.515038 0.000000
1.020677 1.520677 0.000000
1.026316 1.526316 0.000000
1.031955 1.531955 0.000000
1.037594 1.537594 0.000000
1.043233 1.543233 0.000000
1.048872 1.548872 0.000000
1.054511 1.554511 0.000000
1.060150 1.560150 0.000000
1.065789 1.565789 0.000000
1.071429 1.571429 0.000000
1.077068 1.577068 0.000000
1.082707 1.582707 0.000000
1.088346 1.588346 0.000000
1.093985 1.593985 0.000000
1.099624 1.599624 0.000000
1.105263 1.605263 0.000000
1.110902 1.610902 0.000000
1.116541 1.616541 0.000000
1.122180 1.622180 0.000000
1.127820 1.627820 0.000000
1.133459 1.633459 0.000000
1.139098 1.639098 0.000000
1.144737 1.644737 0.000000
1.150376 1.650376 0.000000
1.156015 1.656015 0.000000
1.161654 1.661654 0.000000
1.167293 1.667293 0.000000
1.172932 1.672932 0.000000
1.178571 1.678571 0.000000
1.184211 1.684211 0.000000
1.189850 1.689850 0.000000
1.195489 1.695489 0.000000
1.201128 1.701128 0.000000
1.206767 1.706767 0.000000
1.212406 1.712406 0.000000
1.218045 1.718045 0.000000
1.223684 1.723684 0.000000
1.229323 1.729323 0.000000
1.234962 1.734962 0.000000
1.240602 1.740602 0.000000
1.246241 1.746241 0.000000
1.251880 1.751880 0.000000
1.257519 1.757519 0.000000
1.263158 1.763158 0.000000
1.268797 1.768797 0.000000
1.274436 1.774436 0.000000
1.280075 1.780075 0.000000
1.285714 1.785714 0.000000
1.291353 1.791353 0.000000
1.296992 1.796992 0.000000
1.302632 1.802632 0.000000
1.308271 1.808271 0.000000
1.313910 1.813910 0.000000
1.319549 1.819549 0.000000
1.325188 1.825188 0.000000
1.330827 1.830827 0.000000
1.336466 1.836466 0.000000
1.342105 1.842105 0.000000
1.347744 1.847744 0.000000
1.353383 1.853383 0.000000
1.359023 1.859023 0.000000
1.364662 1.864662 0.000000
1.370301 1.870301 0.000000
1.375940 1.875940 0.000000
1.381579 1.881579 0.000000
1.387218 1.887218 0.000000
1.392857 1.892857 0.000000
[...]
POINT_DATA 5816
SCALARS UX float 1
LOOKUP_TABLE default
0.005296
0.007255
-17716467.104342
-12540584.299370
-6303055.285755
9418733.942939
-1319859.033379
0.006486
0.009249
-0.012800
-0.011883
0.005043
-0.000096
3931957.307243
8219283.843979
12702430.002488
16348183.781714
18807415.161324
19853519.752223
20072876.907981
19199242.814050
17716227.496287
16547323.886429
14271926.913553
12264236.629968
10457663.859788
8784134.461477
7327134.738156
6131918.169141
5216075.620569
4271244.155244
3572198.474654
2809673.791291
2118114.868270
1699935.931016
1314655.013776
935794.769696
647285.404586
342142.703740
37873.579743
-137235.450043
-530997.725925
-911915.160731
-1089216.124923
-1560799.585597
-1832957.187372
-2137044.749820
-2447118.873363
-2864977.892519
-3274876.972077
-3794298.800275
-4161619.217023
-5334434.795316
-5965943.174723
-5055843.755395
-7919892.836529
-9498966.767038
-11889998.678028
-14901603.781250
-8636052.718502
-15115850.227790
-17455941.451723
-17028438.803219
-16988775.860611
-17211884.493729
-17263642.912441
-16242058.294458
-14628475.780760
-11890990.007008
-10664908.922922
-8553656.809219
-5960074.163817
-2969938.649123
245296.501872
3597948.561979
7085800.320282
10574981.525763
14029523.881224
17551837.101539
21244400.872719
25351793.990277
30200295.870224
35828928.037867
41572027.237275
49700508.327481
55620716.233014
60660789.094080
62990149.941357
61778283.777781
56757999.898227
49414065.339159
40344881.731194
30734620.008910
20467944.949102
9911434.405304
-722032.484205
-9895902.235290
-17267061.163322
-23037075.042204
-23772957.832005
-25215682.405658
-30244325.297381
-38753097.605065
-45791676.702783
-50086055.354794
-38862882.107913
-18918240.931484
-30819831.438229
-28318913.180818
-21405348.555985
10268898.149613
-6875034.235120
-8070642.265215
-11989229.591237
-34122400.870982
-86681805.493668
-162917687.761731
-25824335.142719
7398965.466755
616131.494939
-2417152.708773
89692.989476
532355.282730
1318243.688390
-8862555.243642
-20280750.683951
-19637534.346124
-21015859.709513
-5196762.914211
-23011308.942340
-26446052.606584
-28659027.264155
-28499098.506584
-26445534.059332
-26913833.289495
-27358912.204021
-30350835.726677
-32958391.172454
-40608855.397770
-47152963.809465
-28275204.025050
-28614296.552222
-26911698.310640
-26521082.964130
-25754214.354517
-21813417.106558
-27198024.774437
-30252485.026754
7832906.976490
-69649502.763372
-86270965.478347
-96516268.228188
-57902037.077273
71832743.804865
69224065.202573
63826079.676698
67079600.347319
89794917.436494
86177556.300492
-63539757.755156
-156826510.638365
-114409639.830161
-62560743.761314
-54069702.865166
-46207490.164839
-38747503.151232
-18527920.779622
-64051190.836177
85480754.028533
73602388.518939
102998063.543287
127977460.499659
137530993.848547
194214034.904048
-279246154.258803
-379454009.687884
-390879857.306773
125544619.357979
169252389.288445
122788643.728647
93920527.077095
77401077.921598
76528890.043809
55827223.613777
172229315.612595
-42422796.272333
-26040057.812301
-122367160.610486
-125037261.660210
-146722220.526844
-112942199.318462
4131399.830378
4772059.084354
79563345.285535
719388642.901050
1077754234.084845
1473968635.847552
286964587.979403
-138469971.726040
-60596718.754993
-31856380.517424
4921246.039609
21269448.335531
45743470.236703
42795540.265090
50799642.310999
54459299.949327
66422528.777933
50244737.493101
50437832.088587
54836153.584524
58618025.743728
81729760.601899
71674118.644217
71291658.453321
72726473.584146
74293962.157136
75726371.225367
87879612.070996
70502861.550089
34670496.483027
65921268.755626
50299825.880698
55905306.062879
52523004.606597
15632946.997547
22874443.339526
31540277.729175
46934069.063552
36058843.026173
26377297.397727
25156171.569360
36555561.821350
34974030.008275
33573203.047474
32222028.683364
31528903.794207
29649313.013343
29844876.661769
30136894.611392
31199214.128684
30523298.181697
32174758.183303
40085919.853648
39164286.390283
42371204.591888
25327701.638655
8758279.822972
-1846415.466065
5925635.964825
8379087.086312
9218295.396999
11232187.139935
15920421.957529
16801274.514940
16319965.481454
16636573.512672
16661699.713936
15887004.439227
14321210.235370
15255685.918818
14008516.620575
14448163.675690
4660148.092775
8107354.289191
-3696256.272598
-5942776.063601
-11060253.317792
-8778332.545393
-34426337.029865
-132309258.846133
-58583102.503861
-38179236.390940
-45058272.178675
74439363.758235
65470644.169101
112039339.716191
102166375.758610
112230333.529916
115809817.792039
70574803.802074
54713753.856017
53789825.415973
63407400.788492
81328183.387472
77739888.921274
79445517.999543
-17798173.834639
-10766827.306443
-3069566.166771
-4088928.695778
-8660464.882509
-18828108.424343
76806349.934422
66435693.225111
61492277.894839
59657823.130453
51726510.033326
51258071.195917
50227869.389289
43275805.285653
43117373.265192
41780201.249684
42941243.706106
27580035.128385
26848411.992846
27943171.530842
30060684.645732
29907652.231196
29479228.125587
29390209.610954
28656892.711457
27680213.539281
26134255.554499
26196757.422633
24376317.858106
23736076.363577
24019070.039778
24698745.462729
24105202.515271
20239669.418132
26972052.875813
25686768.564593
24435013.817981
25492305.090797
22047044.986838
19175508.741054
16745012.806169
16927830.003345
17471067.314353
18316033.260211
18189398.446888
17962335.948191
17877298.327111
19134758.456047
18969182.398139
19132091.351322
18964460.255882
18821479.517433
18803880.674572
18711971.476529
18608327.613514
18385087.526658
18251531.989144
18124728.259751
17879686.161934
17354442.227554
15679299.910996
17552250.124540
15963727.104264
16810153.002976
16113400.567779
15201503.807889
14918923.683327
13178519.713995
14186386.956480
6778424.267263
6143317.586676
14934119.003836
14770602.101486
16009536.324458
14830357.522710
15075035.983137
13811264.528519
16051962.036567
15634329.635978
12990460.462025
14973028.907887
14457443.750255
11684374.993474
11686293.438675
11545822.306184
11347410.281558
11056994.736264
10804790.518349
10817598.828891
10346033.470849
10254708.775261
10029393.008709
10005610.080784
10020154.848384
9874949.162514
9800928.956281
9741115.124483
9545177.241768
9502300.781314
9308739.329846
9192259.866155
9069083.997274
8944152.505414
8819526.094831
8695788.503040
8571727.029916
8447660.165054
8323308.373291
8198487.567787
8073576.512009
7948549.603104
7823070.201240
7697081.742736
7571027.736123
7444612.348855
7317912.008414
7191097.440633
7063927.307051
6936630.312950
6809145.309564
6681530.255841
6553980.024612
6426333.115374
6298622.849733
6171048.924021
6043632.760487
5916375.798292
5789241.641760
5662448.255046
5536053.408176
5410054.106727
5284329.461915
5159186.114350
5034640.949074
4910590.920616
4787159.598134
4664503.346859
4542702.096171
4421532.752495
4301176.212893
4181720.463767
4063224.432151
3945453.540989
3829034.473781
3714737.960125
3603401.684812
3497925.126251
3413081.811472
3263023.447435
3136506.191272
3043818.782506
2929464.635791
2830811.434886
2842684.660929
2889852.558278
2455551.824834
2197192.085135
2088887.220263
1993457.268010
1938671.298751
1793083.026961
1681520.676338
1584141.872074
1485228.019728
1357659.673856
1260680.556679
1119307.556542
1013268.214800
900483.292083
816255.702770
725101.800030
630168.444624
525843.277989
428933.380402
333002.795537
222022.710916
98472.261134
80224.483059
-160030.685535
-187409.778840
-221944.573696
-404183.419654
-489536.097278
-1053080.756236
-1018685.463455
-1169598.335117
11430124.655725
13563750.339805
12464460.158785
12449444.652945
13879673.545663
12920414.213294
14208844.307246
13128949.495883
6625409.783763
7311196.536962
6660698.716782
10552256.900514
15296001.129627
18516588.658534
12538267.634396
10972972.984305
10820068.667181
9107766.895453
1432082.062547
1509320.770183
1314918.953715
1609619.188339
-5853027.133199
-58652008.758490
-2059698.282486
-20575399.631126
12541472.134938
2654635.036263
2683138.713113
2413851.009369
2348031.687731
32525552.560195
31258342.213293
26663015.293932
30826952.271771
21899368.596687
22152334.922009
23837008.788012
22297914.613174
37821801.657388
36658614.012731
40509420.390633
2966012.234655
2987520.976472
3408859.598592
3434143.358137
38400639.746469
16515387.433507
17012808.510417
17127035.376202
17634255.306486
9696382.218041
10050425.525938
10167649.548756
9540311.578364
9321860.636783
9315700.892975
8968215.406943
15926478.439560
19704003.700947
23957655.699155
34295189.705141
9586313.761984
42716693.933532
41411324.859686
33824045.560369
58456361.098818
96695689.045432
58679241.521981
98340722.482418
121542480.676086
167008846.797365
36075977.033656
2108254.930940
547369.912434
1885150.802094
15568982.702995
14704676.698346
15205003.204546
14638309.906688
-3080880.082517
-3451873.279628
-2896085.444082
-4030742.580711
-3963663.488876
-6890707.252609
-4393577.750910
-5263997.493789
24887556.889233
14125173.850869
63980159.006651
67682509.213753
69443855.322150
53132661.972570
16569909.524883
8809152.108507
12259117.244839
11256514.169560
68051895.943417
73446070.634324
70019780.461093
69851578.817093
-22495263.290103
-16502666.723529
-21629674.862450
-19892611.129643
-3586427.646031
-3217652.159521
-4036161.256452
45623330.671456
-391009028.260994
45888188.366114
50799087.850189
51856893.692124
46183419.566129
61312154.249858
87227052.913312
111004424.828578
22411831.353660
21522176.262480
22837774.897940
116240661.532593
19748518.186382
20836525.334322
18249301.156570
9911506.435351
10265375.510438
7338319.175675
8328533.397526
-9106275.481062
-10651679.259945
-11096678.168855
-9026308.943131
16653399.757010
15326704.908064
16353748.594487
16091198.057652
19816267.086281
19808714.192974
18022847.440571
18156332.017170
21276059.727332
19097675.510643
21118065.621863
26408233.411451
-1355438.844669
-1103567.795376
-1285387.190771
-1140313.632551
14239315.365553
12396676.282573
11802908.820448
12023334.149193
-305758.107803
-208875.266554
6061926.379878
7224019.204092
5886769.805210
7278092.798831
-2130552.982490
-2957579.979995
26752.704318
7251712.212213
57208132.010316
61191039.556285
56635805.741888
60403510.698431
7507963.277796
8216415.156724
7732645.328467
8331311.751454
-68227646.198670
40596598.153907
12004079.681342
64155557.391585
75497811.578013
87838888.016919
6892277.564322
7211721.419528
18685026.487261
20061675.542863
19375029.911130
7713461.694830
-57667797.150485
-110464427.097909
-77105812.887838
-1526999.552909
-1058131.503953
-341625.989051
-610481.049888
8649562.448901
25185895.023854
23818473.798099
22667899.912437
8482685.468200
8776176.802053
8865248.967340
16501168.422701
15886880.428608
16561511.049457
4628739.783976
4189274.977943
4917647.997123
16110906.190904
53016089.043306
62060633.677447
56991229.470033
22816082.946439
22310243.260887
22179895.738683
23233900.283283
6065124.049267
5913767.514644
6575205.122144
5783329.897406
5433128.560810
4907170.118536
5333976.364367
5259817.819904
7778742.908761
8127345.947697
8036935.726535
32303356.844174
29740005.996242
28048485.607635
55675256.688570
56251301.976284
53618019.146008
1608061.721091
1443866.306651
1741321.140400
1428510.257089
115063.817084
255676.620061
145192.537457
8355677.608656
13294746.521803
11177305.338396
12474260.793943
6968252.519822
6470494.783271
7260196.955646
-38904655.499164
-68475785.833154
-53166729.961614
-30124301.520615
81331855.287588
86865774.066704
89857132.203889
77409400.220882
10024300.095166
10542625.226692
10455522.680817
2997131.575845
2996483.919086
-1570338.171900
11042132.691858
942515.762698
695596.989319
980485.964072
30614459.576603
30064405.298533
31125967.282890
29685679.573784
2442235.146367
4533528.688845
3443868.253022
3434539.964248
3593820.660524
3148257.194554
10104704.462044
9824520.624112
4677379.043478
9869833.821893
166411004.839651
186598211.019574
143279701.329597
2030651.716945
1986171.785622
1673668.120940
1602389.141623
874793.822576
708756.869251
671880.047483
-43210303.905292
-29313250.598407
-13402898.227396
8900627.243721
9153905.683687
8881406.907269
9166028.966702
22084150.186506
23632288.449749
22180829.039586
-24085439.942349
26487411.615264
26123073.875261
26488691.092816
3218805.295302
3461563.593134
2938068.529261
11167380.068016
2983203.445512
10713632.921633
8742282.240104
4940374.395145
5248380.779507
5122241.894017
5092743.665750
25648082.107415
25476011.788170
25742997.417779
1058778.441479
1484205.628643
1102543.398759
24981652.037145
9009860.921923
9253733.299781
9285292.431713
1616519.483272
9096831.987945
5739865.114968
12826153.830318
11772837.239660
15682505.356389
16946963.010541
17160582.272556
17504214.601071
9776231.402597
9725216.103867
9851492.445043
9544749.971188
31933136.122579
30805105.143246
31667696.468520
29704712.942116
16434279.025720
34403828.156112
35020628.601292
29716714.787824
29835201.838359
29792923.139158
29576713.961590
29902483.406106
42624323.475442
2950443.723368
2561875.063262
2437275.699872
12525904.264143
10985665.914825
11783187.871092
23821183.122670
24035894.799188
25198825.414143
15392220.073328
15000362.872956
15033232.965947
15034920.302765
20190015.661506
18926850.962178
18572146.998747
19947208.959453
6778060.315000
6874993.640907
6540105.540758
15851116.671322
17254898.704490
16601239.921309
11288483.177639
11247563.696305
10689911.186466
16034374.106472
10769106.450641
25688393.700578
24791373.252419
24375522.903425
25145272.112053
253787.213305
63224807.493427
65944863.112347
61637451.578714
61413675.725809
36335888.903130
-40096091.005045
64903400.240614
47695247.848733
47213531.759065
117977595.156637
130060959.414446
54648886.361060
-7077371.170538
-6792606.067833
-7416247.265947
5441835.640405
5713632.479262
5738989.705093
7041545.984035
25127775.181741
27911448.262133
27165145.433485
-5877675.227489
-6753178.087228
-8953729.458663
-6779882.348785
-7484375.371478
5279628.708935
4883977.744021
2565791.820469
2391872.270326
2818392.600753
20634881.064784
19865037.464474
2640158.351503
23675944.326155
24292943.814547
23601157.798481
22681123.535600
88954731.187317
98505409.226147
53170457.875202
78190688.913789
77137239.137501
70939628.722334
87350615.736011
8699433.978218
8478257.034046
8744629.535717
1572523.477016
1859488.877351
1633176.156231
-277601.622911
-22.156985
663493.777359
18054622.295033
17991377.528904
16994337.626079
16606494.411208
846883.211077
19006740.008375
18933771.125517
14501147.742100
15182241.204826
10292598.562376
10844699.149126
10466391.031606
1101218.176272
1535679.237428
1100924.262843
20489193.502451
22180340.871166
21092421.658502
1719732.042483
546511.400117
505401.107047
21593032.690307
21868251.973114
23607248.165093
22360179.343290
31031761.619635
32153557.916342
31196538.996019
26951411.322685
26920335.136616
26826958.688365
26838641.038808
73408849.371651
-130465327.394735
-202077233.351369
-396557859.144903
13179950.773783
13224759.753216
14634644.553537
13722354.197000
4028679.942253
3741255.234300
3885340.683523
7738442.874007
7626423.465039
204392795.909767
37516634.715797
111083330.029780
30308040.001983
71591294.237247
25533035.474599
25209892.188259
4749740.004240
4553859.077226
4796306.242009
4581655.554664
58694439.323487
66082659.196454
45659699.678632
65229196.603807
61718205.052592
9677817.791744
9520199.028104
9499798.201219
19687748.036690
33189162.527417
30056283.279722
31893937.342608
16949739.295573
39296852.080799
68892596.944679
81989332.124355
30257605.241643
29759213.482185
12833420.492635
11118033.153616
12602883.636624
10621091.707751
26784209.051629
17614312.254999
30983771.055085
9577830.676926
9447471.108629
-13472223.024252
-4757281.090646
-23246565.178913
19030381.117548
21150583.539821
20337735.719841
21681751.524196
31240012.263992
33087507.303956
28108789.865155
1920326.823251
1741013.190845
-24842437.851805
-22679498.679114
65068108.822657
66007287.973892
63790170.638695
9636999.242003
9724158.641803
9831444.232671
30848174.661808
36637291.550413
32364506.752568
641951.357149
1179081.286801
1194419.071890
27174233.225889
33029764.122116
31154655.690837
9890107.079210
14780848.915769
13892608.481037
30523503.825763
1133240446.886292
-138992728.992305
545147913.917279
5279790.761170
5095153.786916
26625399.400783
26076840.682410
25813753.578540
25258200.714381
27902727.567073
26208728.575219
5383340.189489
27479835.926442
23680149.178198
28436934.552895
25998487.591777
29522714.654541
24868965.820601
25235376.654040
24397761.985945
59073714.395276
65151769.885167
43458000.177642
77980368.451295
737134373.640604
328837613.628109
26758253.469843
99511455.745937
24728437.914844
25284152.741458
23259155.511665
21284197.509054
19676903.328371
21864493.863404
1373132.617706
1269512.477738
1165960.214329
1073593.164722
95190095.762670
90974094.965363
80146512.357504
9139129.927962
9119181.463586
8966914.524028
45956903.682281
43085428.194119
6544332.118593
6384245.768310
6452606.262775
-68777298.703617
-47810609.320390
6273280.792492
24544155.419016
867244.167925
299081.253271
59569445.142059
59525656.942023
42013492.442290
43564157.498430
62283187.340385
73542559.562786
22090460.036997
22381054.118901
25641506.166807
22827682.143651
29104308.731795
22910700.696730
25870721.713002
505200.362816
86366.476026
1311203.192664
23585638.726253
25121785.576749
24928286.625752
5673109.928075
5299720.673988
24238356.114957
18261180.343499
18156998.673893
18358363.302326
3773740.893011
87920879.353317
12816804.159762
37195615.994907
39078714.113833
7736714.294607
7922715.807559
7685608.073144
34198924.770416
34082880.175518
23994215.387274
24485992.056864
14952330.235035
155930959.385214
9365454.744030
9370027.099936
9562066.719331
2914782.389878
2830447.088266
-4425795.639840
-4036538.181125
-3531395.050081
9453869.011400
9404029.890612
9350102.607963
-3001488.386980
30425697.842693
30632840.610149
29799383.023624
11386055.107784
-3037133.742895
28606981.154874
28101206.178350
28051253.738769
29672037.857555
27999784.268226
28519586.204287
27676549.086182
14722836.770132
13861172.595609
15094451.484779
27770124.177526
25203942.903976
10864832.591115
13122566.217145
13607186.362952
74621441.905489
81331346.154262
72424807.756239
73921668.460480
3461233.450362
3210955.486032
3360899.771462
13214101.872159
13958577.005192
12454701.994632
2523709.408886
12257717.760356
12559813.213026
11776986.434257
25120573.815474
24481529.486827
23968852.378733
8328294.050615
8240139.964102
8476650.879283
1243355.857739
80022466.634215
79542650.021992
74875893.982634
74995513.181335
83610262.141569
82360701.367402
36749145.881565
3049372.567460
35359833.156689
28255569.002157
-28498360.980922
-29600972.623843
-30758420.974607
14663381.040878
17440817.532347
16673203.152833
17506467.870143
17641627.995584
16052520.490944
7379904.506846
6993282.299092
7303873.568440
6924621.921822
15291955.466023
67322701.162362
3889253.500209
3714271.970112
3643242.110156
-28524456.418794
-29003021.666085
-29137297.843897
24849515.597427
28154292.901766
29305378.021762
25824975.055072
25860048.747153
2640072.773192
2950655.408653
2898966.890408
211489231.750806
115453790.138783
141009722.783392
90339311.001424
13212901.546502
12334624.436525
12087371.733177
11729631.538471
8679764.524748
8838642.107661
8995627.229186
8393749.189653
17555900.078621
17795975.570295
17545598.692412
2643189.852058
3194049.447076
17793619.039524
74837197.563546
73392339.952934
18149730.710502
19407384.519523
14518658.582124
17950676.999807
6575960.192310
6961964.011036
6563074.862454
6918983.491908
6170619.705404
6659587.749962
17287530.036742
6298965.502215
13060911.305731
14006686.928497
15053360.996627
10644121.677770
9097015.429159
9911301.634032
7670068.359732
12012624.840669
12402067.036454
103988755.180717
93544599.578641
92361054.958913
11012829.846022
110475469.383160
119132291.018828
107026370.023288
28051623.446634
25052426.737011
11295375.384287
11706552.704469
15933321.754360
21332430.022842
27692501.350212
29606361.809506