# vtk DataFile Version 2.0
Test
ASCII
DATASET POLYDATA
POINTS 858 float
0.000000 0.000000 0.000000
1.000000 0.000000 0.000000
1.000000 1.000000 0.000000
0.000000 1.000000 0.000000
0.300000 0.330000 0.000000
0.700000 0.680000 0.000000
0.100000 0.000000 0.000000
0.200000 0.000000 0.000000
0.300000 0.000000 0.000000
0.400000 0.000000 0.000000
0.500000 0.000000 0.000000
0.600000 0.000000 0.000000
0.700000 0.000000 0.000000
0.800000 0.000000 0.000000
0.900000 0.000000 0.000000
1.000000 0.100000 0.000000
1.000000 0.200000 0.000000
1.000000 0.300000 0.000000
1.000000 0.400000 0.000000
1.000000 0.500000 0.000000
1.000000 0.600000 0.000000
1.000000 0.700000 0.000000
1.000000 0.800000 0.000000
1.000000 0.900000 0.000000
0.900000 1.000000 0.000000
0.800000 1.000000 0.000000
0.700000 1.000000 0.000000
0.600000 1.000000 0.000000
0.500000 1.000000 0.000000
0.400000 1.000000 0.000000
0.300000 1.000000 0.000000
0.200000 1.000000 0.000000
0.100000 1.000000 0.000000
0.000000 0.900000 0.000000
0.000000 0.800000 0.000000
0.000000 0.700000 0.000000
0.000000 0.600000 0.000000
0.000000 0.500000 0.000000
0.000000 0.400000 0.000000
0.000000 0.300000 0.000000
0.000000 0.200000 0.000000
0.000000 0.100000 0.000000
0.307407 0.336481 0.000000
0.314815 0.342963 0.000000
0.322222 0.349444 0.000000
0.329630 0.355926 0.000000
0.337037 0.362407 0.000000
0.344444 0.368889 0.000000
0.351852 0.375370 0.000000
0.359259 0.381852 0.000000
0.366667 0.388333 0.000000
0.374074 0.394815 0.000000
0.381481 0.401296 0.000000
0.388889 0.407778 0.000000
0.396296 0.414259 0.000000
0.403704 0.420741 0.000000
0.411111 0.427222 0.000000
0.418519 0.433704 0.000000
0.425926 0.440185 0.000000
0.433333 0.446667 0.000000
0.440741 0.453148 0.000000
0.448148 0.459630 0.000000
0.455556 0.466111 0.000000
0.462963 0.472593 0.000000
0.470370 0.479074 0.000000
0.477778 0.485556 0.000000
0.485185 0.492037 0.000000
0.492593 0.498519 0.000000
0.500000 0.505000 0.000000
0.507407 0.511481 0.000000
0.514815 0.517963 0.000000
0.522222 0.524444 0.000000
0.529630 0.530926 0.000000
0.537037 0.537407 0.000000
0.544444 0.543889 0.000000
0.551852 0.550370 0.000000
0.559259 0.556852 0.000000
0.566667 0.563333 0.000000
0.574074 0.569815 0.000000
0.581481 0.576296 0.000000
0.588889 0.582778 0.000000
0.596296 0.589259 0.000000
0.603704 0.595741 0.000000
0.611111 0.602222 0.000000
0.618519 0.608704 0.000000
0.625926 0.615185 0.000000
0.633333 0.621667 0.000000
0.640741 0.628148 0.000000
0.648148 0.634630 0.000000
0.655556 0.641111 0.000000
0.662963 0.647593 0.000000
0.670370 0.654074 0.000000
0.677778 0.660556 0.000000
0.685185 0.667037 0.000000
0.692593 0.673519 0.000000
0.548037 0.570873 0.000000
0.554453 0.579695 0.000000
0.540788 0.582045 0.000000
0.550492 0.594703 0.000000
0.338797 0.350505 0.000000
0.329823 0.347064 0.000000
0.335712 0.339262 0.000000
0.451687 0.438509 0.000000
0.442642 0.430741 0.000000
0.457884 0.427703 0.000000
0.387297 0.847474 0.000000
0.374793 0.914734 0.000000
0.332869 0.847471 0.000000
0.447069 0.415163 0.000000
0.567391 0.482596 0.000000
0.554659 0.473874 0.000000
0.567453 0.464800 0.000000
0.301190 0.902112 0.000000
0.551747 0.457138 0.000000
0.356532 0.391813 0.000000
0.347986 0.386048 0.000000
0.176207 0.429241 0.000000
0.128375 0.468105 0.000000
0.136378 0.404291 0.000000
0.185621 0.475277 0.000000
0.497512 0.261165 0.000000
0.499167 0.296032 0.000000
0.469918 0.291504 0.000000
0.642232 0.687989 0.000000
0.624295 0.701188 0.000000
0.630549 0.678643 0.000000
0.647682 0.074905 0.000000
0.700945 0.096046 0.000000
0.657288 0.160421 0.000000
0.611443 0.684403 0.000000
0.559779 0.406431 0.000000
0.582162 0.394521 0.000000
0.580552 0.422827 0.000000
0.560788 0.374759 0.000000
0.541503 0.468043 0.000000
0.545465 0.480978 0.000000
0.428301 0.394826 0.000000
0.414860 0.384611 0.000000
0.432086 0.374027 0.000000
0.533961 0.477886 0.000000
0.527361 0.464336 0.000000
0.415481 0.368142 0.000000
0.484401 0.527206 0.000000
0.472984 0.524144 0.000000
0.481205 0.518972 0.000000
0.394266 0.424909 0.000000
0.401826 0.431399 0.000000
0.392742 0.434502 0.000000
0.642418 0.617836 0.000000
0.635302 0.612878 0.000000
0.644322 0.605726 0.000000
0.263646 0.464175 0.000000
0.250486 0.498376 0.000000
0.230296 0.467342 0.000000
0.491693 0.468898 0.000000
0.498004 0.479972 0.000000
0.487381 0.480785 0.000000
0.718619 0.489140 0.000000
0.756680 0.466072 0.000000
0.751564 0.516847 0.000000
0.497232 0.719177 0.000000
0.477497 0.748035 0.000000
0.465924 0.716726 0.000000
0.501292 0.467390 0.000000
0.529064 0.285755 0.000000
0.547173 0.240449 0.000000
0.474742 0.511943 0.000000
0.403118 0.392815 0.000000
0.412434 0.399392 0.000000
0.653057 0.614785 0.000000
0.659187 0.602396 0.000000
0.400247 0.379451 0.000000
0.459133 0.636583 0.000000
0.434636 0.647284 0.000000
0.440667 0.616932 0.000000
0.453650 0.664799 0.000000
0.666296 0.616100 0.000000
0.657731 0.628197 0.000000
0.420489 0.468863 0.000000
0.414183 0.459489 0.000000
0.424065 0.460120 0.000000
0.629321 0.574616 0.000000
0.630370 0.589442 0.000000
0.617226 0.584388 0.000000
0.422026 0.450877 0.000000
0.590180 0.614274 0.000000
0.596278 0.627413 0.000000
0.585881 0.628067 0.000000
0.630677 0.603443 0.000000
0.529117 0.486095 0.000000
0.517046 0.488781 0.000000
0.522040 0.477224 0.000000
0.308641 0.392803 0.000000
0.323746 0.398675 0.000000
0.304273 0.411173 0.000000
0.146020 0.514086 0.000000
0.087335 0.505198 0.000000
0.624982 0.561914 0.000000
0.643811 0.559907 0.000000
0.831909 0.406061 0.000000
0.881376 0.423788 0.000000
0.839177 0.457573 0.000000
0.509066 0.478681 0.000000
0.614792 0.620247 0.000000
0.608406 0.635616 0.000000
0.603251 0.619643 0.000000
0.640290 0.595050 0.000000
0.524731 0.497540 0.000000
0.338689 0.392113 0.000000
0.347423 0.395876 0.000000
0.340116 0.407012 0.000000
0.686563 0.659098 0.000000
0.682555 0.651347 0.000000
0.934704 0.856355 0.000000
0.940546 0.930926 0.000000
0.863552 0.916423 0.000000
0.172107 0.566287 0.000000
0.188105 0.516551 0.000000
0.221330 0.532895 0.000000
0.683914 0.680068 0.000000
0.692945 0.685712 0.000000
0.683376 0.697853 0.000000
0.672414 0.683990 0.000000
0.557147 0.529227 0.000000
0.554161 0.540325 0.000000
0.546244 0.533101 0.000000
0.391911 0.394487 0.000000
0.387591 0.383772 0.000000
0.385780 0.368800 0.000000
0.671617 0.628861 0.000000
0.664093 0.637808 0.000000
0.408700 0.450928 0.000000
0.406517 0.467364 0.000000
0.394366 0.455525 0.000000
0.388841 0.472148 0.000000
0.792728 0.486062 0.000000
0.461047 0.516036 0.000000
0.460182 0.532753 0.000000
0.450617 0.523703 0.000000
0.364207 0.398120 0.000000
0.371344 0.402923 0.000000
0.362621 0.408449 0.000000
0.235276 0.413110 0.000000
0.235915 0.390376 0.000000
0.260894 0.399649 0.000000
0.564107 0.604249 0.000000
0.558497 0.625526 0.000000
0.545610 0.611482 0.000000
0.542035 0.628852 0.000000
0.441269 0.401429 0.000000
0.443649 0.385779 0.000000
0.454140 0.398188 0.000000
0.456246 0.380948 0.000000
0.531090 0.597071 0.000000
0.528592 0.618783 0.000000
0.693800 0.600685 0.000000
0.675646 0.601117 0.000000
0.688895 0.583493 0.000000
0.466943 0.412411 0.000000
0.469666 0.393398 0.000000
0.215629 0.311290 0.000000
0.236374 0.342186 0.000000
0.194357 0.347185 0.000000
0.372859 0.289727 0.000000
0.362694 0.307734 0.000000
0.346245 0.295576 0.000000
0.824768 0.656091 0.000000
0.787989 0.680173 0.000000
0.787481 0.637866 0.000000
0.763354 0.658567 0.000000
0.564845 0.587843 0.000000
0.565674 0.575091 0.000000
0.575285 0.580662 0.000000
0.591463 0.532694 0.000000
0.606735 0.524365 0.000000
0.606700 0.541268 0.000000
0.696107 0.663701 0.000000
0.695223 0.651919 0.000000
0.114270 0.553146 0.000000
0.897846 0.490106 0.000000
0.941355 0.438159 0.000000
0.491870 0.442127 0.000000
0.508682 0.433741 0.000000
0.504276 0.453072 0.000000
0.616608 0.507977 0.000000
0.629719 0.487283 0.000000
0.643435 0.510566 0.000000
0.660659 0.486926 0.000000
0.584650 0.557787 0.000000
0.582076 0.545531 0.000000
0.595086 0.552412 0.000000
0.215445 0.494211 0.000000
0.502563 0.534321 0.000000
0.493623 0.527201 0.000000
0.502900 0.523550 0.000000
0.490744 0.536689 0.000000
0.303740 0.348241 0.000000
0.312638 0.354325 0.000000
0.302746 0.359450 0.000000
0.683727 0.548378 0.000000
0.666144 0.562133 0.000000
0.663581 0.542222 0.000000
0.366098 0.324774 0.000000
0.379406 0.309842 0.000000
0.251675 0.434611 0.000000
0.214900 0.437402 0.000000
0.581091 0.493223 0.000000
0.603283 0.484739 0.000000
0.593195 0.510449 0.000000
0.429738 0.356510 0.000000
0.412970 0.350726 0.000000
0.358920 0.356811 0.000000
0.352460 0.366146 0.000000
0.347463 0.357590 0.000000
0.353794 0.402394 0.000000
0.527483 0.436280 0.000000
0.546965 0.439869 0.000000
0.535210 0.453469 0.000000
0.624606 0.790385 0.000000
0.614250 0.755688 0.000000
0.654837 0.763041 0.000000
0.384960 0.332814 0.000000
0.619946 0.597007 0.000000
0.358705 0.265521 0.000000
0.397502 0.266486 0.000000
0.377869 0.228897 0.000000
0.471169 0.372235 0.000000
0.492664 0.362648 0.000000
0.488718 0.386734 0.000000
0.431288 0.062893 0.000000
0.512348 0.074893 0.000000
0.450325 0.128772 0.000000
0.515327 0.223180 0.000000
0.538419 0.183215 0.000000
0.367912 0.509419 0.000000
0.343175 0.515399 0.000000
0.351317 0.488263 0.000000
0.593186 0.193353 0.000000
0.476496 0.230456 0.000000
0.594140 0.256114 0.000000
0.629340 0.367381 0.000000
0.659922 0.374166 0.000000
0.641019 0.397588 0.000000
0.669525 0.412603 0.000000
0.510665 0.591750 0.000000
0.493263 0.584115 0.000000
0.507476 0.576852 0.000000
0.492575 0.790205 0.000000
0.516533 0.753914 0.000000
0.493265 0.606545 0.000000
0.794852 0.435952 0.000000
0.797754 0.379724 0.000000
0.755728 0.420083 0.000000
0.528549 0.642034 0.000000
0.507334 0.653897 0.000000
0.509532 0.626562 0.000000
0.580705 0.748031 0.000000
0.605192 0.727758 0.000000
0.748472 0.635779 0.000000
0.742539 0.660255 0.000000
0.323194 0.421808 0.000000
0.325468 0.445306 0.000000
0.301700 0.435431 0.000000
0.295276 0.460827 0.000000
0.622421 0.457821 0.000000
0.642814 0.468538 0.000000
0.320303 0.468200 0.000000
[...]
POINT_DATA 858
SCALARS UX float 1
LOOKUP_TABLE default
-0.000000
0.000000
0.121095
-0.163488
-0.080774
0.072815
0.000000
-0.000000
-0.000000
-0.000000
-0.000000
0.000000
0.000000
0.000000
-0.000000
0.068560
0.109125
0.136426
0.157218
0.170445
0.171375
0.158872
0.139664
0.125633
0.090710
0.060862
0.033157
0.008296
-0.017812
-0.045763
-0.074856
-0.104760
-0.134266
-0.165648
-0.170938
-0.179183
-0.187257
-0.190493
-0.181163
-0.155940
-0.117308
-0.072482
-0.077354
-0.072962
-0.068800
-0.069491
-0.064977
-0.060190
-0.061168
-0.058165
-0.054864
-0.051695
-0.053802
-0.049813
-0.047051
-0.043099
-0.042315
-0.038718
-0.037666
-0.034903
-0.030623
-0.029959
-0.025611
-0.024619
-0.021872
-0.016980
-0.014572
-0.015025
-0.009888
-0.008224
-0.004352
-0.001679
0.003472
0.002778
0.007694
0.011267
0.011576
0.016414
0.020883
0.022343
0.021741
0.023970
0.029024
0.031128
0.033381
0.038832
0.041087
0.043231
0.044536
0.050506
0.052026
0.054901
0.061431
0.061008
0.067917
-0.048413
-0.045663
-0.050213
-0.044601
-0.031388
-0.042416
-0.032254
0.029395
0.024998
0.030330
-0.052762
-0.053864
-0.069160
0.024869
0.064122
0.059996
0.059970
-0.076383
0.055510
-0.098675
-0.103400
-0.142212
-0.156133
-0.148043
-0.142188
0.004203
0.008933
0.001441
0.014188
0.010380
0.005818
0.008017
0.016124
0.021305
0.000353
0.044696
0.046606
0.052524
0.037761
0.056462
0.060045
0.015379
0.009424
0.010747
0.057367
0.053267
0.005377
-0.074912
-0.078213
-0.076464
-0.092047
-0.091323
-0.100597
0.084940
0.079029
0.094565
-0.123835
-0.125444
-0.131416
0.046065
0.048050
0.036673
0.095138
0.101442
0.107163
-0.029667
-0.032149
-0.039624
0.048907
0.014121
0.012231
-0.078240
0.006555
0.010714
0.095709
0.098326
0.004345
-0.055626
-0.059907
-0.064240
-0.051555
0.099820
0.092598
-0.095758
-0.097315
-0.093101
0.090739
0.091108
0.086632
-0.090827
-0.027193
-0.022511
-0.025854
0.087777
0.057838
0.054613
0.054965
-0.115914
-0.114077
-0.116861
-0.151925
-0.167452
0.088667
0.091203
0.112128
0.129212
0.122599
0.052227
-0.011247
-0.016273
-0.019821
0.093793
0.057296
-0.110662
-0.108527
-0.111895
0.088329
0.094206
0.110587
0.104937
0.081985
-0.142175
-0.140638
-0.130844
0.040945
0.052954
0.041763
0.029601
0.068717
0.060085
0.057710
0.000306
-0.000877
-0.002094
0.100035
0.086420
-0.098947
-0.099089
-0.102427
-0.101454
0.113914
-0.081854
-0.079081
-0.082449
-0.094857
-0.088573
-0.106294
-0.128984
-0.126592
-0.123843
-0.038260
-0.034037
-0.041159
-0.037091
0.020050
0.016470
0.022069
0.017762
-0.048802
-0.043150
0.103211
0.100614
0.101092
0.028686
0.023912
-0.101791
-0.113286
-0.122323
-0.025389
-0.026744
-0.034798
0.121382
0.106968
0.118321
0.109869
-0.040691
-0.034437
-0.023923
0.078638
0.079516
0.082879
0.094638
0.100950
-0.158980
0.142631
0.147920
0.041202
0.042226
0.046468
0.077719
0.075796
0.082704
0.081656
0.076842
0.078398
0.082452
-0.134420
-0.068077
-0.071516
-0.065334
-0.071807
-0.105132
-0.103106
-0.111792
0.095824
0.094858
0.091487
-0.021619
-0.020439
-0.126710
-0.134447
0.068773
0.070534
0.074438
0.005281
-0.000245
-0.016146
-0.028481
-0.024337
-0.107891
0.046183
0.050449
0.051901
0.016966
0.013229
0.026956
-0.013053
0.080859
-0.029829
-0.019195
-0.022595
0.018483
0.020592
0.025885
-0.003830
-0.000488
-0.006309
0.004630
0.005702
-0.099067
-0.102908
-0.104827
0.015323
-0.002384
0.023765
0.051554
0.060255
0.060306
0.069954
-0.054703
-0.060398
-0.059364
-0.023840
-0.019230
-0.054486
0.107021
0.097623
0.093540
-0.036689
-0.039200
-0.045520
0.001145
0.007784
0.112779
0.107038
-0.114202
-0.112909
-0.117139
-0.117305
0.068317
0.074541
-0.112235
0.006451
-0.010640
-0.008978
-0.013598
-0.132944
-0.146146
-0.167140
-0.135101
-0.121922
-0.119332
-0.030679
-0.033550
0.098287
0.100934
-0.119734
-0.117345
-0.153094
-0.131114
-0.154914
-0.169785
-0.040222
-0.091652
-0.080840
-0.086332
-0.082917
-0.015717
-0.011885
-0.136997
0.115482
0.134603
0.102902
-0.117313
-0.114948
-0.136342
-0.033798
-0.038590
-0.027077
-0.077588
-0.075240
-0.084595
-0.045691
0.114414
0.019634
0.015309
-0.111743
-0.021879
-0.014507
0.015387
0.017093
0.022496
0.025970
0.014539
0.116499
-0.045796
-0.057768
-0.039231
-0.062578
-0.066464
-0.045963
0.122092
0.095087
-0.065552
0.082916
0.080902
0.068584
-0.062879
-0.019799
-0.028830
-0.019708
0.011260
0.030098
-0.096444
-0.090333
0.017114
0.020414
0.032900
-0.133650
-0.125458
-0.049641
0.042639
0.060165
0.038270
-0.109411
-0.109887
-0.050449
-0.044854
0.087522
0.089605
-0.116706
-0.096958
-0.101789
0.127493
-0.108540
0.030286
0.033519
0.045819
0.076902
0.085475
-0.014497
-0.121413
-0.114579
-0.004975
-0.040672
-0.018163
-0.015324
-0.126202
-0.095946
-0.132792
-0.092571
-0.105507
-0.108780
-0.095029
0.109192
0.110909
0.107760
0.077928
0.083257
-0.085235
-0.081448
-0.020262
-0.011682
0.128721
0.128043
-0.085595
0.098177
0.106384
-0.100700
-0.008920
-0.015100
-0.081759
-0.076017
-0.106818
-0.104374
-0.104659
-0.104784
-0.072180
0.094045
0.096124
0.097467
-0.172512
0.058528
0.085752
0.004192
0.009959
0.001125
-0.004973
0.132096
0.139602
0.149959
0.154059
0.000169
-0.031809
-0.029676
0.019983
0.086658
0.082875
0.100486
0.098319
-0.049501
-0.055265
0.033073
0.029174
0.035429
0.034274
0.015392
0.004062
0.021839
0.029206
-0.009129
0.103763
0.106697
-0.058348
-0.047039
-0.047017
0.044541
0.040623
-0.038404
0.037380
-0.115711
-0.111535
-0.119138
-0.000429
-0.002724
-0.120896
-0.121776
-0.114145
-0.071510
-0.072236
0.105950
0.112138
-0.068339
-0.074753
-0.066719
-0.033575
-0.045927
-0.071580
-0.008772
-0.003125
-0.113887
-0.015829
-0.009064
0.021746
0.021048
-0.051132
-0.052929
-0.056683
0.047182
0.004563
0.004086
0.102368
-0.009742
-0.025720
-0.016795
-0.020867
-0.088775
-0.092618
-0.091716
0.009047
-0.101006
0.011349
0.019926
-0.006813
-0.016285
-0.039075
0.033175
0.036160
0.031550
0.072073
0.067909
-0.108751
-0.110864
0.051675
0.037001
0.045456
0.070518
-0.007121
-0.075005
-0.103763
0.038791
-0.079646
-0.085759
0.027831
-0.086045
-0.070544
0.104568
0.102323
0.020667
0.136692
-0.115231
0.050121
-0.040553
-0.072491
-0.064444
-0.032472
-0.108795
-0.080135
-0.109965
0.093835
0.074302
0.074890
0.053648
0.124383
0.079656
0.021242
-0.041825
-0.039347
-0.068134
-0.064622
-0.058727
-0.059571
-0.058560
0.039718
0.044560
0.041363
0.023024
0.020842
0.059841
0.059298
0.053809
-0.059081
0.048726
0.093180
0.033852
0.043802
0.040659
-0.055115
0.082415
0.087186
0.035546
0.073892
0.071146
0.002458
-0.075248
-0.077487
-0.076501
-0.073060
0.056382
0.049467
0.070845
-0.098945
0.054567
-0.078428
-0.046068
-0.042582
-0.071124
-0.006933
0.095471
-0.093174
-0.095802
-0.091930
-0.032773
-0.097137
0.035509
-0.031431
-0.001031
-0.107707
-0.105753
-0.063738
0.005523
-0.059769
-0.059023
-0.008481
0.119531
0.121780
-0.085207
-0.057873
-0.098129
-0.007332
0.087541
0.076148
0.106022
0.091613
-0.008290
0.113518
-0.101010
-0.098827
-0.060562
-0.091578
-0.015696
-0.026800
-0.018911
-0.084475
-0.088780
-0.012555
-0.008969
-0.090510
-0.104165
-0.001080
-0.001884
-0.097978
-0.029108
-0.108432
-0.077426
-0.074876
-0.084512
-0.031855
0.012097
0.023932
0.029882
-0.032209
-0.079596
-0.086709
-0.007499
0.083051
-0.005096
0.055894
0.051571
0.061804
0.065348
0.048311
0.056398
-0.095429
-0.091330
-0.118565
0.064607
-0.077437
-0.005756
-0.002948
0.037230
-0.112756
0.055091
-0.014259
-0.012181
0.031805
0.047617
-0.123011
-0.148706
-0.018794
0.106445
-0.040125
0.066257
0.051283
-0.158835
-0.141864
-0.114840
0.132849
0.115837
-0.078672
-0.078553
-0.089270
0.035073
-0.045196
0.092519
0.001581
-0.018818
0.090654
0.053050
-0.111739
-0.158249
0.022172
-0.013687
-0.006794
-0.019742
0.058634
0.075933
0.031994
-0.049855
-0.059775
0.078487
0.029303
-0.104492
-0.103076
-0.110703
0.034782
0.059462
-0.105484
0.067111
0.078571
-0.080472
0.097145
0.063632
-0.095322
-0.100605
0.064597
-0.106637
-0.107435
-0.083978
0.003995
-0.011445
-0.018759
0.020971
-0.040018
0.094255
-0.093007
-0.090453
-0.070888
0.051196
-0.077850
-0.059235
-0.053062
0.067409
0.063531
-0.083605
-0.087568
-0.043202
0.037348
-0.093679
0.082021
-0.068823
0.072061
0.071581
0.071963
0.075795
0.056294
0.050442
0.060642
-0.064022
0.019378
-0.019385
0.028229
-0.052207
-0.049703
0.005273
0.010266
-0.098777
-0.082097
-0.073243
0.070768
0.070055
0.013779
0.065950
0.047782
-0.067616
-0.071601
0.016197
0.064939
0.012373
-0.088232
-0.089254
0.063084
0.055544
SCALARS UY float 1
LOOKUP_TABLE default
-0.000000
-0.000000
-0.950000
-0.950000
-0.273125
-0.669060
-0.000000
-0.000000
-0.000000
-0.000000
-0.000000
-0.000000
-0.000000
-0.000000
-0.000000
-0.119162
-0.215627
-0.306928
-0.394209
-0.477782
-0.560357
-0.646487
-0.741833
-0.844623
-0.950000
-0.950000
-0.950000
-0.950000
-0.950000
-0.950000
-0.950000
-0.950000
-0.950000
-0.851448
-0.754234
-0.659454
-0.568830
-0.483875
-0.402149
-0.319351
-0.227423
-0.124285
-0.283935
-0.294187
-0.304036
-0.307162
-0.316383
-0.325825
-0.328963
-0.336885
-0.345152
-0.353934
-0.358676
-0.365155
-0.371528
-0.379477
-0.384851
-0.391760
-0.397694
-0.404872
-0.413798
-0.417751
-0.426179
-0.430679
-0.437716
-0.447645
-0.454143
-0.457722
-0.466105
-0.471754
-0.480185
-0.486502
-0.495438
-0.496897
-0.506044
-0.513735
-0.517253
-0.526761
-0.535983
-0.539730
-0.550533
-0.556151
-0.564439
-0.568492
-0.574370
-0.584790
-0.591473
-0.599173
-0.603813
-0.614578
-0.619838
-0.628260
-0.639867
-0.643588
-0.656990
-0.584097
-0.593666
-0.595108
-0.607506
-0.273826
-0.278743
-0.262192
-0.348082
-0.339540
-0.337201
-0.812215
-0.872816
-0.809754
-0.325040
-0.401841
-0.391597
-0.386928
-0.859431
-0.377067
-0.380695
-0.376059
-0.406833
-0.447010
-0.387036
-0.450223
-0.203522
-0.233235
-0.226387
-0.693256
-0.703271
-0.684697
-0.058647
-0.078414
-0.130565
-0.688079
-0.336023
-0.329666
-0.354022
-0.308996
-0.383899
-0.395479
-0.306404
-0.296932
-0.289871
-0.390559
-0.377995
-0.283720
-0.539309
-0.535351
-0.530838
-0.421867
-0.429422
-0.437211
-0.553210
-0.548215
-0.532946
-0.440421
-0.473177
-0.441871
-0.377648
-0.389493
-0.397174
-0.442672
-0.426415
-0.475403
-0.705529
-0.729040
-0.699923
-0.376810
-0.227707
-0.190683
-0.524368
-0.304865
-0.309950
-0.544855
-0.533265
-0.292440
-0.628264
-0.634257
-0.608376
-0.652272
-0.549020
-0.562922
-0.476371
-0.466362
-0.466568
-0.497841
-0.512457
-0.506448
-0.454377
-0.626407
-0.638390
-0.638728
-0.529709
-0.396887
-0.397580
-0.387837
-0.377449
-0.388157
-0.394611
-0.488888
-0.483807
-0.485271
-0.489154
-0.377395
-0.399623
-0.427448
-0.387648
-0.627418
-0.646544
-0.629369
-0.520449
-0.407261
-0.385188
-0.390371
-0.401034
-0.614837
-0.599355
-0.805799
-0.880175
-0.869514
-0.537682
-0.489940
-0.505767
-0.680126
-0.686554
-0.701704
-0.688825
-0.442087
-0.460097
-0.450900
-0.308788
-0.298373
-0.283280
-0.564436
-0.582259
-0.456734
-0.472647
-0.459133
-0.472863
-0.450292
-0.526659
-0.540700
-0.531224
-0.388724
-0.391369
-0.407128
-0.388364
-0.365687
-0.375156
-0.617570
-0.634009
-0.620825
-0.634356
-0.313031
-0.300595
-0.311940
-0.298400
-0.606566
-0.624036
-0.544699
-0.538133
-0.526280
-0.325296
-0.310298
-0.288859
-0.317754
-0.327137
-0.217907
-0.232545
-0.222530
-0.614916
-0.638797
-0.597815
-0.618262
-0.602108
-0.583271
-0.582704
-0.450862
-0.447576
-0.462393
-0.622044
-0.601948
-0.526589
-0.462630
-0.419278
-0.353380
-0.349396
-0.364687
-0.436012
-0.421216
-0.445448
-0.428415
-0.476389
-0.460930
-0.470098
-0.468128
-0.547266
-0.539710
-0.533758
-0.548947
-0.320790
-0.330771
-0.337686
-0.491377
-0.498484
-0.479612
-0.246722
-0.234663
-0.410094
-0.412610
-0.414118
-0.412430
-0.431859
-0.275778
-0.269807
-0.275353
-0.294456
-0.281166
-0.399065
-0.355008
-0.361769
-0.370622
-0.776863
-0.748185
-0.754997
-0.253744
-0.525150
-0.198572
-0.199987
-0.169680
-0.293394
-0.288518
-0.307740
-0.044889
-0.054981
-0.094066
-0.173230
-0.141979
-0.500721
-0.501199
-0.478179
-0.154568
-0.176171
-0.209032
-0.313145
-0.324031
-0.342545
-0.361319
-0.598838
-0.589535
-0.585989
-0.767821
-0.738093
-0.608080
-0.401956
-0.348026
-0.381651
-0.643156
-0.650030
-0.627392
-0.739125
-0.724054
-0.594987
-0.621243
-0.410227
-0.432737
-0.417883
-0.441172
-0.393410
-0.407541
-0.453129
-0.090976
-0.078911
-0.126894
-0.116017
-0.338462
-0.350561
-0.416181
-0.364946
-0.554522
-0.513546
-0.894763
-0.834728
-0.509144
-0.509076
-0.459493
-0.487417
-0.583498
-0.593862
-0.655618
-0.601699
-0.206644
-0.617669
-0.639097
-0.661303
-0.611406
-0.613507
-0.616646
-0.642440
-0.307676
-0.361698
-0.557677
-0.645670
-0.601644
-0.709310
-0.181014
-0.170545
-0.149503
-0.589375
-0.611423
-0.585296
-0.202041
-0.347758
-0.319645
-0.319239
-0.418764
-0.260427
-0.263360
-0.267666
-0.256838
-0.281682
-0.794453
-0.813775
-0.567281
-0.779139
-0.724541
-0.749818
-0.591951
-0.577666
-0.709814
-0.566991
-0.293342
-0.571938
-0.341800
-0.366173
-0.320990
-0.764491
-0.139069
-0.130462
-0.112334
-0.270533
-0.192421
-0.867226
-0.797177
-0.326995
-0.071491
-0.133851
-0.299849
-0.304268
-0.220363
-0.732683
-0.725082
-0.769323
-0.421155
-0.435720
-0.627190
-0.652061
-0.457193
-0.448220
-0.701103
-0.688757
-0.633589
-0.470891
-0.455301
-0.702585
-0.721929
-0.711779
-0.397929
-0.418402
-0.074819
-0.344146
-0.323893
-0.035878
-0.113630
-0.049551
-0.057724
-0.350109
-0.523046
-0.381164
-0.519083
-0.588217
-0.546485
-0.577143
-0.582661
-0.565321
-0.607311
-0.486334
-0.485102
-0.527891
-0.540365
-0.649183
-0.661117
-0.544516
-0.581896
-0.520244
-0.478748
-0.509340
-0.532853
-0.161669
-0.149870
-0.752111
-0.711453
-0.449883
-0.458451
-0.465898
-0.446635
-0.678476
-0.508664
-0.522064
-0.517402
-0.541079
-0.500550
-0.477404
-0.654011
-0.660590
-0.279434
-0.268088
-0.610449
-0.562497
-0.594756
-0.528584
-0.105369
-0.250870
-0.241697
-0.727654
-0.472820
-0.455457
-0.637125
-0.640458
-0.612485
-0.589981
-0.331109
-0.320314
-0.342415
-0.327397
-0.888121
-0.830322
-0.837543
-0.306584
-0.880425
-0.585028
-0.589510
-0.244996
-0.227944
-0.244286
-0.344845
-0.339671
-0.239305
-0.323798
-0.350116
-0.350559
-0.348206
-0.646549
-0.661465
-0.397161
-0.419804
-0.328336
-0.585191
-0.593317
-0.537555
-0.539407
-0.618020
-0.568541
-0.590049
-0.605587
-0.507890
-0.529522
-0.656044
-0.673699
-0.468846
-0.320751
-0.303773
-0.675372
-0.691477
-0.575388
-0.585231
-0.577701
-0.402567
-0.793651
-0.763073
-0.615724
-0.278300
-0.647215
-0.662170
-0.661891
-0.541996
-0.544210
-0.560388
-0.250292
-0.446523
-0.678255
-0.661638
-0.778472
-0.813631
-0.253551
-0.346267
-0.352311
-0.355150
-0.506236
-0.501479
-0.498252
-0.516016
-0.284795
-0.241230
-0.235403
-0.385353
-0.637724
-0.547873
-0.432356
-0.184127
-0.565804
-0.539232
-0.281527
-0.563185
-0.558018
-0.573552
-0.571393
-0.226784
-0.512153
-0.363895
-0.354671
-0.676362
-0.167849
-0.186213
-0.118772
-0.230901
-0.159687
-0.410036
-0.784705
-0.827368
-0.776900
-0.827199
-0.720810
-0.385565
-0.330934
-0.558065
-0.566964
-0.558308
-0.554998
-0.608753
-0.231444
-0.239747
-0.357190
-0.366700
-0.369395
-0.371147
-0.364354
-0.369384
-0.378082
-0.340570
-0.679854
-0.365880
-0.234583
-0.280249
-0.308420
-0.277893
-0.566402
-0.498932
-0.491020
-0.364543
-0.437354
-0.425855
-0.670029
-0.552119
-0.549718
-0.264621
-0.563164
-0.236098
-0.187440
-0.232198
-0.741588
-0.368788
-0.255720
-0.549135
-0.538833
-0.561885
-0.739646
-0.638614
-0.508286
-0.495602
-0.505387
-0.616332
-0.499496
-0.388270
-0.630594
-0.257515
-0.435993
-0.422374
-0.566049
-0.266564
-0.569071
-0.558262
-0.269430
-0.539352
-0.501646
-0.246007
-0.208069
-0.240401
-0.253634
-0.468655
-0.734296
-0.708525
-0.686562
-0.674949
-0.513475
-0.484001
-0.487256
-0.577204
-0.438070
-0.691614
-0.670943
-0.674699
-0.536392
-0.521876
-0.677259
-0.694218
-0.400455
-0.409771
-0.320399
-0.696377
-0.484420
-0.652459
-0.475568
-0.487237
-0.495191
-0.504332
-0.788363
-0.285039
-0.255771
-0.249280
-0.680152
-0.513631
-0.495919
-0.198600
-0.563154
-0.225885
-0.436775
-0.429125
-0.416759
-0.430986
-0.423082
-0.688884
-0.488527
-0.497370
-0.371870
-0.398004
-0.554507
-0.712970
-0.139172
-0.815607
-0.368527
-0.884324
-0.177909
-0.220307
-0.077646
-0.090939
-0.865667
-0.858907
-0.221734
-0.564929
-0.084309
-0.152241
-0.153195
-0.357428
-0.781717
-0.780051
-0.657128
-0.652001
-0.469054
-0.480149
-0.485218
-0.876685
-0.162361
-0.471391
-0.247433
-0.705526
-0.404681
-0.779128
-0.291469
-0.724590
-0.707192
-0.237340
-0.239184
-0.606084
-0.700310
-0.292457
-0.302333
-0.676251
-0.650169
-0.663997
-0.383430
-0.362371
-0.368968
-0.376103
-0.669661
-0.275244
-0.350162
-0.483430
-0.663684
-0.550694
-0.581090
-0.365632
-0.286890
-0.298873
-0.390888
-0.307179
-0.308630
-0.438871
-0.327422
-0.294105
-0.291768
-0.356526
-0.576072
-0.503864
-0.485111
-0.474344
-0.640954
-0.377151
-0.271036
-0.536179
-0.541829
-0.415099
-0.404791
-0.515922
-0.507129
-0.269300
-0.340624
-0.413131
-0.673365
-0.577945
-0.516563
-0.453476
-0.440636
-0.448382
-0.472814
-0.449178
-0.402173
-0.495202
-0.385399
-0.593242
-0.417087
-0.258835
-0.498695
-0.338767
-0.358351
-0.336206
-0.454010
-0.456254
-0.528885
-0.429263
-0.339894
-0.417179
-0.412030
-0.507905
-0.518140
-0.621061
-0.471777
-0.347339
-0.516907
-0.508866
-0.409409
-0.417489
SCALARS DAMAGE float 1
LOOKUP_TABLE default
0.999805
0.999813
0.999859
0.999876
0.000000
0.000000
0.999879
0.999904
0.999921
0.999928
0.999926
0.999919
0.999908
0.999896
0.999872
0.999844
0.999882
0.999896
0.999905
0.999908
0.999908
0.999892
0.999872
0.999860
0.999875
0.999888
0.999905
0.999910
0.999905
0.999896
0.999889
0.999884
0.999880
0.999875
0.999881
0.999888
0.999899
0.999907
0.999912
0.999897
0.999879
0.999818
-0.000000
0.000000
0.000000
0.000000
0.000000
0.000000
0.000000
0.000000
0.000000
0.000000
0.000000
0.000000
0.000000
0.000000
0.000000
0.000000
0.000000
0.000000
0.000000
0.000000
0.000000
0.000000
0.000000
0.000000
0.000000
0.000000
0.000000
0.000000
0.000000
0.000000
0.000000
0.000000
0.000000
0.000000
0.000000
0.000000
0.000000
0.000000
0.000000
0.000000
0.000000
0.000000
0.000000
0.000000
0.000000
0.000000
0.000000
0.000000
0.000000
0.000000
0.000000
0.000000
-0.000000
0.678536
0.728254
0.862926
0.890132
0.481474
0.344869
0.649564
0.685393
0.689907
0.857581
0.999892
0.999893
0.999889
0.879882
0.980382
0.977509
0.991663
0.999888
0.988669
0.443526
0.491284
0.999881
0.999889
0.999887
0.999881
0.999906
0.999883
0.999848
0.943677
0.987850
0.947208
0.999911
0.999906
0.999902
0.981929
0.999312
0.999781
0.999403
0.999841
0.970200
0.952820
0.900964
0.890041
0.970596
0.933768
0.954931
0.953377
0.820248
0.870425
0.763470
0.448015
0.444740
0.670036
0.433169
0.389577
0.708091
0.999688
0.999865
0.999859
0.748488
0.668562
0.466523
0.999866
0.999877
0.999877
0.999887
0.999896
0.999893
0.844299
0.999902
0.999905
0.751225
0.726497
0.752547
0.683814
0.868573
0.844828
0.999659
0.999853
0.999626
0.999858
0.811569
0.516024
0.798252
0.754464
0.638179
0.879329
0.761389
0.673252
0.496163
0.768650
0.834877
0.898341
0.539673
0.879000
0.775358
0.895531
0.930890
0.904048
0.978064
0.999885
0.999893
0.917922
0.970499
0.999881
0.999887
0.999882
0.807196
0.510040
0.827927
0.681216
0.790118
0.751981
0.744875
0.687435
0.869902
0.350971
0.474896
0.999869
0.999867
0.999879
0.999882
0.999880
0.999878
0.513365
0.484279
0.845123
0.747191
0.706896
0.439356
0.448489
0.544000
0.656926
0.834271
0.718112
0.392418
0.715303
0.881188
0.873432
0.957006
0.999878
0.887804
0.952038
0.948526
0.433397
0.382449
0.675688
0.999318
0.998255
0.996161
0.881026
0.967011
0.960592
0.985230
0.916100
0.966035
0.959861
0.983792
0.957780
0.987197
0.972599
0.939250
0.986210
0.955151
0.984033
0.998985
0.996201
0.999844
0.994728
0.977122
0.981001
0.999865
0.999413
0.999452
0.994287
0.717017
0.453998
0.373265
0.922704
0.971541
0.936881
0.475853
0.689562
0.999888
0.999891
0.999898
0.931547
0.978853
0.931545
0.991954
0.998388
0.997457
0.999616
0.630854
0.782324
0.823480
0.999875
0.726845
0.732536
0.540966
0.850482
0.525910
0.473236
0.729927
0.996975
0.985779
0.994838
0.955712
0.987943
0.999597
0.999833
0.981785
0.996135
0.976684
0.985872
0.977755
0.692211
0.366616
0.493423
0.703177
0.988771
0.994038
0.980880
0.999901
0.999642
0.999948
0.970951
0.462711
0.998440
0.999549
0.999903
0.994607
0.998632
0.994783
0.999927
0.999922
0.999922
0.999910
0.999911
0.997093
0.999309
0.996273
0.999905
0.999912
0.999900
0.999892
0.999888
0.999885
0.999886