# vtk DataFile Version 2.0
Test
ASCII
DATASET POLYDATA
POINTS 5816 float
0.000000 0.000000 0.000000
2.000000 0.000000 0.000000
2.000000 4.000000 0.000000
0.000000 4.000000 0.000000
0.000000 0.500000 0.000000
1.500000 2.000000 0.000000
2.000000 2.500000 0.000000
0.285714 0.000000 0.000000
0.571429 0.000000 0.000000
0.857143 0.000000 0.000000
1.142857 0.000000 0.000000
1.428571 0.000000 0.000000
1.714286 0.000000 0.000000
2.000000 0.275040 0.000000
2.000000 0.520628 0.000000
2.000000 0.739917 0.000000
2.000000 0.935725 0.000000
2.000000 1.110565 0.000000
2.000000 1.266683 0.000000
2.000000 1.406084 0.000000
2.000000 1.530557 0.000000
2.000000 1.641701 0.000000
2.000000 1.740944 0.000000
2.000000 1.829560 0.000000
2.000000 1.908686 0.000000
2.000000 1.979340 0.000000
2.000000 2.042428 0.000000
2.000000 2.098760 0.000000
2.000000 2.149060 0.000000
2.000000 2.193974 0.000000
2.000000 2.234078 0.000000
2.000000 2.269888 0.000000
2.000000 2.301863 0.000000
2.000000 2.330415 0.000000
2.000000 2.355908 0.000000
2.000000 2.378673 0.000000
2.000000 2.398999 0.000000
2.000000 2.417149 0.000000
2.000000 2.433355 0.000000
2.000000 2.447826 0.000000
2.000000 2.460747 0.000000
2.000000 2.472285 0.000000
2.000000 2.482587 0.000000
2.000000 2.491786 0.000000
2.000000 2.508637 0.000000
2.000000 2.519089 0.000000
2.000000 2.531737 0.000000
2.000000 2.547044 0.000000
2.000000 2.565568 0.000000
2.000000 2.587985 0.000000
2.000000 2.615113 0.000000
2.000000 2.647942 0.000000
2.000000 2.687670 0.000000
2.000000 2.735749 0.000000
2.000000 2.793931 0.000000
2.000000 2.864341 0.000000
2.000000 2.949549 0.000000
2.000000 3.052664 0.000000
2.000000 3.177450 0.000000
2.000000 3.328462 0.000000
2.000000 3.511210 0.000000
2.000000 3.732366 0.000000
1.714286 4.000000 0.000000
1.428571 4.000000 0.000000
1.142857 4.000000 0.000000
0.857143 4.000000 0.000000
0.571429 4.000000 0.000000
0.285714 4.000000 0.000000
0.000000 3.715673 0.000000
0.000000 3.453827 0.000000
0.000000 3.212685 0.000000
0.000000 2.990611 0.000000
0.000000 2.786096 0.000000
0.000000 2.597752 0.000000
0.000000 2.424300 0.000000
0.000000 2.264564 0.000000
0.000000 2.117457 0.000000
0.000000 1.981983 0.000000
0.000000 1.857220 0.000000
0.000000 1.742322 0.000000
0.000000 1.636510 0.000000
0.000000 1.539064 0.000000
0.000000 1.449323 0.000000
0.000000 1.366678 0.000000
0.000000 1.290567 0.000000
0.000000 1.220475 0.000000
0.000000 1.155925 0.000000
0.000000 1.096479 0.000000
0.000000 1.041733 0.000000
0.000000 0.991316 0.000000
0.000000 0.944886 0.000000
0.000000 0.902126 0.000000
0.000000 0.862748 0.000000
0.000000 0.826483 0.000000
0.000000 0.793086 0.000000
0.000000 0.762330 0.000000
0.000000 0.734005 0.000000
0.000000 0.707920 0.000000
0.000000 0.683898 0.000000
0.000000 0.661775 0.000000
0.000000 0.641402 0.000000
0.000000 0.622639 0.000000
0.000000 0.605360 0.000000
0.000000 0.589447 0.000000
0.000000 0.574792 0.000000
0.000000 0.561296 0.000000
0.000000 0.548868 0.000000
0.000000 0.537421 0.000000
0.000000 0.526881 0.000000
0.000000 0.517173 0.000000
0.000000 0.508233 0.000000
0.000000 0.491468 0.000000
0.000000 0.479827 0.000000
0.000000 0.463944 0.000000
0.000000 0.442273 0.000000
0.000000 0.412707 0.000000
0.000000 0.372368 0.000000
0.000000 0.317330 0.000000
0.000000 0.242238 0.000000
0.000000 0.139785 0.000000
0.005639 0.505639 0.000000
0.011278 0.511278 0.000000
0.016917 0.516917 0.000000
0.022556 0.522556 0.000000
0.028195 0.528195 0.000000
0.033835 0.533835 0.000000
0.039474 0.539474 0.000000
0.045113 0.545113 0.000000
0.050752 0.550752 0.000000
0.056391 0.556391 0.000000
0.062030 0.562030 0.000000
0.067669 0.567669 0.000000
0.073308 0.573308 0.000000
0.078947 0.578947 0.000000
0.084586 0.584586 0.000000
0.090226 0.590226 0.000000
0.095865 0.595865 0.000000
0.101504 0.601504 0.000000
0.107143 0.607143 0.000000
0.112782 0.612782 0.000000
0.118421 0.618421 0.000000
0.124060 0.624060 0.000000
0.129699 0.629699 0.000000
0.135338 0.635338 0.000000
0.140977 0.640977 0.000000
0.146617 0.646617 0.000000
0.152256 0.652256 0.000000
0.157895 0.657895 0.000000
0.163534 0.663534 0.000000
0.169173 0.669173 0.000000
0.174812 0.674812 0.000000
0.180451 0.680451 0.000000
0.186090 0.686090 0.000000
0.191729 0.691729 0.000000
0.197368 0.697368 0.000000
0.203008 0.703008 0.000000
0.208647 0.708647 0.000000
0.214286 0.714286 0.000000
0.219925 0.719925 0.000000
0.225564 0.725564 0.000000
0.231203 0.731203 0.000000
0.236842 0.736842 0.000000
0.242481 0.742481 0.000000
0.248120 0.748120 0.000000
0.253759 0.753759 0.000000
0.259398 0.759398 0.000000
0.265038 0.765038 0.000000
0.270677 0.770677 0.000000
0.276316 0.776316 0.000000
0.281955 0.781955 0.000000
0.287594 0.787594 0.000000
0.293233 0.793233 0.000000
0.298872 0.798872 0.000000
0.304511 0.804511 0.000000
0.310150 0.810150 0.000000
0.315789 0.815789 0.000000
0.321429 0.821429 0.000000
0.327068 0.827068 0.000000
0.332707 0.832707 0.000000
0.338346 0.838346 0.000000
0.343985 0.843985 0.000000
0.349624 0.849624 0.000000
0.355263 0.855263 0.000000
0.360902 0.860902 0.000000
0.366541 0.866541 0.000000
0.372180 0.872180 0.000000
0.377820 0.877820 0.000000
0.383459 0.883459 0.000000
0.389098 0.889098 0.000000
0.394737 0.894737 0.000000
0.400376 0.900376 0.000000
0.406015 0.906015 0.000000
0.411654 0.911654 0.000000
0.417293 0.917293 0.000000
0.422932 0.922932 0.000000
0.428571 0.928571 0.000000
0.434211 0.934211 0.000000
0.439850 0.939850 0.000000
0.445489 0.945489 0.000000
0.451128 0.951128 0.000000
0.456767 0.956767 0.000000
0.462406 0.962406 0.000000
0.468045 0.968045 0.000000
0.473684 0.973684 0.000000
0.479323 0.979323 0.000000
0.484962 0.984962 0.000000
0.490602 0.990602 0.000000
0.496241 0.996241 0.000000
0.501880 1.001880 0.000000
0.507519 1.007519 0.000000
0.513158 1.013158 0.000000
0.518797 1.018797 0.000000
0.524436 1.024436 0.000000
0.530075 1.030075 0.000000
0.535714 1.035714 0.000000
0.541353 1.041353 0.000000
0.546992 1.046992 0.000000
0.552632 1.052632 0.000000
0.558271 1.058271 0.000000
0.563910 1.063910 0.000000
0.569549 1.069549 0.000000
0.575188 1.075188 0.000000
0.580827 1.080827 0.000000
0.586466 1.086466 0.000000
0.592105 1.092105 0.000000
0.597744 1.097744 0.000000
0.603383 1.103383 0.000000
0.609023 1.109023 0.000000
0.614662 1.114662 0.000000
0.620301 1.120301 0.000000
0.625940 1.125940 0.000000
0.631579 1.131579 0.000000
0.637218 1.137218 0.000000
0.642857 1.142857 0.000000
0.648496 1.148496 0.000000
0.654135 1.154135 0.000000
0.659774 1.159774 0.000000
0.665414 1.165414 0.000000
0.671053 1.171053 0.000000
0.676692 1.176692 0.000000
0.682331 1.182331 0.000000
0.687970 1.187970 0.000000
0.693609 1.193609 0.000000
0.699248 1.199248 0.000000
0.704887 1.204887 0.000000
0.710526 1.210526 0.000000
0.716165 1.216165 0.000000
0.721805 1.221805 0.000000
0.727444 1.227444 0.000000
0.733083 1.233083 0.000000
0.738722 1.238722 0.000000
0.744361 1.244361 0.000000
0.750000 1.250000 0.000000
0.755639 1.255639 0.000000
0.761278 1.261278 0.000000
0.766917 1.266917 0.000000
0.772556 1.272556 0.000000
0.778195 1.278195 0.000000
0.783835 1.283835 0.000000
0.789474 1.289474 0.000000
0.795113 1.295113 0.000000
0.800752 1.300752 0.000000
0.806391 1.306391 0.000000
0.812030 1.312030 0.000000
0.817669 1.317669 0.000000
0.823308 1.323308 0.000000
0.828947 1.328947 0.000000
0.834586 1.334586 0.000000
0.840226 1.340226 0.000000
0.845865 1.345865 0.000000
0.851504 1.351504 0.000000
0.857143 1.357143 0.000000
0.862782 1.362782 0.000000
0.868421 1.368421 0.000000
0.874060 1.374060 0.000000
0.879699 1.379699 0.000000
0.885338 1.385338 0.000000
0.890977 1.390977 0.000000
0.896617 1.396617 0.000000
0.902256 1.402256 0.000000
0.907895 1.407895 0.000000
0.913534 1.413534 0.000000
0.919173 1.419173 0.000000
0.924812 1.424812 0.000000
0.930451 1.430451 0.000000
0.936090 1.436090 0.000000
0.941729 1.441729 0.000000
0.947368 1.447368 0.000000
0.953008 1.453008 0.000000
0.958647 1.458647 0.000000
0.964286 1.464286 0.000000
0.969925 1.469925 0.000000
0.975564 1.475564 0.000000
0.981203 1.481203 0.000000
0.986842 1.486842 0.000000
0.992481 1.492481 0.000000
0.998120 1.498120 0.000000
1.003759 1.503759 0.000000
1.009398 1.509398 0.000000
1.015038 1.515038 0.000000
1.020677 1.520677 0.000000
1.026316 1.526316 0.000000
1.031955 1.531955 0.000000
1.037594 1.537594 0.000000
1.043233 1.543233 0.000000
1.048872 1.548872 0.000000
1.054511 1.554511 0.000000
1.060150 1.560150 0.000000
1.065789 1.565789 0.000000
1.071429 1.571429 0.000000
1.077068 1.577068 0.000000
1.082707 1.582707 0.000000
1.088346 1.588346 0.000000
1.093985 1.593985 0.000000
1.099624 1.599624 0.000000
1.105263 1.605263 0.000000
1.110902 1.610902 0.000000
1.116541 1.616541 0.000000
1.122180 1.622180 0.000000
1.127820 1.627820 0.000000
1.133459 1.633459 0.000000
1.139098 1.639098 0.000000
1.144737 1.644737 0.000000
1.150376 1.650376 0.000000
1.156015 1.656015 0.000000
1.161654 1.661654 0.000000
1.167293 1.667293 0.000000
1.172932 1.672932 0.000000
1.178571 1.678571 0.000000
1.184211 1.684211 0.000000
1.189850 1.689850 0.000000
1.195489 1.695489 0.000000
1.201128 1.701128 0.000000
1.206767 1.706767 0.000000
1.212406 1.712406 0.000000
1.218045 1.718045 0.000000
1.223684 1.723684 0.000000
1.229323 1.729323 0.000000
1.234962 1.734962 0.000000
1.240602 1.740602 0.000000
1.246241 1.746241 0.000000
1.251880 1.751880 0.000000
1.257519 1.757519 0.000000
1.263158 1.763158 0.000000
1.268797 1.768797 0.000000
1.274436 1.774436 0.000000
1.280075 1.780075 0.000000
1.285714 1.785714 0.000000
1.291353 1.791353 0.000000
1.296992 1.796992 0.000000
1.302632 1.802632 0.000000
1.308271 1.808271 0.000000
1.313910 1.813910 0.000000
1.319549 1.819549 0.000000
1.325188 1.825188 0.000000
1.330827 1.830827 0.000000
1.336466 1.836466 0.000000
1.342105 1.842105 0.000000
1.347744 1.847744 0.000000
1.353383 1.853383 0.000000
1.359023 1.859023 0.000000
1.364662 1.864662 0.000000
1.370301 1.870301 0.000000
1.375940 1.875940 0.000000
1.381579 1.881579 0.000000
1.387218 1.887218 0.000000
1.392857 1.892857 0.000000
[...]
POINT_DATA 5816
SCALARS UX float 1
LOOKUP_TABLE default
-0.000000
0.000000
0.235935
-0.259581
-0.525934
0.162553
0.251755
-0.000000
-0.000000
-0.000000
-0.000000
0.000000
-0.000000
0.147555
0.206650
0.239005
0.258790
0.272149
0.281598
0.289388
0.294846
0.298461
0.300140
0.299595
0.297410
0.293918
0.289598
0.285026
0.280423
0.276215
0.272395
0.269080
0.266205
0.263731
0.261625
0.259830
0.258305
0.256997
0.255880
0.254917
0.254091
0.253379
0.252759
0.252223
0.251276
0.250710
0.250050
0.249283
0.248402
0.247411
0.246296
0.245086
0.243780
0.242425
0.241064
0.239750
0.238566
0.237525
0.236828
0.236315
0.236029
0.235950
0.164528
0.093614
0.023187
-0.047032
-0.117471
-0.188341
-0.259627
-0.259620
-0.259972
-0.260926
-0.262797
-0.265554
-0.269304
-0.273869
-0.279111
-0.284637
-0.290380
-0.296024
-0.301490
-0.306672
-0.311604
-0.316312
-0.320852
-0.325273
-0.329700
-0.334274
-0.338960
-0.343998
-0.349412
-0.355409
-0.361728
-0.368492
-0.375785
-0.384064
-0.392151
-0.401162
-0.411009
-0.421694
-0.433773
-0.447946
-0.466311
-0.487898
-0.512617
-0.548375
-0.598740
-0.664742
-0.762198
-0.869522
-1.029441
-0.456495
-0.394962
-0.345696
-0.298566
-0.257936
-0.221608
-0.187852
-0.144600
-0.097429
-0.472576
-0.450104
-0.418346
-0.392776
-0.377006
-0.365986
-0.355528
-0.344953
-0.337575
-0.330131
-0.322873
-0.317373
-0.311786
-0.306762
-0.302193
-0.297883
-0.293746
-0.289958
-0.286570
-0.283066
-0.279531
-0.276281
-0.273081
-0.269808
-0.266874
-0.263908
-0.261240
-0.258622
-0.256069
-0.253811
-0.251505
-0.249235
-0.247017
-0.244746
-0.242651
-0.240506
-0.238576
-0.236566
-0.234523
-0.232479
-0.230474
-0.228660
-0.226916
-0.225166
-0.223361
-0.221572
-0.219857
-0.218171
-0.216475
-0.214911
-0.213289
-0.211687
-0.210109
-0.208518
-0.206972
-0.205428
-0.203884
-0.202328
-0.200775
-0.199245
-0.197696
-0.196205
-0.194685
-0.193187
-0.191720
-0.190274
-0.188788
-0.187269
-0.185784
-0.184263
-0.182789
-0.181329
-0.179880
-0.178402
-0.176937
-0.175451
-0.173956
-0.172441
-0.170987
-0.169505
-0.168037
-0.166559
-0.165061
-0.163568
-0.162063
-0.160548
-0.159033
-0.157530
-0.156035
-0.154513
-0.152996
-0.151465
-0.149934
-0.148398
-0.146872
-0.145334
-0.143787
-0.142255
-0.140716
-0.139176
-0.137623
-0.136062
-0.134488
-0.132921
-0.131358
-0.129787
-0.128201
-0.126615
-0.125019
-0.123419
-0.121818
-0.120205
-0.118585
-0.116962
-0.115336
-0.113707
-0.112080
-0.110457
-0.108828
-0.107188
-0.105540
-0.103894
-0.102241
-0.100585
-0.098929
-0.097268
-0.095605
-0.093926
-0.092242
-0.090557
-0.088872
-0.087181
-0.085485
-0.083788
-0.082087
-0.080381
-0.078674
-0.076958
-0.075238
-0.073516
-0.071789
-0.070057
-0.068327
-0.066585
-0.064838
-0.063088
-0.061338
-0.059593
-0.057838
-0.056079
-0.054317
-0.052549
-0.050776
-0.048992
-0.047206
-0.045414
-0.043622
-0.041827
-0.040042
-0.038257
-0.036463
-0.034662
-0.032853
-0.031047
-0.029246
-0.027438
-0.025621
-0.023801
-0.021974
-0.020146
-0.018318
-0.016487
-0.014659
-0.012836
-0.011015
-0.009197
-0.007374
-0.005539
-0.003685
-0.001827
0.000025
0.001874
0.003722
0.005574
0.007428
0.009289
0.011152
0.013013
0.014874
0.016725
0.018574
0.020425
0.022272
0.024123
0.025981
0.027845
0.029709
0.031570
0.033438
0.035306
0.037190
0.039087
0.040988
0.042885
0.044770
0.046650
0.048523
0.050390
0.052275
0.054170
0.056067
0.057964
0.059855
0.061749
0.063641
0.065519
0.067405
0.069302
0.071200
0.073098
0.075003
0.076919
0.078838
0.080754
0.082670
0.084590
0.086506
0.088419
0.090330
0.092246
0.094150
0.096056
0.097975
0.099915
0.101856
0.103792
0.105727
0.107665
0.109613
0.111567
0.113520
0.115461
0.117402
0.119344
0.121301
0.123250
0.125208
0.127175
0.129134
0.131089
0.133066
0.135037
0.137018
0.138978
0.140935
0.142915
0.144902
0.146840
0.148786
0.150750
0.152721
0.154689
0.156663
0.158652
0.160638
0.164419
0.166142
0.167664
0.169125
0.170518
0.171856
0.173155
0.174405
0.175618
0.176800
0.177941
0.179042
0.180109
0.181150
0.182157
0.183134
0.184086
0.185012
0.185916
0.186798
0.187663
0.188515
0.189353
0.190178
0.190996
0.191808
0.192616
0.193421
0.194225
0.195029
0.195835
0.196645
0.197458
0.198274
0.199096
0.199923
0.200755
0.201591
0.202436
0.203286
0.204141
0.205002
0.205872
0.206746
0.207625
0.208511
0.209402
0.210300
0.211202
0.212109
0.213022
0.213936
0.214860
0.215785
0.216716
0.217653
0.218593
0.219540
0.220490
0.221445
0.222403
0.223367
0.224336
0.225310
0.226289
0.227275
0.228266
0.229263
0.230266
0.231275
0.232288
0.233308
0.234336
0.235369
0.236410
0.237457
0.238512
0.239573
0.240639
0.241715
0.242799
0.243891
0.244990
0.246097
0.247212
0.248337
0.249468
0.250608
0.107537
0.106534
0.103049
0.111381
0.013925
0.005816
0.006463
-0.002026
0.022475
0.030245
0.036133
-0.075328
-0.082823
-0.071027
-0.090552
-0.036845
-0.025771
-0.033555
0.221604
0.223848
0.222828
0.222210
-0.066796
-0.061944
-0.064272
-0.063995
-0.032505
0.203036
0.206708
0.203739
0.206319
-0.067195
-0.059283
-0.060771
-0.052633
-0.021807
-0.029278
-0.029105
-0.036934
-0.024887
-0.017421
-0.017934
0.167593
0.162598
0.168548
0.162541
-0.022243
0.011747
0.008310
0.016819
0.015337
0.075158
0.068340
0.076807
0.074352
0.073611
0.068125
0.067292
-0.165852
-0.164469
-0.173893
-0.169111
0.066145
-0.011359
-0.015679
-0.189034
-0.184026
-0.183991
-0.188997
-0.189051
-0.185193
-0.189240
-0.012141
-0.003214
-0.008194
-0.022572
-0.277993
-0.271272
-0.268872
-0.264866
0.243787
0.239629
0.238766
0.239721
-0.113793
-0.115144
-0.140019
-0.086376
-0.275095
-0.264236
-0.270349
-0.261084
-0.266867
-0.255031
-0.298835
-0.295086
-0.287727
-0.305880
-0.284516
-0.282341
-0.291800
-0.274808
-0.383079
-0.385452
-0.394387
-0.374469
0.222046
0.231423
0.230367
-0.011889
-0.182924
-0.007099
-0.027892
-0.023286
-0.027528
-0.025002
-0.189552
-0.193536
-0.082456
-0.091714
-0.090635
-0.194571
-0.126009
-0.122264
-0.119900
-0.136820
-0.118025
-0.121045
-0.101896
-0.082367
-0.056713
-0.083461
-0.054583
-0.094807
-0.091066
-0.104696
-0.085582
-0.138106
-0.125961
-0.128837
-0.114534
-0.129530
-0.072163
-0.067198
-0.071482
0.243333
0.244224
0.245920
0.240646
-0.064546
0.091857
0.085864
0.086573
0.243014
0.241717
-0.061521
-0.059197
-0.046419
-0.072052
-0.141189
-0.173859
-0.173191
0.043653
-0.322772
-0.319940
-0.330690
-0.314381
-0.020340
-0.020792
-0.007650
-0.009826
-0.223210
-0.224303
0.092718
-0.020029
-0.022827
-0.018904
-0.009012
0.002878
-0.065499
-0.062651
-0.056210
0.005892
-0.193071
-0.194429
-0.188276
0.226438
0.220862
0.227604
0.227403
-0.198163
0.020913
0.023583
0.024882
0.104614
0.101859
0.110159
0.058531
0.050510
0.053664
0.022765
0.011880
0.009984
0.046185
-0.016577
-0.014787
-0.011913
-0.131443
-0.136622
-0.139425
-0.126227
0.029318
0.041168
0.048321
0.016394
0.002763
0.145773
0.142944
0.149244
0.129359
0.131988
0.138060
-0.121810
-0.119938
-0.123984
-0.169464
-0.165893
-0.165674
0.219481
0.216430
0.218536
0.219430
0.235654
0.237470
0.238209
0.137322
-0.103580
-0.101680
-0.116473
0.070450
0.061864
0.057815
-0.229842
-0.225003
-0.220742
-0.216729
-0.219454
-0.213545
-0.210537
-0.206222
0.110366
0.109163
0.114712
0.209137
0.206020
-0.110669
0.115477
0.223189
0.220776
0.219621
-0.117971
-0.119493
-0.123553
-0.122686
-0.057371
-0.056177
-0.042390
0.182837
0.189361
0.185285
0.116592
0.111418
-0.041912
0.117199
-0.046518
-0.050707
-0.047548
0.202469
0.207072
0.203048
0.206817
0.225859
0.227396
0.223864
-0.062914
-0.066476
-0.066771
0.135430
0.141967
0.141447
0.135747
0.008583
0.015923
0.016124
-0.063361
-0.101648
-0.107357
-0.102490
0.150428
0.157618
0.155737
-0.104845
0.178813
-0.062831
-0.061288
0.174200
0.176052
0.178243
0.172029
0.010601
0.014957
0.014723
0.181714
0.185871
0.187861
0.019678
0.157784
0.157413
0.161545
0.191671
0.153096
-0.072062
-0.074231
-0.078430
-0.078584
0.038565
0.043686
0.038616
0.087642
0.082055
0.090337
0.081376
-0.064674
-0.069059
-0.061408
-0.064975
0.045218
-0.061101
-0.067330
0.008568
0.006027
0.011828
0.003936
0.002677
-0.062031
0.172988
0.167815
0.172849
0.128378
0.128767
0.124395
-0.154259
-0.163377
-0.160667
0.112844
0.110178
0.115046
0.109991
-0.118523
-0.125203
-0.118463
-0.125508
0.147954
0.152953
0.150886
-0.061679
-0.062172
-0.053689
0.039978
0.047835
0.039693
-0.070585
0.047417
-0.144800
-0.149590
-0.144064
-0.149792
0.239551
-0.242135
-0.237242
-0.231013
-0.228603
-0.198144
-0.200488
-0.250503
-0.251482
-0.243797
-0.043742
-0.042276
-0.257437
0.157384
0.183492
0.182709
0.174234
0.174401
0.178274
0.150000
-0.084652
-0.084939
-0.093005
0.169431
0.055950
0.041062
0.033193
0.008471
0.168855
0.166619
0.208809
0.209183
0.209979
-0.082535
-0.092382
0.181847
-0.107214
-0.102997
-0.114134
-0.099235
-0.219167
-0.220771
-0.227242
-0.228765
-0.198364
-0.203066
-0.208022
0.162770
0.157760
0.158630
0.211201
0.214188
0.215010
0.115053
0.104412
0.115444
-0.135727
-0.129323
-0.127002
-0.119429
0.103289
-0.092893
-0.102260
-0.093465
-0.055197
0.047446
0.055212
0.056501
0.168687
0.174065
0.175566
-0.132606
-0.137434
-0.142176
0.167912
0.176857
0.183713
-0.109137
-0.100561
-0.094200
-0.099263
0.004424
0.000544
-0.000234
-0.146387
-0.139489
-0.142081
-0.141370
-0.210411
-0.211580
-0.214662
-0.209201
0.072869
0.066326
0.069373
0.061048
0.173989
0.173517
0.169005
0.178571
0.179907
-0.055489
-0.054919
-0.051881
0.009367
-0.218844
-0.118254
-0.125534
0.188449
0.185208
0.186443
0.188879
-0.242325
-0.245303
-0.233857
-0.251917
-0.259931
0.154154
0.156241
0.152186
-0.116060
-0.032336
-0.037011
-0.039458
-0.216221
-0.223869
-0.200869
-0.199465
-0.195341
-0.043244
-0.047014
-0.053675
-0.061619
-0.061742
-0.074913
-0.070446
-0.072699
0.157866
0.153110
-0.272816
-0.285931
-0.279088
-0.115836
-0.117134
-0.124536
-0.124657
-0.066066
-0.072206
-0.066156
0.221084
0.221478
-0.369737
-0.362379
-0.315266
-0.315312
-0.325526
0.137428
0.133442
0.140415
-0.005061
-0.002266
0.000294
0.202693
0.201249
0.207539
-0.016833
-0.012947
-0.009740
0.137164
-0.000033
-0.010202
-0.005388
-0.184239
-0.185989
-0.181320
0.181032
0.181139
-0.089365
-0.094274
-0.100706
-0.102399
-0.081864
-0.079298
0.179664
-0.071159
-0.078666
-0.079447
-0.088117
-0.062027
0.015586
0.019928
-0.087906
-0.246660
-0.254747
-0.195583
-0.201404
-0.187455
-0.192141
-0.085898
-0.194291
-0.051465
-0.042383
-0.048951
-0.063801
-0.072162
-0.072667
0.224938
0.226149
0.223265
0.225652
-0.259111
-0.252800
-0.263670
0.162486
0.164779
0.161932
-0.234787
-0.228094
0.187829
0.187073
0.185544
-0.183872
-0.189187
0.184221
0.018577
0.210572
0.206961
-0.182583
-0.187548
-0.182613
-0.188095
-0.177394
-0.179097
-0.134148
-0.138740
-0.134912
-0.140094
-0.283700
-0.283480
-0.292661
0.212535
0.210167
0.212836
-0.129475
-0.133152
-0.127250
0.052958
0.030857
0.012009
0.054142
0.057922
0.051353
0.205718
-0.209146
-0.221373
-0.007337
-0.006914
0.157839
0.163315
0.162677
-0.009066
-0.016823
0.020756
0.022182
-0.221855
-0.214811
0.141407
0.136844
0.140798
0.212605
0.213720
0.192687
0.183113
0.196854
0.135392
0.145639
0.148367
-0.069225
-0.113751
-0.112479
-0.117812
-0.069052
0.189526
-0.164799
-0.157634
-0.160248
-0.121321
-0.122271
-0.125852
-0.127600
0.020396
0.022429
0.015378
-0.151954
-0.020456
-0.097792
-0.095190
-0.101182
-0.168839
-0.176534
-0.173006
-0.171465
0.203419
0.202115
0.200979
0.097190
0.101777
0.098517
0.215342
0.102953
0.096563
0.091914
0.025215
0.009748
0.016541
0.162561
0.158267
0.161640
0.220514
-0.159495
-0.157130
-0.161988
-0.156850
-0.161345
-0.156962
-0.157630
0.211635
0.003161
0.005161
-0.325123
-0.334015
-0.317181
-0.109459
-0.111534
-0.033481
-0.034911
-0.025715
-0.043735
0.123135
0.117002
0.115269
0.108055
0.075260
-0.170839
0.205054
0.202643
0.204104
-0.309700
-0.322033
-0.304102
-0.131241
-0.127099
-0.129062
-0.135675
-0.138630
0.187220
0.187541
0.191219
-0.181426
-0.181944
-0.187008
-0.185084
0.045885
0.048687
0.039489
0.047682
0.094461
0.088026
0.096706
0.087042
0.068549
0.073562
0.072046
0.211530
0.211107
0.077381
-0.164282
-0.165936
-0.104433
-0.103559
-0.098909
-0.098254
0.126913
0.133713
0.135536
0.142705
0.118828
0.117300
-0.044938
0.108577
0.026055
0.032217
0.029295
0.007384
0.003277
-0.006031
-0.008392
0.027366
0.014249
-0.218949
-0.221253
-0.227853
0.018632
-0.215716
-0.210579
-0.206310
-0.141368
-0.134882
-0.081407
-0.078666
-0.086026
-0.022738
-0.120370
-0.124674
-0.128306
-0.119449
-0.129961
-0.127291
-0.126133
0.078259
0.080929
0.081702
-0.044354
-0.048832
-0.045688
-0.047744
0.166164
0.169147
0.166379
0.170576
-0.029034
-0.025957
-0.025388
0.111520
0.118036
0.075242
0.095878
0.100162
0.049181
0.057605
0.053942
0.055541
0.004901
0.009111
0.009448
0.014246
-0.100440
-0.105299
-0.105573
-0.110795
-0.103947
-0.108103
-0.079756
0.198944
0.200202
0.084610
0.083247
0.077559
0.091620
0.061432
0.063859
0.062721
0.082693
0.087702
0.081607
0.216369
-0.171840
-0.174358
-0.167379
-0.093154
-0.087781
-0.089194
-0.084150
-0.114294
-0.109415
-0.113295
-0.106650
-0.115056
-0.121129
0.114876
0.119471
0.116562
0.212244
0.210896
0.122760
0.108878
0.102053
0.111024
0.103431
-0.053895
-0.052410
-0.047391
-0.057958
-0.169896
-0.190588
-0.192429
-0.054782
-0.052660
-0.058481
0.075174
0.081368
0.079161
0.079709
-0.003539
-0.006709
-0.112988
-0.109902
-0.025336
-0.016187
0.016313
0.018176
0.064664
0.070496
-0.203251
-0.210851
-0.076799
-0.073652
-0.076732
0.033279
0.026805
0.035151
-0.021112
0.027429
0.032725
0.033339
0.030334
0.025603
0.031520
-0.058449
-0.060105
-0.055726
-0.189367
0.020676
-0.082100
-0.079702
-0.078290
-0.115766
-0.016057
-0.017837
-0.109401
-0.111245
-0.102877
-0.118142
-0.153283
-0.134992
-0.124129
-0.123516
-0.153676
-0.150395
-0.150378
-0.091696
0.061997
0.054761
0.055779
0.039519
0.039522
0.031687
0.027878
0.050788
0.031528
-0.112785
-0.116073
-0.120880
-0.117822
-0.110681
-0.113017
-0.024364
-0.026878
-0.021073
-0.029806
-0.030815
-0.034740
-0.092562
-0.086526
-0.086056
-0.080418
0.101783
0.109261
0.194940
-0.140694
-0.134204
-0.523707
-0.553624
0.099047
0.113825
0.119029
-0.152567
-0.156957
-0.159031
-0.218442
-0.148672
-0.145999
-0.142779
0.098051
0.092209
0.086085
-0.094861
-0.089401
-0.037783
-0.045850
-0.047770
-0.086664
0.026596
0.028430
0.033608
0.022573
-0.153836
-0.043028
-0.048956
-0.029203
-0.034209
0.138285
0.127413
0.139278
0.128558
0.147440
0.150823
0.086568
0.091525
0.086834
0.092848
0.089782
0.094601
0.080899
0.128046
0.129191
0.194901
0.195073
0.191462
0.198359
0.198121
0.076353
0.062651
0.164764
0.161963
-0.095373
-0.095085
-0.122570
0.089515
0.093865
-0.073834
-0.079737
-0.003470
-0.013311
0.186723
0.148462
0.147586
0.140883
0.105214
0.100212
0.098713
0.093885
0.132237
-0.077594
0.119585
-0.177324
-0.175243
-0.180245
-0.111471
-0.098190
-0.144462
-0.149022
-0.443870
-0.498165
-0.465432
0.055120
0.054324
0.061865
-0.146335
-0.141673
0.136975
0.133812
0.004958
0.012334
-0.083237
-0.072297
-0.067291
-0.103195
-0.128848
0.122437
0.126299
0.128021
-0.317901
-0.317933
-0.329437
0.120754
0.101687
0.098596
0.097777
-0.090689
-0.064772
-0.031525
-0.373498
-0.024984
0.131649
0.135431
0.136563
0.073671
0.075615
0.105204
0.109532
0.076451
0.068478
0.070388
0.183703
-0.051318
-0.027615
-0.036332
0.182669
-0.007091
-0.003417
-0.012836
0.101968
-0.055347
-0.017842
-0.007611
-0.020664
-0.384953
-0.357995
-0.410018
-0.002430
0.003121
-0.147663
-0.151943
-0.404031
-0.386267
-0.416169
-0.026848
-0.354132
-0.445731
-0.454438
-0.431734
-0.105399
-0.046997
-0.070045
0.215889
0.217587
-0.430747
-0.412994
-0.041101
-0.039759
0.097207
0.082511
0.092153
-0.015602
-0.036462
-0.025417
-0.037288
-0.043152
-0.044654
-0.014009
0.199875
0.202019
0.202934
-0.018233
-0.025728
-0.036017
-0.039446
-0.039798
-0.045197
0.038058
0.042380
0.037979
-0.007120
-0.415214
-0.427922
-0.414255
-0.178602
-0.177204
-0.181890
-0.173592
-0.181906
-0.186491
-0.190294
-0.179106
-0.173564
-0.184518
-0.174558
-0.059077
0.093979
0.093803
0.090100
-0.042404
0.090945
0.152189
0.154120
0.160892
-0.053402
-0.055798
0.145376
0.150426
0.152667
-0.133490
-0.131584
-0.033410
0.119840
-0.014373
0.105087
-0.399726
-0.400730
-0.439771
0.106194
0.107758
0.247553
0.246929
0.104113
0.185258
0.217182
-0.077442
0.248683
0.247564
0.249748
0.248214
0.186654
0.189672
0.190599
0.193510
0.040693
0.137222
0.139376
0.135986
-0.139587
-0.137522
-0.134625
0.133816
0.132292
0.181736
-0.349340
-0.356305
-0.334074
-0.375333
0.180179
-0.014012
0.116205
0.121367
0.121589
0.168597
0.166389
0.164323
0.161743
0.011869
0.002135
-0.191928
-0.195256
-0.081877
-0.201857
0.170640
0.172261
0.173804
-0.203817
-0.407340
-0.432994
0.215240
0.152220
-0.368690
-0.356025
0.045023
0.038058
0.043769
0.036044
0.218931
0.200158
0.213392
0.204375
0.151836
0.244192
-0.125180
-0.403618
-0.354194
-0.284927
-0.280775
-0.289502
-0.272940
-0.173343
-0.167341
-0.168237
-0.163294
-0.171734
-0.167568
-0.346256
-0.037267
-0.044451
-0.049637
-0.361842
-0.352671
-0.363034
-0.352251
-0.354756
-0.190363
-0.185196
-0.180445
-0.196150
-0.258787
-0.247259
-0.254435
-0.259696
-0.274802
-0.231599
-0.239324
-0.222631
-0.104485
-0.109195
-0.101465
-0.304981
-0.306291
-0.303461
-0.390146
-0.390050
-0.380022
-0.302500
-0.299648
-0.292559
-0.282530
-0.287850
-0.352109
-0.344014
-0.355095
-0.335672
-0.338241
-0.347883
-0.346743
0.177167
-0.289281
-0.280965
-0.030263
-0.042021
-0.286536
-0.282777
-0.293920
-0.290309
-0.279216
-0.290009
-0.280033
-0.110283
-0.341820
-0.332824
-0.092428
-0.193246
-0.202815
-0.200446
-0.193959
-0.189354
-0.308678
-0.318541
-0.305635
0.044206
0.049596
0.049351
0.175397
-0.177351
-0.182268
-0.188244
-0.172722
0.007624
0.000192
-0.022500
-0.300323
-0.305147
-0.291188
-0.341690
-0.351282
-0.313277
-0.492710
-0.424771
-0.401252
0.178686
-0.246427
-0.237159
-0.374849
-0.233828
-0.343530
-0.340506
-0.358931
-0.330602
-0.329314
-0.294132
-0.306809
-0.311404
-0.318107
0.042149
0.058880
0.004598
-0.215991
-0.227368
0.001939
-0.230301
-0.238118
-0.239750
-0.229786
-0.220653
-0.221945
-0.367252
-0.368337
-0.346936
0.054408
-0.227972
0.131576
0.132606
-0.248258
-0.245134
-0.235849
-0.317935
-0.328946
-0.327041
-0.323785
-0.187749
-0.193700
-0.198354
-0.137253
-0.135597
-0.145427
-0.148193
-0.140482
-0.228976
-0.236476
-0.238477
0.233429
0.231710
-0.333398
-0.337502
0.230422
-0.075178
-0.109993
-0.208180
-0.214580
-0.221744
-0.233756
-0.221306
0.006249
-0.019237
0.023581
-0.158756
-0.158267
0.217519
0.208586
0.212031
0.214774
-0.323231
-0.317420
-0.332463
-0.330263
-0.285716
-0.278533
-0.275242
-0.270135
-0.002943
-0.332436
-0.320962
-0.333684
-0.312417
-0.324842
-0.169618
-0.182255
-0.173542
-0.177090
-0.166286
-0.344427
-0.375591
-0.218248
-0.228127
0.000298
0.009459
-0.001163
0.011034
-0.213696
-0.204456
-0.211759
-0.206708
-0.198496
0.214217
-0.093181
-0.093281
-0.098508
-0.083545
0.235443
0.234260
0.232933
-0.198387
-0.221174
-0.227493
-0.220790
-0.233282
-0.234975
-0.338332
-0.327861
-0.337051
0.246947
-0.276519
-0.279492
-0.268270
-0.270988
-0.347938
-0.364823
-0.385198
-0.263832
-0.227536
-0.234858
-0.236918
-0.235547
-0.224160
-0.218583
-0.047257
-0.035753
-0.267130
-0.260211
-0.259122
-0.249431
-0.249067
0.227816
0.229326
-0.008197
-0.003346
0.001389
-0.000556
-0.211699
-0.223674
-0.284067
-0.274765
-0.295154
-0.197865
-0.183055
-0.192870
-0.209731
-0.291866
-0.298585
-0.286991
-0.302529
-0.307129
-0.158136
-0.146252
-0.182285
-0.195205
0.067916
0.074580
0.062500
0.048968
0.049873
-0.295501
-0.278217
-0.267239
-0.277485
-0.286758
-0.286919
-0.301820
-0.315247
-0.290643
-0.291362
-0.290251
-0.280030
-0.168053
-0.173072
-0.011190
-0.159835
-0.152500
-0.152186
-0.144942
-0.257933
-0.267113
-0.277704
-0.275891
0.024709
-0.244040
-0.243317
-0.298735
-0.296423
-0.306682
-0.298353
-0.328572
-0.274726
-0.269941
-0.264628
-0.280133
-0.287116
0.183119
0.184235
0.181168
-0.267235
-0.257499
-0.194944
-0.304532
-0.309443
-0.319884
-0.254001
-0.259622
-0.249261
-0.243926
-0.155823
-0.151640
-0.145908
-0.152179
-0.274001
-0.265227
0.228293
0.223753
0.213452
-0.211646
-0.277294
-0.279412
-0.214692
-0.258986
-0.267740
-0.262375
-0.263216
-0.195441
-0.204068
-0.248564
-0.254416
-0.180841
-0.175366
-0.165541
-0.158792
-0.169024
-0.306503
0.116721
-0.164942
-0.158156
-0.170688
0.220660
-0.188382
-0.202638
0.172992
0.172282
0.174994
-0.195262
-0.205693
0.232668
0.125655
-0.325118
-0.150406