# vtk DataFile Version 2.0
Test
ASCII
DATASET POLYDATA
POINTS 858 float
0.000000 0.000000 0.000000
1.000000 0.000000 0.000000
1.000000 1.000000 0.000000
0.000000 1.000000 0.000000
0.300000 0.330000 0.000000
0.700000 0.680000 0.000000
0.100000 0.000000 0.000000
0.200000 0.000000 0.000000
0.300000 0.000000 0.000000
0.400000 0.000000 0.000000
0.500000 0.000000 0.000000
0.600000 0.000000 0.000000
0.700000 0.000000 0.000000
0.800000 0.000000 0.000000
0.900000 0.000000 0.000000
1.000000 0.100000 0.000000
1.000000 0.200000 0.000000
1.000000 0.300000 0.000000
1.000000 0.400000 0.000000
1.000000 0.500000 0.000000
1.000000 0.600000 0.000000
1.000000 0.700000 0.000000
1.000000 0.800000 0.000000
1.000000 0.900000 0.000000
0.900000 1.000000 0.000000
0.800000 1.000000 0.000000
0.700000 1.000000 0.000000
0.600000 1.000000 0.000000
0.500000 1.000000 0.000000
0.400000 1.000000 0.000000
0.300000 1.000000 0.000000
0.200000 1.000000 0.000000
0.100000 1.000000 0.000000
0.000000 0.900000 0.000000
0.000000 0.800000 0.000000
0.000000 0.700000 0.000000
0.000000 0.600000 0.000000
0.000000 0.500000 0.000000
0.000000 0.400000 0.000000
0.000000 0.300000 0.000000
0.000000 0.200000 0.000000
0.000000 0.100000 0.000000
0.307407 0.336481 0.000000
0.314815 0.342963 0.000000
0.322222 0.349444 0.000000
0.329630 0.355926 0.000000
0.337037 0.362407 0.000000
0.344444 0.368889 0.000000
0.351852 0.375370 0.000000
0.359259 0.381852 0.000000
0.366667 0.388333 0.000000
0.374074 0.394815 0.000000
0.381481 0.401296 0.000000
0.388889 0.407778 0.000000
0.396296 0.414259 0.000000
0.403704 0.420741 0.000000
0.411111 0.427222 0.000000
0.418519 0.433704 0.000000
0.425926 0.440185 0.000000
0.433333 0.446667 0.000000
0.440741 0.453148 0.000000
0.448148 0.459630 0.000000
0.455556 0.466111 0.000000
0.462963 0.472593 0.000000
0.470370 0.479074 0.000000
0.477778 0.485556 0.000000
0.485185 0.492037 0.000000
0.492593 0.498519 0.000000
0.500000 0.505000 0.000000
0.507407 0.511481 0.000000
0.514815 0.517963 0.000000
0.522222 0.524444 0.000000
0.529630 0.530926 0.000000
0.537037 0.537407 0.000000
0.544444 0.543889 0.000000
0.551852 0.550370 0.000000
0.559259 0.556852 0.000000
0.566667 0.563333 0.000000
0.574074 0.569815 0.000000
0.581481 0.576296 0.000000
0.588889 0.582778 0.000000
0.596296 0.589259 0.000000
0.603704 0.595741 0.000000
0.611111 0.602222 0.000000
0.618519 0.608704 0.000000
0.625926 0.615185 0.000000
0.633333 0.621667 0.000000
0.640741 0.628148 0.000000
0.648148 0.634630 0.000000
0.655556 0.641111 0.000000
0.662963 0.647593 0.000000
0.670370 0.654074 0.000000
0.677778 0.660556 0.000000
0.685185 0.667037 0.000000
0.692593 0.673519 0.000000
0.548037 0.570873 0.000000
0.554453 0.579695 0.000000
0.540788 0.582045 0.000000
0.550492 0.594703 0.000000
0.338797 0.350505 0.000000
0.329823 0.347064 0.000000
0.335712 0.339262 0.000000
0.451687 0.438509 0.000000
0.442642 0.430741 0.000000
0.457884 0.427703 0.000000
0.387297 0.847474 0.000000
0.374793 0.914734 0.000000
0.332869 0.847471 0.000000
0.447069 0.415163 0.000000
0.567391 0.482596 0.000000
0.554659 0.473874 0.000000
0.567453 0.464800 0.000000
0.301190 0.902112 0.000000
0.551747 0.457138 0.000000
0.356532 0.391813 0.000000
0.347986 0.386048 0.000000
0.176207 0.429241 0.000000
0.128375 0.468105 0.000000
0.136378 0.404291 0.000000
0.185621 0.475277 0.000000
0.497512 0.261165 0.000000
0.499167 0.296032 0.000000
0.469918 0.291504 0.000000
0.642232 0.687989 0.000000
0.624295 0.701188 0.000000
0.630549 0.678643 0.000000
0.647682 0.074905 0.000000
0.700945 0.096046 0.000000
0.657288 0.160421 0.000000
0.611443 0.684403 0.000000
0.559779 0.406431 0.000000
0.582162 0.394521 0.000000
0.580552 0.422827 0.000000
0.560788 0.374759 0.000000
0.541503 0.468043 0.000000
0.545465 0.480978 0.000000
0.428301 0.394826 0.000000
0.414860 0.384611 0.000000
0.432086 0.374027 0.000000
0.533961 0.477886 0.000000
0.527361 0.464336 0.000000
0.415481 0.368142 0.000000
0.484401 0.527206 0.000000
0.472984 0.524144 0.000000
0.481205 0.518972 0.000000
0.394266 0.424909 0.000000
0.401826 0.431399 0.000000
0.392742 0.434502 0.000000
0.642418 0.617836 0.000000
0.635302 0.612878 0.000000
0.644322 0.605726 0.000000
0.263646 0.464175 0.000000
0.250486 0.498376 0.000000
0.230296 0.467342 0.000000
0.491693 0.468898 0.000000
0.498004 0.479972 0.000000
0.487381 0.480785 0.000000
0.718619 0.489140 0.000000
0.756680 0.466072 0.000000
0.751564 0.516847 0.000000
0.497232 0.719177 0.000000
0.477497 0.748035 0.000000
0.465924 0.716726 0.000000
0.501292 0.467390 0.000000
0.529064 0.285755 0.000000
0.547173 0.240449 0.000000
0.474742 0.511943 0.000000
0.403118 0.392815 0.000000
0.412434 0.399392 0.000000
0.653057 0.614785 0.000000
0.659187 0.602396 0.000000
0.400247 0.379451 0.000000
0.459133 0.636583 0.000000
0.434636 0.647284 0.000000
0.440667 0.616932 0.000000
0.453650 0.664799 0.000000
0.666296 0.616100 0.000000
0.657731 0.628197 0.000000
0.420489 0.468863 0.000000
0.414183 0.459489 0.000000
0.424065 0.460120 0.000000
0.629321 0.574616 0.000000
0.630370 0.589442 0.000000
0.617226 0.584388 0.000000
0.422026 0.450877 0.000000
0.590180 0.614274 0.000000
0.596278 0.627413 0.000000
0.585881 0.628067 0.000000
0.630677 0.603443 0.000000
0.529117 0.486095 0.000000
0.517046 0.488781 0.000000
0.522040 0.477224 0.000000
0.308641 0.392803 0.000000
0.323746 0.398675 0.000000
0.304273 0.411173 0.000000
0.146020 0.514086 0.000000
0.087335 0.505198 0.000000
0.624982 0.561914 0.000000
0.643811 0.559907 0.000000
0.831909 0.406061 0.000000
0.881376 0.423788 0.000000
0.839177 0.457573 0.000000
0.509066 0.478681 0.000000
0.614792 0.620247 0.000000
0.608406 0.635616 0.000000
0.603251 0.619643 0.000000
0.640290 0.595050 0.000000
0.524731 0.497540 0.000000
0.338689 0.392113 0.000000
0.347423 0.395876 0.000000
0.340116 0.407012 0.000000
0.686563 0.659098 0.000000
0.682555 0.651347 0.000000
0.934704 0.856355 0.000000
0.940546 0.930926 0.000000
0.863552 0.916423 0.000000
0.172107 0.566287 0.000000
0.188105 0.516551 0.000000
0.221330 0.532895 0.000000
0.683914 0.680068 0.000000
0.692945 0.685712 0.000000
0.683376 0.697853 0.000000
0.672414 0.683990 0.000000
0.557147 0.529227 0.000000
0.554161 0.540325 0.000000
0.546244 0.533101 0.000000
0.391911 0.394487 0.000000
0.387591 0.383772 0.000000
0.385780 0.368800 0.000000
0.671617 0.628861 0.000000
0.664093 0.637808 0.000000
0.408700 0.450928 0.000000
0.406517 0.467364 0.000000
0.394366 0.455525 0.000000
0.388841 0.472148 0.000000
0.792728 0.486062 0.000000
0.461047 0.516036 0.000000
0.460182 0.532753 0.000000
0.450617 0.523703 0.000000
0.364207 0.398120 0.000000
0.371344 0.402923 0.000000
0.362621 0.408449 0.000000
0.235276 0.413110 0.000000
0.235915 0.390376 0.000000
0.260894 0.399649 0.000000
0.564107 0.604249 0.000000
0.558497 0.625526 0.000000
0.545610 0.611482 0.000000
0.542035 0.628852 0.000000
0.441269 0.401429 0.000000
0.443649 0.385779 0.000000
0.454140 0.398188 0.000000
0.456246 0.380948 0.000000
0.531090 0.597071 0.000000
0.528592 0.618783 0.000000
0.693800 0.600685 0.000000
0.675646 0.601117 0.000000
0.688895 0.583493 0.000000
0.466943 0.412411 0.000000
0.469666 0.393398 0.000000
0.215629 0.311290 0.000000
0.236374 0.342186 0.000000
0.194357 0.347185 0.000000
0.372859 0.289727 0.000000
0.362694 0.307734 0.000000
0.346245 0.295576 0.000000
0.824768 0.656091 0.000000
0.787989 0.680173 0.000000
0.787481 0.637866 0.000000
0.763354 0.658567 0.000000
0.564845 0.587843 0.000000
0.565674 0.575091 0.000000
0.575285 0.580662 0.000000
0.591463 0.532694 0.000000
0.606735 0.524365 0.000000
0.606700 0.541268 0.000000
0.696107 0.663701 0.000000
0.695223 0.651919 0.000000
0.114270 0.553146 0.000000
0.897846 0.490106 0.000000
0.941355 0.438159 0.000000
0.491870 0.442127 0.000000
0.508682 0.433741 0.000000
0.504276 0.453072 0.000000
0.616608 0.507977 0.000000
0.629719 0.487283 0.000000
0.643435 0.510566 0.000000
0.660659 0.486926 0.000000
0.584650 0.557787 0.000000
0.582076 0.545531 0.000000
0.595086 0.552412 0.000000
0.215445 0.494211 0.000000
0.502563 0.534321 0.000000
0.493623 0.527201 0.000000
0.502900 0.523550 0.000000
0.490744 0.536689 0.000000
0.303740 0.348241 0.000000
0.312638 0.354325 0.000000
0.302746 0.359450 0.000000
0.683727 0.548378 0.000000
0.666144 0.562133 0.000000
0.663581 0.542222 0.000000
0.366098 0.324774 0.000000
0.379406 0.309842 0.000000
0.251675 0.434611 0.000000
0.214900 0.437402 0.000000
0.581091 0.493223 0.000000
0.603283 0.484739 0.000000
0.593195 0.510449 0.000000
0.429738 0.356510 0.000000
0.412970 0.350726 0.000000
0.358920 0.356811 0.000000
0.352460 0.366146 0.000000
0.347463 0.357590 0.000000
0.353794 0.402394 0.000000
0.527483 0.436280 0.000000
0.546965 0.439869 0.000000
0.535210 0.453469 0.000000
0.624606 0.790385 0.000000
0.614250 0.755688 0.000000
0.654837 0.763041 0.000000
0.384960 0.332814 0.000000
0.619946 0.597007 0.000000
0.358705 0.265521 0.000000
0.397502 0.266486 0.000000
0.377869 0.228897 0.000000
0.471169 0.372235 0.000000
0.492664 0.362648 0.000000
0.488718 0.386734 0.000000
0.431288 0.062893 0.000000
0.512348 0.074893 0.000000
0.450325 0.128772 0.000000
0.515327 0.223180 0.000000
0.538419 0.183215 0.000000
0.367912 0.509419 0.000000
0.343175 0.515399 0.000000
0.351317 0.488263 0.000000
0.593186 0.193353 0.000000
0.476496 0.230456 0.000000
0.594140 0.256114 0.000000
0.629340 0.367381 0.000000
0.659922 0.374166 0.000000
0.641019 0.397588 0.000000
0.669525 0.412603 0.000000
0.510665 0.591750 0.000000
0.493263 0.584115 0.000000
0.507476 0.576852 0.000000
0.492575 0.790205 0.000000
0.516533 0.753914 0.000000
0.493265 0.606545 0.000000
0.794852 0.435952 0.000000
0.797754 0.379724 0.000000
0.755728 0.420083 0.000000
0.528549 0.642034 0.000000
0.507334 0.653897 0.000000
0.509532 0.626562 0.000000
0.580705 0.748031 0.000000
0.605192 0.727758 0.000000
0.748472 0.635779 0.000000
0.742539 0.660255 0.000000
0.323194 0.421808 0.000000
0.325468 0.445306 0.000000
0.301700 0.435431 0.000000
0.295276 0.460827 0.000000
0.622421 0.457821 0.000000
0.642814 0.468538 0.000000
0.320303 0.468200 0.000000
[...]
POINT_DATA 858
SCALARS UX float 1
LOOKUP_TABLE default
-0.000000
0.000000
0.109523
-0.109959
-0.034066
0.042958
0.000000
-0.000000
-0.000000
-0.000000
-0.000000
0.000000
0.000000
0.000000
-0.000000
0.050192
0.077332
0.091973
0.100627
0.105583
0.108081
0.109297
0.109551
0.109549
0.088123
0.066514
0.044632
0.022336
-0.000161
-0.022643
-0.044994
-0.066959
-0.088586
-0.109883
-0.109753
-0.109256
-0.108058
-0.105725
-0.101078
-0.092648
-0.076969
-0.051750
-0.033408
-0.032519
-0.031616
-0.030657
-0.029645
-0.028579
-0.027476
-0.026334
-0.025160
-0.023955
-0.022720
-0.021461
-0.020175
-0.018863
-0.017529
-0.016175
-0.014798
-0.013403
-0.011989
-0.010556
-0.009105
-0.007638
-0.006155
-0.004657
-0.003143
-0.001617
-0.000077
0.001476
0.003040
0.004616
0.006202
0.007798
0.009403
0.011015
0.012634
0.014261
0.015894
0.017531
0.019173
0.020819
0.022467
0.024117
0.025769
0.027420
0.029068
0.030713
0.032351
0.033979
0.035591
0.037196
0.038758
0.040178
0.041493
0.010237
0.011649
0.008674
0.010806
-0.028635
-0.030067
-0.028566
-0.009603
-0.011308
-0.008248
-0.025491
-0.028310
-0.037643
-0.010221
0.013922
0.011220
0.013769
-0.044668
0.010500
-0.027282
-0.028718
-0.065711
-0.077595
-0.072886
-0.065624
-0.000216
0.000005
-0.004573
0.031070
0.027248
0.028473
0.006901
0.012593
0.015693
0.024327
0.011591
0.015700
0.015866
0.011353
0.008482
0.009366
-0.013507
-0.015830
-0.012371
0.006974
0.005575
-0.015296
-0.003435
-0.005852
-0.004085
-0.020846
-0.019479
-0.021380
0.031085
0.029493
0.031476
-0.048756
-0.052579
-0.055828
-0.001717
-0.000447
-0.002645
0.045646
0.052955
0.053340
-0.000909
-0.005301
-0.007882
0.000253
0.004662
0.006588
-0.005423
-0.018279
-0.016652
0.033451
0.034766
-0.018442
-0.009278
-0.014708
-0.013271
-0.010553
0.036415
0.034508
-0.016350
-0.017504
-0.015487
0.027983
0.028310
0.025391
-0.015762
0.019537
0.020894
0.018609
0.028443
0.005999
0.003495
0.004516
-0.036901
-0.034132
-0.038563
-0.075328
-0.087534
0.026930
0.031016
0.065952
0.077411
0.070051
0.001840
0.024966
0.023570
0.022421
0.030530
0.005109
-0.030836
-0.029251
-0.031163
0.040914
0.040033
0.095634
0.096834
0.080309
-0.070997
-0.066373
-0.059680
0.039812
0.041841
0.040325
0.037510
0.012072
0.011479
0.009757
-0.020481
-0.020978
-0.020800
0.037629
0.035910
-0.018479
-0.019215
-0.021501
-0.022960
0.061250
-0.008342
-0.008624
-0.010605
-0.026011
-0.024771
-0.026694
-0.052443
-0.051189
-0.046539
0.013798
0.012589
0.009750
0.008973
-0.011143
-0.010434
-0.008628
-0.008010
0.006566
0.006019
0.042405
0.038412
0.041109
-0.006321
-0.005621
-0.050008
-0.048685
-0.057221
-0.019995
-0.022450
-0.024691
0.071672
0.064029
0.063354
0.058467
0.013932
0.014082
0.016194
0.019438
0.022626
0.022787
0.043225
0.042930
-0.083081
0.083796
0.090753
-0.001595
0.001767
0.000878
0.024524
0.026960
0.030251
0.033435
0.018136
0.017510
0.020365
-0.059885
0.000422
-0.001472
0.000508
-0.002109
-0.035066
-0.033821
-0.036236
0.039492
0.035889
0.035060
-0.022584
-0.019725
-0.050092
-0.057873
0.016876
0.021414
0.019605
-0.012423
-0.015284
-0.025280
-0.026920
-0.027422
-0.028238
0.005505
0.009407
0.007128
0.027797
0.025359
0.034535
-0.019636
0.026048
-0.021087
-0.015148
-0.016192
-0.005156
-0.001180
-0.001995
-0.002455
0.000736
-0.003864
0.002179
0.004331
-0.027999
-0.033346
-0.031114
0.010711
-0.002910
0.013637
0.023836
0.029839
0.027072
0.033200
0.002108
-0.001674
0.001428
-0.001887
0.003441
-0.001716
0.059756
0.057337
0.050902
0.006008
0.001326
0.001829
0.017800
0.023191
0.054580
0.053784
-0.035137
-0.035428
-0.039962
-0.042110
0.024912
0.029318
-0.037125
0.006006
-0.008140
-0.006139
-0.009854
-0.065843
-0.076630
-0.087683
-0.062284
-0.056905
-0.050890
-0.010505
-0.011846
0.039587
0.043494
-0.046289
-0.046603
-0.082948
-0.067454
-0.090422
-0.097162
-0.026762
-0.039528
-0.033320
-0.040048
-0.031523
0.022039
0.023508
-0.075998
0.074637
0.085068
0.040471
-0.061774
-0.055997
-0.080826
-0.023647
-0.027180
-0.019744
-0.022937
-0.024707
-0.029070
-0.030322
0.070340
-0.012873
-0.015242
-0.031400
-0.025558
-0.022897
-0.000766
0.002893
0.002582
0.035140
0.026470
0.057544
-0.018889
-0.024186
-0.012174
-0.005956
-0.005316
-0.013891
0.064279
0.060102
-0.001178
0.046439
0.042136
0.037289
-0.030714
-0.014461
-0.021696
-0.015144
-0.005120
0.019332
-0.059767
-0.052569
-0.014239
0.015601
0.023595
-0.075654
-0.067196
-0.031399
0.043620
0.053642
0.043410
-0.027542
-0.029999
-0.003627
-0.004436
0.034587
0.039193
-0.065836
-0.050448
-0.049103
0.071085
-0.032036
0.036484
0.037379
0.043299
0.033990
0.039501
-0.012231
-0.047295
-0.042780
-0.004202
-0.029534
-0.014444
-0.012979
-0.054049
-0.029292
-0.057281
-0.023519
-0.047332
-0.045464
-0.037343
0.048862
0.051025
0.049540
0.019148
0.021693
-0.014107
-0.012830
0.020212
0.023294
0.070203
0.072294
-0.011770
0.044241
0.049631
-0.036314
-0.006721
-0.010828
-0.043869
-0.036738
-0.027279
-0.024520
-0.027369
-0.023496
-0.030885
0.031346
0.032815
0.035920
-0.094384
0.017350
0.023812
0.031176
0.033002
-0.017460
-0.018341
0.080862
0.081427
0.093826
0.092020
0.001066
-0.027224
-0.025029
0.030092
0.026973
0.026358
0.050135
0.055910
0.002971
0.005067
-0.002976
-0.003234
-0.004727
0.000716
0.028364
0.018006
0.032944
0.002556
0.007073
0.041880
0.045356
-0.032827
-0.029727
-0.030260
0.007950
0.004376
-0.027691
0.006516
-0.038387
-0.034935
-0.042261
0.029275
0.028474
-0.043542
-0.045412
-0.038580
-0.015169
-0.018125
0.046683
0.053425
-0.019524
-0.013964
-0.010772
0.016544
-0.000293
-0.001897
0.026246
0.025802
-0.041237
-0.022274
-0.022858
0.036171
0.034373
0.008442
0.007718
0.005979
0.000603
0.018607
0.018655
0.045816
-0.023320
0.016071
0.018838
0.015305
-0.024760
-0.029728
-0.031794
-0.002555
-0.020427
0.032569
0.034894
0.010174
0.002131
-0.029344
-0.007317
-0.005921
-0.008087
0.021294
0.019786
-0.039449
-0.043702
0.027730
0.020760
0.027581
0.029544
0.027097
-0.005198
-0.023112
0.025952
-0.019665
-0.019733
0.007642
-0.026420
-0.002769
0.042683
0.040038
0.009693
0.077336
-0.037042
0.012111
-0.005313
-0.048282
-0.041663
-0.024483
-0.067994
-0.054839
-0.029012
0.081701
0.071976
0.068152
0.057490
0.094535
0.038611
-0.012847
0.008880
0.010832
-0.000199
0.002271
-0.007178
-0.035620
-0.034224
-0.004024
-0.001707
-0.003855
-0.008735
-0.010278
0.020650
0.016756
0.021007
-0.020806
0.003868
0.063156
0.013359
0.017454
0.019559
0.006594
0.023259
0.024850
-0.006315
0.016460
0.015789
0.029903
-0.007374
-0.010163
-0.038716
-0.009057
0.035561
0.033373
0.046452
-0.055695
0.013084
-0.042132
0.007218
0.006010
-0.005151
0.012160
0.045295
-0.020572
-0.020427
-0.016900
0.017365
-0.024435
-0.004183
0.016329
-0.012234
-0.026224
-0.024513
0.002172
-0.009229
0.004512
0.004620
-0.021051
0.061061
0.064435
-0.047911
-0.036572
-0.057769
-0.015889
0.030889
0.064123
0.079359
0.065461
0.021643
0.056334
-0.026157
-0.023017
0.002995
-0.018214
0.011953
0.007311
0.013209
-0.016490
-0.018036
0.017698
0.016400
-0.023090
-0.024886
-0.019226
0.020875
-0.020305
0.010606
-0.035740
-0.008318
-0.006901
-0.009155
-0.008799
-0.008951
0.008716
0.014397
0.000917
-0.006910
-0.010773
-0.007784
0.032278
-0.009055
0.006901
0.005212
0.007571
0.009757
0.003767
0.045430
-0.017330
-0.013911
-0.040565
0.016979
-0.012374
0.015665
-0.001783
0.044712
-0.034062
0.061015
-0.010996
-0.012891
0.023682
0.035160
-0.079235
-0.097911
-0.016925
0.045450
-0.029603
0.047237
0.036181
-0.087449
-0.089608
-0.069682
0.089892
0.075328
-0.011397
-0.009949
-0.012565
0.044847
-0.031192
0.038512
-0.007858
0.007211
0.046041
0.054090
-0.058022
-0.098220
0.032767
-0.016365
-0.012316
0.020171
0.048768
0.045732
0.006889
-0.012933
-0.017346
0.050466
-0.005946
-0.031017
-0.029721
-0.031968
0.038392
0.034672
-0.032151
0.016298
0.047187
-0.015845
0.038325
0.026100
-0.044564
-0.042374
0.020100
-0.036344
-0.038428
-0.016706
-0.017835
-0.024001
-0.025555
-0.011479
0.012151
0.033215
-0.014699
-0.013856
-0.025470
0.002677
-0.036589
0.002509
0.004291
0.013523
0.011273
-0.009212
-0.011398
-0.030621
-0.001353
-0.022202
0.056222
-0.009043
0.023021
0.014174
0.014075
0.016664
0.012798
0.008027
0.007921
-0.005156
-0.007580
0.018786
-0.001372
-0.031749
-0.001470
-0.016366
-0.012976
-0.032555
-0.013899
-0.012349
0.024235
0.013182
-0.014647
0.010776
0.002384
-0.004227
-0.003119
0.029158
0.014615
-0.013790
-0.014905
-0.013706
0.009325
0.005367
SCALARS UY float 1
LOOKUP_TABLE default
-0.000000
-0.000000
-0.710000
-0.710000
-0.223866
-0.478595
-0.000000
-0.000000
-0.000000
-0.000000
-0.000000
-0.000000
-0.000000
-0.000000
-0.000000
-0.087024
-0.157425
-0.225046
-0.291792
-0.359351
-0.428104
-0.497672
-0.568004
-0.638868
-0.710000
-0.710000
-0.710000
-0.710000
-0.710000
-0.710000
-0.710000
-0.710000
-0.710000
-0.639040
-0.568278
-0.498003
-0.428334
-0.359546
-0.291631
-0.225156
-0.158054
-0.087031
-0.228471
-0.233031
-0.237523
-0.242002
-0.246481
-0.250974
-0.255474
-0.259990
-0.264519
-0.269059
-0.273609
-0.278175
-0.282750
-0.287340
-0.291941
-0.296552
-0.301177
-0.305810
-0.310456
-0.315113
-0.319779
-0.324456
-0.329144
-0.333842
-0.338549
-0.343264
-0.347991
-0.352727
-0.357471
-0.362223
-0.366985
-0.371753
-0.376529
-0.381312
-0.386101
-0.390897
-0.395698
-0.400505
-0.405315
-0.410132
-0.414952
-0.419776
-0.424603
-0.429432
-0.434263
-0.439095
-0.443928
-0.448762
-0.453603
-0.458445
-0.463306
-0.468248
-0.473327
-0.396334
-0.402834
-0.404504
-0.413827
-0.237761
-0.235529
-0.229699
-0.299671
-0.294097
-0.291747
-0.599035
-0.648028
-0.599368
-0.282716
-0.331774
-0.325322
-0.318779
-0.639153
-0.313092
-0.267324
-0.263375
-0.301193
-0.331358
-0.285459
-0.333843
-0.172233
-0.196862
-0.193672
-0.482961
-0.492389
-0.475983
-0.047057
-0.061558
-0.103768
-0.479984
-0.276268
-0.267828
-0.288324
-0.253359
-0.321001
-0.330467
-0.268147
-0.260912
-0.253046
-0.328168
-0.318254
-0.248990
-0.364305
-0.362118
-0.358287
-0.290548
-0.295141
-0.297573
-0.431535
-0.427828
-0.422661
-0.323033
-0.348097
-0.326438
-0.321608
-0.329684
-0.330311
-0.339257
-0.323898
-0.360357
-0.504948
-0.526088
-0.503228
-0.320483
-0.189573
-0.157823
-0.353171
-0.267038
-0.271671
-0.429383
-0.420343
-0.257389
-0.444593
-0.452595
-0.430326
-0.465285
-0.430427
-0.439270
-0.322186
-0.315432
-0.315750
-0.399707
-0.410584
-0.406749
-0.309029
-0.428434
-0.438122
-0.438515
-0.420859
-0.334156
-0.336106
-0.327660
-0.269977
-0.273497
-0.283419
-0.363278
-0.359500
-0.390360
-0.389105
-0.284336
-0.299987
-0.321630
-0.328722
-0.433038
-0.444247
-0.432485
-0.414794
-0.342520
-0.268117
-0.270564
-0.278925
-0.462054
-0.456350
-0.607714
-0.660807
-0.650244
-0.399555
-0.363369
-0.373949
-0.477902
-0.482475
-0.491025
-0.480487
-0.365837
-0.373957
-0.368627
-0.268448
-0.260752
-0.249929
-0.439804
-0.446378
-0.309268
-0.321305
-0.312879
-0.325121
-0.339823
-0.356256
-0.368506
-0.361957
-0.271709
-0.275028
-0.279279
-0.287254
-0.270793
-0.277031
-0.420898
-0.436473
-0.426115
-0.438839
-0.272798
-0.261427
-0.270329
-0.257829
-0.415500
-0.431421
-0.419319
-0.419515
-0.406837
-0.280563
-0.266758
-0.213727
-0.235288
-0.240930
-0.193330
-0.206402
-0.197961
-0.463316
-0.479817
-0.449125
-0.463416
-0.408867
-0.399516
-0.403663
-0.368620
-0.362674
-0.375043
-0.464940
-0.456416
-0.392235
-0.347841
-0.313819
-0.302072
-0.295936
-0.310028
-0.350808
-0.335889
-0.353086
-0.336173
-0.386954
-0.377947
-0.383098
-0.346325
-0.369469
-0.364271
-0.361574
-0.371233
-0.237604
-0.241576
-0.246123
-0.381299
-0.391026
-0.376484
-0.218566
-0.207625
-0.302202
-0.305436
-0.339649
-0.333672
-0.352354
-0.240436
-0.236466
-0.241816
-0.248749
-0.242669
-0.275115
-0.297801
-0.300485
-0.310346
-0.557627
-0.532162
-0.538085
-0.223999
-0.416032
-0.176301
-0.176527
-0.150262
-0.251449
-0.244453
-0.261855
-0.039023
-0.046646
-0.081731
-0.145770
-0.118518
-0.352760
-0.357693
-0.337729
-0.125726
-0.150870
-0.169242
-0.248853
-0.254398
-0.270908
-0.282376
-0.411577
-0.406001
-0.400652
-0.556900
-0.530369
-0.422447
-0.303845
-0.263440
-0.290620
-0.448466
-0.457141
-0.437107
-0.526290
-0.511636
-0.445891
-0.463706
-0.290306
-0.307254
-0.300972
-0.319514
-0.314304
-0.322451
-0.324026
-0.074921
-0.069053
-0.110640
-0.101960
-0.248599
-0.256420
-0.306289
-0.269394
-0.409412
-0.377045
-0.664115
-0.614535
-0.395207
-0.391269
-0.335372
-0.355921
-0.435321
-0.440912
-0.490753
-0.451232
-0.181780
-0.451093
-0.465178
-0.484825
-0.442805
-0.423602
-0.427476
-0.478630
-0.229871
-0.269841
-0.431550
-0.478662
-0.444310
-0.529540
-0.158425
-0.142883
-0.130240
-0.420659
-0.439390
-0.420993
-0.169914
-0.261218
-0.278947
-0.278369
-0.292043
-0.230361
-0.232975
-0.226304
-0.214906
-0.236111
-0.574428
-0.590708
-0.426191
-0.570994
-0.529028
-0.545358
-0.411298
-0.398269
-0.513650
-0.426223
-0.221149
-0.390047
-0.261430
-0.281833
-0.248449
-0.562402
-0.122358
-0.109306
-0.097498
-0.231425
-0.152983
-0.646466
-0.592010
-0.284164
-0.055195
-0.103757
-0.217130
-0.222334
-0.187773
-0.524734
-0.531699
-0.556093
-0.289557
-0.303353
-0.440319
-0.461938
-0.358584
-0.347550
-0.521115
-0.508734
-0.466517
-0.354293
-0.320759
-0.491200
-0.508372
-0.506055
-0.311244
-0.323901
-0.063341
-0.255492
-0.241603
-0.031023
-0.085911
-0.037366
-0.046091
-0.258796
-0.371745
-0.282053
-0.363629
-0.431601
-0.399456
-0.418990
-0.438943
-0.426207
-0.454134
-0.392733
-0.393732
-0.362264
-0.371865
-0.447228
-0.456506
-0.409649
-0.438208
-0.353595
-0.367566
-0.387213
-0.384356
-0.140520
-0.131855
-0.555755
-0.522568
-0.311249
-0.315147
-0.324135
-0.304840
-0.495021
-0.404958
-0.413800
-0.406278
-0.404297
-0.393134
-0.386710
-0.453101
-0.458568
-0.245835
-0.236103
-0.461243
-0.424524
-0.451619
-0.399523
-0.089236
-0.221836
-0.214541
-0.513060
-0.379767
-0.365531
-0.471583
-0.478232
-0.423141
-0.401795
-0.283376
-0.273934
-0.294629
-0.277200
-0.655982
-0.605498
-0.612111
-0.257534
-0.650004
-0.448335
-0.446701
-0.213368
-0.201322
-0.214767
-0.286778
-0.285143
-0.212158
-0.269530
-0.255404
-0.251180
-0.257968
-0.446615
-0.456379
-0.289789
-0.306585
-0.244437
-0.412100
-0.420832
-0.409678
-0.407084
-0.441988
-0.397123
-0.413147
-0.412100
-0.354110
-0.357733
-0.451769
-0.466863
-0.339082
-0.266966
-0.261071
-0.469741
-0.481412
-0.389947
-0.396775
-0.391548
-0.338187
-0.573515
-0.546708
-0.459833
-0.245199
-0.446841
-0.459162
-0.460410
-0.383391
-0.388814
-0.402955
-0.212672
-0.303270
-0.470215
-0.462137
-0.562226
-0.594116
-0.222463
-0.298896
-0.303160
-0.305311
-0.403157
-0.398994
-0.359863
-0.375651
-0.223920
-0.192038
-0.184392
-0.304105
-0.439986
-0.372220
-0.294506
-0.143689
-0.399139
-0.377015
-0.232689
-0.401728
-0.379154
-0.439738
-0.441867
-0.185961
-0.385568
-0.261600
-0.291997
-0.482690
-0.122628
-0.140597
-0.094829
-0.165590
-0.113503
-0.282975
-0.588783
-0.616855
-0.578116
-0.611534
-0.546457
-0.298688
-0.287547
-0.382670
-0.388832
-0.378015
-0.375134
-0.426716
-0.186509
-0.200446
-0.306743
-0.313295
-0.315664
-0.312271
-0.307194
-0.297588
-0.308314
-0.273157
-0.492300
-0.308845
-0.175333
-0.228043
-0.248865
-0.222512
-0.384159
-0.401875
-0.396530
-0.311700
-0.360222
-0.350969
-0.463523
-0.377507
-0.377708
-0.204747
-0.388560
-0.182149
-0.144131
-0.176451
-0.549996
-0.303477
-0.194339
-0.377652
-0.372870
-0.384283
-0.528638
-0.468996
-0.351865
-0.341165
-0.345779
-0.420586
-0.348412
-0.325148
-0.431954
-0.224237
-0.299379
-0.288718
-0.383087
-0.230499
-0.385342
-0.377952
-0.238068
-0.405689
-0.377517
-0.183421
-0.163397
-0.175886
-0.222510
-0.371930
-0.545790
-0.533350
-0.513627
-0.469377
-0.387557
-0.337498
-0.336927
-0.392070
-0.299972
-0.487874
-0.472122
-0.472644
-0.371761
-0.360835
-0.472996
-0.488300
-0.281603
-0.281288
-0.275304
-0.488469
-0.331843
-0.454220
-0.339837
-0.331921
-0.336677
-0.340181
-0.575776
-0.246546
-0.210510
-0.201882
-0.482991
-0.345685
-0.334212
-0.172155
-0.435971
-0.195637
-0.359380
-0.354409
-0.348985
-0.358785
-0.350007
-0.492189
-0.332249
-0.336553
-0.270771
-0.325458
-0.383730
-0.504715
-0.119260
-0.596558
-0.260605
-0.657775
-0.156091
-0.192748
-0.058541
-0.067225
-0.646711
-0.643152
-0.195576
-0.430199
-0.060791
-0.113576
-0.116380
-0.259240
-0.585024
-0.581230
-0.498052
-0.491535
-0.320875
-0.326435
-0.327333
-0.648202
-0.128997
-0.366452
-0.213224
-0.501636
-0.309975
-0.572537
-0.213987
-0.543981
-0.494859
-0.208625
-0.208497
-0.418497
-0.507688
-0.223399
-0.250853
-0.486062
-0.466903
-0.490323
-0.320840
-0.255034
-0.259163
-0.263274
-0.472002
-0.213432
-0.249899
-0.387867
-0.486016
-0.383426
-0.449313
-0.290349
-0.214603
-0.223502
-0.316406
-0.233175
-0.232336
-0.303064
-0.280336
-0.255278
-0.251069
-0.302384
-0.393982
-0.398668
-0.327758
-0.320666
-0.463339
-0.319604
-0.213415
-0.365955
-0.370156
-0.343758
-0.336878
-0.348247
-0.342829
-0.230317
-0.290627
-0.286042
-0.500193
-0.401407
-0.408903
-0.373310
-0.364379
-0.369072
-0.379434
-0.364926
-0.337506
-0.339974
-0.317861
-0.413291
-0.337076
-0.223768
-0.350536
-0.287017
-0.299759
-0.244348
-0.312766
-0.315962
-0.413634
-0.355999
-0.290482
-0.347802
-0.344520
-0.345332
-0.351382
-0.440431
-0.382589
-0.294929
-0.353647
-0.345803
-0.342460
-0.348421
SCALARS DAMAGE float 1
LOOKUP_TABLE default
0.999048
0.999018
0.999363
0.999365
0.000000
0.000000
0.999364
0.999430
0.999456
0.999474
0.999473
0.999466
0.999445
0.999412
0.999304
0.999190
0.999379
0.999429
0.999431
0.999408
0.999396
0.999381
0.999371
0.999365
0.999359
0.999353
0.999343
0.999334
0.999331
0.999333
0.999341
0.999352
0.999360
0.999368
0.999372
0.999381
0.999395
0.999406
0.999429
0.999426
0.999417
0.999140
-0.000000
0.000000
0.000000
0.000000
0.000000
0.000000
0.000000
0.000000
0.000000
0.000000
0.000000
0.000000
0.000000
0.000000
0.000000
0.000000
0.000000
0.000000
0.000000
0.000000
0.000000
0.000000
0.000000
0.000000
0.000000
0.000000
0.000000
0.000000
0.000000
0.000000
0.000000
0.000000
0.000000
0.000000
0.000000
0.000000
0.000000
0.000000
0.000000
0.000000
0.000000
0.000000
0.000000
0.000000
0.000000
0.000000
0.000000
0.000000
0.000000
0.000000
0.000000
0.000000
-0.000000
0.678261
0.727949
0.862509
0.889689
0.481311
0.344757
0.649308
0.685119
0.689633
0.857175
0.999333
0.999335
0.999337
0.879457
0.979839
0.976969
0.991103
0.999341
0.988113
0.443388
0.491128
0.999348
0.999365
0.999358
0.999352
0.999373
0.999339
0.999304
0.943183
0.987295
0.946710
0.999446
0.999435
0.999406
0.981382
0.998747
0.999221
0.998838
0.999283
0.969669
0.952313
0.900519
0.889606
0.970072
0.933283
0.954420
0.952876
0.819876
0.870006
0.763144
0.447875
0.444600
0.669779
0.433034
0.389458
0.707814
0.999164
0.999335
0.999332
0.748176
0.668306
0.466378
0.999327
0.999343
0.999347
0.999314
0.999326
0.999322
0.843907
0.999364
0.999384
0.750909
0.726195
0.752229
0.683551
0.868175
0.844439
0.999083
0.999282
0.999051
0.999285
0.811224
0.515859
0.797900
0.754147
0.637938
0.878911
0.761071
0.672992
0.496005
0.768318
0.834486
0.897890
0.539495
0.878574
0.775024
0.895089
0.930464
0.903634
0.977582
0.999361
0.999379
0.917463
0.969983
0.999354
0.999367
0.999357
0.806837
0.509866
0.827548
0.680941
0.789779
0.751664
0.744580
0.687174
0.869510
0.350872
0.474753
0.999363
0.999362
0.999357
0.999357
0.999353
0.999348
0.513176
0.484090
0.844720
0.746868
0.706609
0.439218
0.448346
0.543817
0.656673
0.833895
0.717837
0.392300
0.715019
0.880766
0.873020
0.956504
0.999349
0.887369
0.951529
0.948022
0.433262
0.382332
0.675434
0.998797
0.997732
0.995667
0.880595
0.966477
0.960067
0.984670
0.915636
0.965515
0.959347
0.983248
0.957260
0.986634
0.972117
0.938792
0.985700
0.954643
0.983487
0.998468
0.995677
0.999310
0.994180
0.976598
0.980469
0.999336
0.998890
0.998919
0.993767
0.716724
0.453850
0.373152
0.922239
0.971015
0.936399
0.475715
0.689326
0.999370
0.999374
0.999397
0.931066
0.978312
0.931064
0.991400
0.997826
0.996899
0.999061
0.630622
0.781992
0.823112
0.999347
0.726546
0.732234
0.540789
0.850081
0.525748
0.473093
0.729664
0.996436
0.985251
0.994292
0.955216
0.987406
0.999080
0.999304
0.981241
0.995571
0.976150
0.985329
0.977225
0.691935
0.366500
0.493257
0.702906
0.988215
0.993475
0.980335
0.999318
0.999060
0.999366
0.970435
0.462564
0.997885
0.999001
0.999359
0.994048
0.998071
0.994223
0.999462
0.999456
0.999426
0.999390
0.999407
0.996535
0.998754
0.995721
0.999399
0.999385
0.999377
0.999344
0.999342
0.999334
0.999338
0.976170
0.983219