# vtk DataFile Version 2.0
Test
ASCII
DATASET POLYDATA
POINTS 858 float
0.000000 0.000000 0.000000
1.000000 0.000000 0.000000
1.000000 1.000000 0.000000
0.000000 1.000000 0.000000
0.300000 0.330000 0.000000
0.700000 0.680000 0.000000
0.100000 0.000000 0.000000
0.200000 0.000000 0.000000
0.300000 0.000000 0.000000
0.400000 0.000000 0.000000
0.500000 0.000000 0.000000
0.600000 0.000000 0.000000
0.700000 0.000000 0.000000
0.800000 0.000000 0.000000
0.900000 0.000000 0.000000
1.000000 0.100000 0.000000
1.000000 0.200000 0.000000
1.000000 0.300000 0.000000
1.000000 0.400000 0.000000
1.000000 0.500000 0.000000
1.000000 0.600000 0.000000
1.000000 0.700000 0.000000
1.000000 0.800000 0.000000
1.000000 0.900000 0.000000
0.900000 1.000000 0.000000
0.800000 1.000000 0.000000
0.700000 1.000000 0.000000
0.600000 1.000000 0.000000
0.500000 1.000000 0.000000
0.400000 1.000000 0.000000
0.300000 1.000000 0.000000
0.200000 1.000000 0.000000
0.100000 1.000000 0.000000
0.000000 0.900000 0.000000
0.000000 0.800000 0.000000
0.000000 0.700000 0.000000
0.000000 0.600000 0.000000
0.000000 0.500000 0.000000
0.000000 0.400000 0.000000
0.000000 0.300000 0.000000
0.000000 0.200000 0.000000
0.000000 0.100000 0.000000
0.307407 0.336481 0.000000
0.314815 0.342963 0.000000
0.322222 0.349444 0.000000
0.329630 0.355926 0.000000
0.337037 0.362407 0.000000
0.344444 0.368889 0.000000
0.351852 0.375370 0.000000
0.359259 0.381852 0.000000
0.366667 0.388333 0.000000
0.374074 0.394815 0.000000
0.381481 0.401296 0.000000
0.388889 0.407778 0.000000
0.396296 0.414259 0.000000
0.403704 0.420741 0.000000
0.411111 0.427222 0.000000
0.418519 0.433704 0.000000
0.425926 0.440185 0.000000
0.433333 0.446667 0.000000
0.440741 0.453148 0.000000
0.448148 0.459630 0.000000
0.455556 0.466111 0.000000
0.462963 0.472593 0.000000
0.470370 0.479074 0.000000
0.477778 0.485556 0.000000
0.485185 0.492037 0.000000
0.492593 0.498519 0.000000
0.500000 0.505000 0.000000
0.507407 0.511481 0.000000
0.514815 0.517963 0.000000
0.522222 0.524444 0.000000
0.529630 0.530926 0.000000
0.537037 0.537407 0.000000
0.544444 0.543889 0.000000
0.551852 0.550370 0.000000
0.559259 0.556852 0.000000
0.566667 0.563333 0.000000
0.574074 0.569815 0.000000
0.581481 0.576296 0.000000
0.588889 0.582778 0.000000
0.596296 0.589259 0.000000
0.603704 0.595741 0.000000
0.611111 0.602222 0.000000
0.618519 0.608704 0.000000
0.625926 0.615185 0.000000
0.633333 0.621667 0.000000
0.640741 0.628148 0.000000
0.648148 0.634630 0.000000
0.655556 0.641111 0.000000
0.662963 0.647593 0.000000
0.670370 0.654074 0.000000
0.677778 0.660556 0.000000
0.685185 0.667037 0.000000
0.692593 0.673519 0.000000
0.548037 0.570873 0.000000
0.554453 0.579695 0.000000
0.540788 0.582045 0.000000
0.550492 0.594703 0.000000
0.338797 0.350505 0.000000
0.329823 0.347064 0.000000
0.335712 0.339262 0.000000
0.451687 0.438509 0.000000
0.442642 0.430741 0.000000
0.457884 0.427703 0.000000
0.387297 0.847474 0.000000
0.374793 0.914734 0.000000
0.332869 0.847471 0.000000
0.447069 0.415163 0.000000
0.567391 0.482596 0.000000
0.554659 0.473874 0.000000
0.567453 0.464800 0.000000
0.301190 0.902112 0.000000
0.551747 0.457138 0.000000
0.356532 0.391813 0.000000
0.347986 0.386048 0.000000
0.176207 0.429241 0.000000
0.128375 0.468105 0.000000
0.136378 0.404291 0.000000
0.185621 0.475277 0.000000
0.497512 0.261165 0.000000
0.499167 0.296032 0.000000
0.469918 0.291504 0.000000
0.642232 0.687989 0.000000
0.624295 0.701188 0.000000
0.630549 0.678643 0.000000
0.647682 0.074905 0.000000
0.700945 0.096046 0.000000
0.657288 0.160421 0.000000
0.611443 0.684403 0.000000
0.559779 0.406431 0.000000
0.582162 0.394521 0.000000
0.580552 0.422827 0.000000
0.560788 0.374759 0.000000
0.541503 0.468043 0.000000
0.545465 0.480978 0.000000
0.428301 0.394826 0.000000
0.414860 0.384611 0.000000
0.432086 0.374027 0.000000
0.533961 0.477886 0.000000
0.527361 0.464336 0.000000
0.415481 0.368142 0.000000
0.484401 0.527206 0.000000
0.472984 0.524144 0.000000
0.481205 0.518972 0.000000
0.394266 0.424909 0.000000
0.401826 0.431399 0.000000
0.392742 0.434502 0.000000
0.642418 0.617836 0.000000
0.635302 0.612878 0.000000
0.644322 0.605726 0.000000
0.263646 0.464175 0.000000
0.250486 0.498376 0.000000
0.230296 0.467342 0.000000
0.491693 0.468898 0.000000
0.498004 0.479972 0.000000
0.487381 0.480785 0.000000
0.718619 0.489140 0.000000
0.756680 0.466072 0.000000
0.751564 0.516847 0.000000
0.497232 0.719177 0.000000
0.477497 0.748035 0.000000
0.465924 0.716726 0.000000
0.501292 0.467390 0.000000
0.529064 0.285755 0.000000
0.547173 0.240449 0.000000
0.474742 0.511943 0.000000
0.403118 0.392815 0.000000
0.412434 0.399392 0.000000
0.653057 0.614785 0.000000
0.659187 0.602396 0.000000
0.400247 0.379451 0.000000
0.459133 0.636583 0.000000
0.434636 0.647284 0.000000
0.440667 0.616932 0.000000
0.453650 0.664799 0.000000
0.666296 0.616100 0.000000
0.657731 0.628197 0.000000
0.420489 0.468863 0.000000
0.414183 0.459489 0.000000
0.424065 0.460120 0.000000
0.629321 0.574616 0.000000
0.630370 0.589442 0.000000
0.617226 0.584388 0.000000
0.422026 0.450877 0.000000
0.590180 0.614274 0.000000
0.596278 0.627413 0.000000
0.585881 0.628067 0.000000
0.630677 0.603443 0.000000
0.529117 0.486095 0.000000
0.517046 0.488781 0.000000
0.522040 0.477224 0.000000
0.308641 0.392803 0.000000
0.323746 0.398675 0.000000
0.304273 0.411173 0.000000
0.146020 0.514086 0.000000
0.087335 0.505198 0.000000
0.624982 0.561914 0.000000
0.643811 0.559907 0.000000
0.831909 0.406061 0.000000
0.881376 0.423788 0.000000
0.839177 0.457573 0.000000
0.509066 0.478681 0.000000
0.614792 0.620247 0.000000
0.608406 0.635616 0.000000
0.603251 0.619643 0.000000
0.640290 0.595050 0.000000
0.524731 0.497540 0.000000
0.338689 0.392113 0.000000
0.347423 0.395876 0.000000
0.340116 0.407012 0.000000
0.686563 0.659098 0.000000
0.682555 0.651347 0.000000
0.934704 0.856355 0.000000
0.940546 0.930926 0.000000
0.863552 0.916423 0.000000
0.172107 0.566287 0.000000
0.188105 0.516551 0.000000
0.221330 0.532895 0.000000
0.683914 0.680068 0.000000
0.692945 0.685712 0.000000
0.683376 0.697853 0.000000
0.672414 0.683990 0.000000
0.557147 0.529227 0.000000
0.554161 0.540325 0.000000
0.546244 0.533101 0.000000
0.391911 0.394487 0.000000
0.387591 0.383772 0.000000
0.385780 0.368800 0.000000
0.671617 0.628861 0.000000
0.664093 0.637808 0.000000
0.408700 0.450928 0.000000
0.406517 0.467364 0.000000
0.394366 0.455525 0.000000
0.388841 0.472148 0.000000
0.792728 0.486062 0.000000
0.461047 0.516036 0.000000
0.460182 0.532753 0.000000
0.450617 0.523703 0.000000
0.364207 0.398120 0.000000
0.371344 0.402923 0.000000
0.362621 0.408449 0.000000
0.235276 0.413110 0.000000
0.235915 0.390376 0.000000
0.260894 0.399649 0.000000
0.564107 0.604249 0.000000
0.558497 0.625526 0.000000
0.545610 0.611482 0.000000
0.542035 0.628852 0.000000
0.441269 0.401429 0.000000
0.443649 0.385779 0.000000
0.454140 0.398188 0.000000
0.456246 0.380948 0.000000
0.531090 0.597071 0.000000
0.528592 0.618783 0.000000
0.693800 0.600685 0.000000
0.675646 0.601117 0.000000
0.688895 0.583493 0.000000
0.466943 0.412411 0.000000
0.469666 0.393398 0.000000
0.215629 0.311290 0.000000
0.236374 0.342186 0.000000
0.194357 0.347185 0.000000
0.372859 0.289727 0.000000
0.362694 0.307734 0.000000
0.346245 0.295576 0.000000
0.824768 0.656091 0.000000
0.787989 0.680173 0.000000
0.787481 0.637866 0.000000
0.763354 0.658567 0.000000
0.564845 0.587843 0.000000
0.565674 0.575091 0.000000
0.575285 0.580662 0.000000
0.591463 0.532694 0.000000
0.606735 0.524365 0.000000
0.606700 0.541268 0.000000
0.696107 0.663701 0.000000
0.695223 0.651919 0.000000
0.114270 0.553146 0.000000
0.897846 0.490106 0.000000
0.941355 0.438159 0.000000
0.491870 0.442127 0.000000
0.508682 0.433741 0.000000
0.504276 0.453072 0.000000
0.616608 0.507977 0.000000
0.629719 0.487283 0.000000
0.643435 0.510566 0.000000
0.660659 0.486926 0.000000
0.584650 0.557787 0.000000
0.582076 0.545531 0.000000
0.595086 0.552412 0.000000
0.215445 0.494211 0.000000
0.502563 0.534321 0.000000
0.493623 0.527201 0.000000
0.502900 0.523550 0.000000
0.490744 0.536689 0.000000
0.303740 0.348241 0.000000
0.312638 0.354325 0.000000
0.302746 0.359450 0.000000
0.683727 0.548378 0.000000
0.666144 0.562133 0.000000
0.663581 0.542222 0.000000
0.366098 0.324774 0.000000
0.379406 0.309842 0.000000
0.251675 0.434611 0.000000
0.214900 0.437402 0.000000
0.581091 0.493223 0.000000
0.603283 0.484739 0.000000
0.593195 0.510449 0.000000
0.429738 0.356510 0.000000
0.412970 0.350726 0.000000
0.358920 0.356811 0.000000
0.352460 0.366146 0.000000
0.347463 0.357590 0.000000
0.353794 0.402394 0.000000
0.527483 0.436280 0.000000
0.546965 0.439869 0.000000
0.535210 0.453469 0.000000
0.624606 0.790385 0.000000
0.614250 0.755688 0.000000
0.654837 0.763041 0.000000
0.384960 0.332814 0.000000
0.619946 0.597007 0.000000
0.358705 0.265521 0.000000
0.397502 0.266486 0.000000
0.377869 0.228897 0.000000
0.471169 0.372235 0.000000
0.492664 0.362648 0.000000
0.488718 0.386734 0.000000
0.431288 0.062893 0.000000
0.512348 0.074893 0.000000
0.450325 0.128772 0.000000
0.515327 0.223180 0.000000
0.538419 0.183215 0.000000
0.367912 0.509419 0.000000
0.343175 0.515399 0.000000
0.351317 0.488263 0.000000
0.593186 0.193353 0.000000
0.476496 0.230456 0.000000
0.594140 0.256114 0.000000
0.629340 0.367381 0.000000
0.659922 0.374166 0.000000
0.641019 0.397588 0.000000
0.669525 0.412603 0.000000
0.510665 0.591750 0.000000
0.493263 0.584115 0.000000
0.507476 0.576852 0.000000
0.492575 0.790205 0.000000
0.516533 0.753914 0.000000
0.493265 0.606545 0.000000
0.794852 0.435952 0.000000
0.797754 0.379724 0.000000
0.755728 0.420083 0.000000
0.528549 0.642034 0.000000
0.507334 0.653897 0.000000
0.509532 0.626562 0.000000
0.580705 0.748031 0.000000
0.605192 0.727758 0.000000
0.748472 0.635779 0.000000
0.742539 0.660255 0.000000
0.323194 0.421808 0.000000
0.325468 0.445306 0.000000
0.301700 0.435431 0.000000
0.295276 0.460827 0.000000
0.622421 0.457821 0.000000
0.642814 0.468538 0.000000
0.320303 0.468200 0.000000
[...]
POINT_DATA 858
SCALARS UX float 1
LOOKUP_TABLE default
-0.000000
0.000000
0.086653
-0.117042
-0.057844
0.052121
0.000000
-0.000000
-0.000000
-0.000000
-0.000000
0.000000
0.000000
0.000000
-0.000000
0.049075
0.078117
0.097666
0.112557
0.122030
0.122690
0.113726
0.099960
0.089904
0.064902
0.043537
0.023707
0.005916
-0.012769
-0.032774
-0.053598
-0.075004
-0.096124
-0.118590
-0.122381
-0.128292
-0.134079
-0.136400
-0.129715
-0.111646
-0.083979
-0.051884
-0.055397
-0.052254
-0.049276
-0.049773
-0.046542
-0.043116
-0.043821
-0.041672
-0.039308
-0.037043
-0.038560
-0.035708
-0.033739
-0.030912
-0.030374
-0.027781
-0.027109
-0.025065
-0.022013
-0.021503
-0.018358
-0.017637
-0.015656
-0.012133
-0.010381
-0.010572
-0.007006
-0.005778
-0.003066
-0.001160
0.002530
0.002015
0.005531
0.008082
0.008298
0.011758
0.014954
0.015994
0.015563
0.017152
0.020766
0.022260
0.023880
0.027745
0.029397
0.030934
0.031875
0.036167
0.037209
0.039227
0.044045
0.043679
0.048615
-0.034696
-0.032728
-0.035986
-0.031968
-0.022477
-0.030376
-0.023095
0.021103
0.017941
0.021753
-0.037786
-0.038573
-0.049524
0.017842
0.045964
0.043014
0.042986
-0.054693
0.039794
-0.070701
-0.074078
-0.101844
-0.111808
-0.106014
-0.101830
0.003010
0.006399
0.001035
0.010130
0.007406
0.004133
0.005737
0.011541
0.015250
0.000223
0.032027
0.033390
0.037636
0.027052
0.040486
0.043056
0.011030
0.006761
0.007707
0.041146
0.038201
0.003860
-0.053697
-0.056080
-0.054846
-0.065975
-0.065468
-0.072098
0.060912
0.056704
0.067741
-0.088702
-0.089851
-0.094123
0.033046
0.034503
0.026328
0.068134
0.072643
0.076740
-0.021263
-0.023037
-0.028390
0.035082
0.010112
0.008757
-0.056127
0.004708
0.007689
0.068576
0.070430
0.003122
-0.039853
-0.042916
-0.046022
-0.036936
0.071509
0.066376
-0.068653
-0.069778
-0.066758
0.064995
0.065260
0.062053
-0.065156
-0.019509
-0.016157
-0.018548
0.062880
0.041493
0.039204
0.039434
-0.083028
-0.081717
-0.083710
-0.108798
-0.119910
0.063513
0.065326
0.080285
0.092514
0.087784
0.037485
-0.008108
-0.011690
-0.014236
0.067187
0.041112
-0.079273
-0.077748
-0.080160
0.063238
0.067463
0.079138
0.075088
0.058659
-0.101816
-0.100720
-0.093711
0.029292
0.037892
0.029878
0.021176
0.049253
0.043068
0.041377
0.000233
-0.000618
-0.001492
0.071672
0.061939
-0.070943
-0.071035
-0.073417
-0.072715
0.081570
-0.058691
-0.056687
-0.059104
-0.067972
-0.063456
-0.076162
-0.092379
-0.090662
-0.088701
-0.027429
-0.024405
-0.029503
-0.026590
0.014382
0.011810
0.015825
0.012734
-0.034975
-0.030928
0.073918
0.072063
0.072401
0.020568
0.017141
-0.072887
-0.081122
-0.087594
-0.018175
-0.019145
-0.024913
0.086903
0.076581
0.084718
0.078665
-0.029168
-0.024689
-0.017160
0.056344
0.056970
0.059376
0.067754
0.072294
-0.113845
0.102123
0.105905
0.029545
0.030271
0.033321
0.055682
0.054302
0.059244
0.058490
0.055052
0.056171
0.059070
-0.096272
-0.048794
-0.051262
-0.046834
-0.051462
-0.075293
-0.073845
-0.080066
0.068629
0.067940
0.065527
-0.015476
-0.014631
-0.090756
-0.096289
0.049289
0.050541
0.053340
0.003790
-0.000168
-0.011559
-0.020398
-0.017428
-0.077294
0.033106
0.036162
0.037211
0.012124
0.009449
0.019276
-0.009342
0.057916
-0.021354
-0.013740
-0.016174
0.013247
0.014755
0.018551
-0.002742
-0.000350
-0.004516
0.003314
0.004081
-0.070987
-0.073730
-0.075112
0.010968
-0.001706
0.017015
0.036925
0.043154
0.043196
0.050103
-0.039200
-0.043278
-0.042539
-0.017087
-0.013789
-0.039042
0.076633
0.069900
0.066982
-0.026300
-0.028095
-0.032622
0.000797
0.005549
0.080757
0.076641
-0.081813
-0.080892
-0.083913
-0.084033
0.048945
0.053399
-0.080409
0.004616
-0.007615
-0.006426
-0.009733
-0.095198
-0.104647
-0.119683
-0.096749
-0.087320
-0.085473
-0.021978
-0.024034
0.070392
0.072286
-0.085768
-0.084056
-0.109627
-0.093893
-0.110922
-0.121571
-0.028796
-0.065643
-0.057900
-0.061829
-0.059392
-0.011293
-0.008553
-0.098098
0.082677
0.096369
0.073701
-0.084008
-0.082321
-0.097622
-0.024195
-0.027625
-0.019382
-0.055582
-0.053896
-0.060599
-0.032711
0.081918
0.014088
0.010985
-0.080057
-0.015664
-0.010384
0.011024
0.012243
0.016116
0.018568
0.010385
0.083422
-0.032802
-0.041375
-0.028105
-0.044837
-0.047623
-0.032926
0.087422
0.068079
-0.046972
0.059374
0.057937
0.049114
-0.045031
-0.014172
-0.020637
-0.014106
0.008070
0.021548
-0.069052
-0.064681
0.012289
0.014612
0.023551
-0.095692
-0.089830
-0.035542
0.030504
0.043052
0.027374
-0.078393
-0.078734
-0.036149
-0.032140
0.062690
0.064177
-0.083567
-0.069433
-0.072898
0.091289
-0.077770
0.021664
0.023978
0.032784
0.055083
0.061218
-0.010375
-0.086953
-0.082056
-0.003560
-0.029113
-0.013000
-0.010967
-0.090381
-0.068744
-0.095101
-0.066334
-0.075566
-0.077917
-0.068068
0.078196
0.079425
0.077165
0.055828
0.059642
-0.061092
-0.058374
-0.014544
-0.008396
0.092167
0.091677
-0.061365
0.070312
0.076185
-0.072139
-0.006385
-0.010809
-0.058547
-0.054440
-0.076543
-0.074801
-0.074999
-0.075092
-0.051696
0.067362
0.068853
0.069808
-0.123529
0.041926
0.061429
0.002977
0.007092
0.000814
-0.003555
0.094571
0.099951
0.107357
0.110300
0.000120
-0.022775
-0.021246
0.014285
0.062076
0.059370
0.071947
0.070391
-0.035475
-0.039604
0.023710
0.020912
0.025407
0.024564
0.010995
0.002886
0.015610
0.020927
-0.006555
0.074325
0.076417
-0.041780
-0.033679
-0.033665
0.031922
0.029116
-0.027497
0.026785
-0.082875
-0.079885
-0.085327
-0.000337
-0.001979
-0.086597
-0.087228
-0.081748
-0.051233
-0.051750
0.075877
0.080303
-0.048955
-0.053560
-0.047801
-0.024074
-0.032973
-0.051313
-0.006312
-0.002268
-0.081587
-0.011335
-0.006486
0.015537
0.015049
-0.036643
-0.037931
-0.040620
0.033934
0.003245
0.002903
0.073306
-0.006972
-0.018450
-0.012057
-0.014973
-0.063606
-0.066353
-0.065702
0.006482
-0.072396
0.008080
0.014192
-0.004898
-0.011677
-0.027979
0.023802
0.025944
0.022655
0.051629
0.048650
-0.077908
-0.079415
0.037006
0.026494
0.032547
0.050514
-0.005139
-0.053756
-0.074358
0.027771
-0.057063
-0.061452
0.019936
-0.061643
-0.050552
0.074896
0.073293
0.014799
0.097872
-0.082535
0.035920
-0.029058
-0.051894
-0.046136
-0.023243
-0.077888
-0.057365
-0.078786
0.067149
0.053162
0.053588
0.038378
0.089026
0.057050
0.015261
-0.029972
-0.028199
-0.048826
-0.046312
-0.042076
-0.042652
-0.041930
0.028493
0.031959
0.029680
0.016590
0.015023
0.042876
0.042495
0.038547
-0.042319
0.034937
0.066707
0.024246
0.031376
0.029118
-0.039496
0.059036
0.062452
0.025526
0.052953
0.050990
0.001727
-0.053927
-0.055532
-0.054780
-0.052352
0.040368
0.035413
0.050720
-0.070850
0.039110
-0.056156
-0.033012
-0.030511
-0.050966
-0.004986
0.068354
-0.066775
-0.068663
-0.065892
-0.023500
-0.069611
0.025498
-0.022541
-0.000732
-0.077177
-0.075779
-0.045675
0.003962
-0.042831
-0.042298
-0.006067
0.085592
0.087201
-0.061007
-0.041434
-0.070256
-0.005244
0.062706
0.054494
0.075885
0.065575
-0.005966
0.081290
-0.072386
-0.070828
-0.043397
-0.065654
-0.011265
-0.019217
-0.013570
-0.060538
-0.063626
-0.009019
-0.006449
-0.064858
-0.074639
-0.000759
-0.001376
-0.070229
-0.020873
-0.077687
-0.055578
-0.053785
-0.060625
-0.022823
0.008673
0.017140
0.021399
-0.023085
-0.057126
-0.062184
-0.005367
0.059542
-0.003645
0.040097
0.037007
0.044324
0.046852
0.034700
0.040359
-0.068406
-0.065474
-0.084924
0.046303
-0.055491
-0.004146
-0.002111
0.026626
-0.080765
0.039407
-0.010207
-0.008718
0.022766
0.034085
-0.088069
-0.106462
-0.013453
0.076234
-0.028721
0.047430
0.036712
-0.113729
-0.101569
-0.082225
0.095100
0.082924
-0.056434
-0.056358
-0.064009
0.025080
-0.032355
0.066264
0.001137
-0.013498
0.064921
0.037953
-0.080008
-0.113302
0.015853
-0.009796
-0.004860
-0.014168
0.041960
0.054369
0.022921
-0.035715
-0.042819
0.056185
0.021059
-0.074849
-0.073840
-0.079299
0.024888
0.042577
-0.075555
0.048082
0.056245
-0.057664
0.069633
0.045583
-0.068257
-0.072043
0.046289
-0.076368
-0.076937
-0.060247
0.002885
-0.008192
-0.013432
0.015132
-0.028682
0.067510
-0.066679
-0.064862
-0.050776
0.036722
-0.055747
-0.042459
-0.038030
0.048319
0.045548
-0.059964
-0.062790
-0.030938
0.026775
-0.067137
0.058711
-0.049312
0.051615
0.051296
0.051574
0.054312
0.040344
0.036182
0.043492
-0.046044
0.013956
-0.013907
0.020337
-0.037385
-0.035662
0.003798
0.007483
-0.070748
-0.058887
-0.052557
0.050683
0.050213
0.009915
0.047282
0.034328
-0.048657
-0.051425
0.011559
0.046532
0.008914
-0.063244
-0.063985
0.045234
0.039858
SCALARS UY float 1
LOOKUP_TABLE default
-0.000000
-0.000000
-0.680000
-0.680000
-0.195492
-0.478929
-0.000000
-0.000000
-0.000000
-0.000000
-0.000000
-0.000000
-0.000000
-0.000000
-0.000000
-0.085298
-0.154350
-0.219703
-0.282175
-0.341988
-0.401084
-0.462730
-0.530981
-0.604565
-0.680000
-0.680000
-0.680000
-0.680000
-0.680000
-0.680000
-0.680000
-0.680000
-0.680000
-0.609455
-0.539868
-0.472023
-0.407159
-0.346357
-0.287867
-0.228605
-0.162800
-0.088966
-0.203231
-0.210570
-0.217621
-0.219857
-0.226459
-0.233220
-0.235465
-0.241137
-0.247059
-0.253344
-0.256740
-0.261383
-0.265948
-0.271648
-0.275488
-0.280455
-0.284645
-0.289850
-0.296211
-0.299053
-0.305085
-0.308268
-0.313282
-0.320375
-0.324996
-0.327722
-0.333597
-0.337694
-0.343689
-0.348218
-0.354628
-0.355668
-0.362222
-0.367728
-0.370245
-0.377054
-0.383656
-0.386337
-0.394076
-0.398096
-0.404031
-0.406925
-0.411145
-0.418578
-0.423402
-0.428902
-0.432218
-0.439946
-0.443654
-0.449622
-0.458112
-0.460713
-0.470291
-0.418139
-0.424986
-0.426022
-0.434892
-0.195979
-0.199504
-0.187650
-0.249069
-0.242962
-0.241297
-0.581385
-0.624757
-0.579621
-0.232603
-0.287613
-0.280282
-0.276942
-0.615175
-0.269884
-0.272521
-0.269197
-0.291212
-0.319969
-0.277042
-0.322268
-0.145655
-0.166920
-0.162015
-0.496252
-0.503423
-0.490128
-0.041976
-0.056125
-0.093452
-0.492549
-0.240505
-0.235958
-0.253392
-0.221158
-0.274773
-0.283059
-0.219269
-0.212490
-0.207439
-0.279538
-0.270545
-0.203037
-0.386090
-0.383238
-0.379997
-0.302001
-0.307412
-0.312979
-0.395898
-0.392313
-0.381440
-0.315255
-0.338699
-0.316292
-0.270241
-0.278749
-0.284197
-0.316854
-0.305220
-0.340284
-0.505037
-0.521863
-0.501022
-0.269672
-0.162969
-0.136472
-0.375388
-0.218167
-0.221804
-0.389960
-0.381675
-0.209278
-0.449738
-0.454021
-0.435500
-0.466918
-0.392949
-0.402878
-0.341012
-0.333832
-0.333998
-0.356319
-0.366780
-0.362477
-0.325246
-0.448409
-0.456983
-0.457227
-0.379141
-0.284065
-0.284561
-0.277590
-0.270184
-0.277850
-0.282468
-0.349943
-0.346307
-0.347323
-0.350106
-0.270136
-0.286046
-0.305963
-0.277453
-0.449127
-0.462817
-0.450526
-0.372502
-0.291483
-0.275727
-0.279439
-0.287070
-0.440162
-0.429128
-0.576778
-0.630017
-0.622389
-0.384868
-0.350696
-0.362025
-0.486874
-0.491463
-0.502310
-0.493109
-0.316409
-0.329302
-0.322714
-0.220978
-0.213528
-0.202727
-0.403968
-0.416714
-0.326946
-0.338332
-0.328663
-0.338486
-0.322313
-0.377022
-0.387066
-0.380284
-0.278279
-0.280154
-0.291429
-0.277995
-0.261766
-0.268543
-0.442091
-0.453855
-0.444423
-0.454105
-0.224013
-0.215114
-0.223233
-0.213546
-0.434222
-0.446721
-0.389879
-0.385171
-0.376693
-0.232788
-0.222061
-0.206762
-0.227440
-0.234166
-0.155946
-0.166423
-0.159259
-0.440146
-0.457242
-0.427908
-0.442544
-0.431025
-0.417540
-0.417130
-0.322696
-0.320346
-0.330949
-0.445264
-0.430871
-0.376928
-0.331144
-0.300115
-0.252893
-0.250057
-0.260997
-0.312072
-0.301486
-0.318829
-0.306642
-0.340969
-0.329901
-0.336464
-0.335085
-0.391799
-0.386395
-0.382136
-0.392996
-0.229621
-0.236767
-0.241718
-0.351709
-0.356790
-0.343283
-0.176569
-0.167936
-0.293549
-0.295347
-0.296400
-0.295195
-0.309096
-0.197355
-0.193082
-0.197063
-0.210746
-0.201231
-0.285664
-0.254086
-0.258932
-0.265268
-0.556095
-0.535570
-0.540446
-0.181590
-0.375864
-0.142110
-0.143120
-0.121432
-0.209967
-0.206483
-0.220237
-0.032125
-0.039349
-0.067319
-0.123978
-0.101613
-0.358422
-0.358762
-0.342286
-0.110628
-0.126079
-0.149611
-0.224137
-0.231931
-0.245182
-0.258621
-0.428693
-0.422033
-0.419500
-0.549619
-0.528344
-0.435302
-0.287715
-0.249114
-0.273179
-0.460403
-0.465321
-0.449122
-0.529084
-0.518298
-0.425885
-0.444679
-0.293647
-0.309759
-0.299125
-0.315794
-0.281586
-0.291701
-0.324353
-0.065113
-0.056474
-0.090812
-0.083028
-0.242273
-0.250936
-0.297905
-0.261229
-0.396923
-0.367594
-0.640468
-0.597500
-0.364425
-0.364382
-0.328906
-0.348892
-0.417661
-0.425081
-0.469282
-0.430687
-0.147893
-0.442130
-0.457471
-0.473363
-0.437651
-0.439172
-0.441419
-0.459852
-0.220233
-0.258902
-0.399163
-0.462166
-0.430653
-0.507716
-0.129549
-0.122062
-0.106996
-0.421887
-0.437668
-0.418962
-0.144605
-0.248923
-0.228750
-0.228450
-0.299760
-0.186381
-0.188475
-0.191561
-0.183816
-0.201597
-0.568682
-0.582510
-0.406052
-0.557713
-0.518634
-0.536730
-0.423756
-0.413535
-0.508099
-0.405844
-0.209973
-0.409445
-0.244654
-0.262098
-0.229757
-0.547225
-0.099526
-0.093373
-0.080395
-0.193607
-0.137726
-0.620753
-0.570616
-0.234011
-0.051171
-0.095807
-0.214637
-0.217798
-0.157718
-0.524472
-0.519018
-0.550694
-0.301473
-0.311897
-0.448974
-0.466772
-0.327238
-0.320820
-0.501844
-0.493011
-0.453521
-0.337058
-0.325911
-0.502945
-0.516783
-0.509513
-0.284824
-0.299480
-0.053548
-0.246354
-0.231840
-0.025677
-0.081334
-0.035468
-0.041315
-0.250608
-0.374402
-0.272839
-0.371570
-0.421045
-0.391173
-0.413121
-0.417062
-0.404649
-0.434706
-0.348088
-0.347202
-0.377892
-0.386821
-0.464708
-0.473251
-0.389756
-0.416512
-0.372427
-0.342674
-0.364575
-0.381418
-0.115699
-0.107254
-0.538359
-0.509260
-0.322037
-0.328172
-0.333499
-0.319719
-0.485659
-0.364068
-0.373658
-0.370328
-0.387299
-0.358270
-0.341692
-0.468175
-0.472872
-0.199971
-0.191853
-0.436947
-0.402625
-0.425711
-0.378349
-0.075410
-0.179545
-0.172976
-0.520877
-0.338413
-0.325988
-0.456049
-0.458434
-0.438457
-0.422356
-0.236956
-0.229232
-0.245039
-0.234311
-0.635717
-0.594353
-0.599520
-0.219418
-0.630208
-0.418760
-0.421968
-0.175349
-0.163140
-0.174837
-0.246815
-0.243104
-0.171268
-0.231747
-0.250616
-0.250934
-0.249249
-0.462832
-0.473506
-0.284293
-0.300499
-0.235023
-0.418902
-0.424715
-0.384772
-0.386100
-0.442395
-0.406986
-0.422386
-0.433509
-0.363661
-0.379116
-0.469623
-0.482259
-0.335601
-0.229561
-0.217402
-0.483476
-0.494990
-0.411910
-0.418955
-0.413569
-0.288123
-0.568108
-0.546224
-0.440726
-0.199169
-0.463303
-0.474005
-0.473807
-0.387970
-0.389551
-0.401130
-0.179125
-0.319646
-0.485504
-0.473596
-0.557244
-0.582404
-0.181468
-0.247784
-0.252113
-0.254131
-0.362333
-0.358929
-0.356649
-0.369364
-0.203847
-0.172662
-0.168494
-0.275822
-0.456511
-0.392212
-0.309501
-0.131792
-0.405019
-0.385998
-0.201492
-0.403136
-0.399483
-0.410539
-0.408970
-0.162313
-0.366591
-0.260481
-0.253854
-0.484162
-0.120147
-0.133288
-0.085011
-0.165284
-0.114308
-0.293514
-0.561681
-0.592224
-0.556100
-0.592108
-0.515940
-0.275977
-0.236837
-0.399505
-0.405871
-0.399696
-0.397329
-0.435777
-0.165656
-0.171596
-0.255609
-0.262417
-0.264332
-0.265555
-0.260667
-0.264389
-0.270613
-0.243766
-0.486652
-0.261866
-0.167915
-0.200584
-0.220752
-0.198902
-0.405482
-0.357101
-0.351436
-0.260859
-0.313027
-0.304798
-0.479633
-0.395246
-0.393519
-0.189407
-0.403147
-0.168994
-0.134166
-0.166205
-0.530825
-0.263959
-0.183038
-0.393115
-0.385741
-0.402242
-0.529456
-0.457118
-0.363847
-0.354766
-0.361782
-0.441201
-0.357549
-0.277827
-0.451409
-0.184286
-0.312097
-0.302352
-0.405236
-0.190763
-0.407397
-0.399663
-0.192817
-0.386061
-0.359072
-0.176089
-0.148927
-0.172081
-0.181509
-0.335437
-0.525606
-0.507151
-0.491434
-0.483152
-0.367538
-0.346455
-0.348788
-0.413216
-0.313608
-0.495080
-0.480287
-0.482974
-0.383971
-0.373579
-0.484806
-0.496944
-0.286665
-0.293329
-0.229285
-0.498489
-0.346761
-0.467059
-0.340415
-0.348871
-0.354575
-0.361068
-0.564318
-0.203984
-0.183059
-0.178418
-0.486876
-0.367724
-0.355051
-0.142127
-0.403031
-0.161653
-0.312598
-0.307111
-0.298278
-0.308463
-0.302796
-0.493124
-0.349712
-0.356062
-0.266189
-0.284870
-0.396943
-0.510365
-0.099601
-0.583817
-0.263798
-0.632994
-0.127320
-0.157661
-0.055579
-0.065095
-0.619636
-0.614796
-0.158683
-0.404368
-0.060349
-0.108974
-0.109655
-0.255854
-0.559544
-0.558354
-0.470358
-0.466691
-0.335837
-0.343795
-0.347385
-0.627530
-0.116210
-0.337403
-0.177074
-0.505037
-0.289662
-0.557703
-0.208634
-0.518651
-0.506234
-0.169850
-0.171169
-0.433862
-0.501292
-0.209336
-0.216384
-0.484077
-0.465407
-0.475292
-0.274365
-0.259394
-0.264118
-0.269223
-0.479410
-0.197013
-0.250651
-0.346011
-0.475074
-0.394208
-0.415854
-0.261706
-0.205349
-0.213928
-0.279779
-0.219875
-0.220913
-0.314159
-0.234310
-0.210484
-0.208816
-0.255061
-0.412390
-0.360636
-0.347283
-0.339584
-0.458806
-0.269934
-0.193998
-0.383855
-0.387899
-0.297100
-0.289722
-0.369345
-0.363056
-0.192745
-0.243768
-0.295742
-0.481991
-0.413726
-0.369724
-0.324563
-0.315373
-0.320919
-0.338410
-0.321481
-0.287847
-0.354604
-0.275781
-0.424667
-0.298535
-0.185255
-0.357054
-0.242421
-0.256376
-0.240659
-0.325038
-0.326650
-0.378545
-0.307234
-0.243259
-0.298585
-0.294887
-0.363697
-0.370875
-0.444590
-0.337666
-0.248605
-0.370032
-0.364284
-0.293024
-0.298795
SCALARS DAMAGE float 1
LOOKUP_TABLE default
0.999904
0.999908
0.999930
0.999939
0.000000
0.000000
0.999940
0.999953
0.999961
0.999965
0.999964
0.999960
0.999955
0.999949
0.999937
0.999923
0.999942
0.999949
0.999953
0.999955
0.999955
0.999947
0.999937
0.999931
0.999938
0.999945
0.999953
0.999956
0.999953
0.999949
0.999946
0.999943
0.999941
0.999939
0.999941
0.999945
0.999950
0.999954
0.999957
0.999949
0.999941
0.999910
-0.000000
0.000000
0.000000
0.000000
0.000000
0.000000
0.000000
0.000000
0.000000
0.000000
0.000000
0.000000
0.000000
0.000000
0.000000
0.000000
0.000000
0.000000
0.000000
0.000000
0.000000
0.000000
0.000000
0.000000
0.000000
0.000000
0.000000
0.000000
0.000000
0.000000
0.000000
0.000000
0.000000
0.000000
0.000000
0.000000
0.000000
0.000000
0.000000
0.000000
0.000000
0.000000
0.000000
0.000000
0.000000
0.000000
0.000000
0.000000
0.000000
0.000000
0.000000
0.000000
-0.000000
0.678566
0.728286
0.862962
0.890169
0.481494
0.344883
0.649590
0.685423
0.689937
0.857616
0.999947
0.999947
0.999945
0.879918
0.980427
0.977553
0.991709
0.999945
0.988713
0.443550
0.491311
0.999940
0.999945
0.999945
0.999942
0.999953
0.999930
0.999894
0.943721
0.987896
0.947251
0.999956
0.999954
0.999952
0.981974
0.999360
0.999831
0.999453
0.999891
0.970242
0.952862
0.900999
0.890076
0.970636
0.933809
0.954972
0.953416
0.820286
0.870464
0.763506
0.448039
0.444763
0.670070
0.433192
0.389598
0.708129
0.999753
0.999928
0.999922
0.748523
0.668596
0.466549
0.999927
0.999940
0.999940
0.999938
0.999949
0.999945
0.844337
0.999950
0.999953
0.751261
0.726527
0.752578
0.683850
0.868620
0.844862
0.999709
0.999905
0.999676
0.999909
0.811614
0.516054
0.798289
0.754500
0.638210
0.879372
0.761427
0.673285
0.496190
0.768684
0.834913
0.898379
0.539703
0.879039
0.775394
0.895570
0.930950
0.904101
0.978128
0.999943
0.999948
0.917967
0.970548
0.999941
0.999944
0.999942
0.807233
0.510064
0.827963
0.681247
0.790158
0.752016
0.744916
0.687472
0.869950
0.350993
0.474926
0.999936
0.999934
0.999940
0.999942
0.999941
0.999940
0.513390
0.484305
0.845165
0.747227
0.706929
0.439379
0.448512
0.544026
0.656956
0.834305
0.718154
0.392441
0.715339
0.881229
0.873474
0.957053
0.999940
0.887843
0.952080
0.948568
0.433420
0.382470
0.675724
0.999384
0.998322
0.996231
0.881064
0.967051
0.960632
0.985273
0.916137
0.966075
0.959900
0.983833
0.957821
0.987240
0.972661
0.939304
0.986271
0.955190
0.984074
0.999061
0.996275
0.999909
0.994770
0.977164
0.981042
0.999927
0.999485
0.999517
0.994360
0.717051
0.454020
0.373284
0.922748
0.971588
0.936926
0.475888
0.689611
0.999945
0.999946
0.999950
0.931587
0.978895
0.931585
0.992004
0.998440
0.997510
0.999672
0.630889
0.782364
0.823520
0.999937
0.726880
0.732572
0.540997
0.850520
0.525949
0.473267
0.729980
0.997034
0.985834
0.994892
0.955753
0.987986
0.999664
0.999897
0.981831
0.996184
0.976731
0.985913
0.977795
0.692240
0.366632
0.493444
0.703214
0.988814
0.994084
0.980924
0.999944
0.999688
0.999991
0.970992
0.462736
0.998480
0.999592
0.999942
0.994650
0.998677
0.994827
0.999964
0.999962
0.999962
0.999955
0.999956
0.997146
0.999365
0.996327
0.999953
0.999956
0.999951
0.999946
0.999945
0.999940
0.999944