# vtk DataFile Version 2.0
Test
ASCII
DATASET POLYDATA
POINTS 858 float
0.000000 0.000000 0.000000
1.000000 0.000000 0.000000
1.000000 1.000000 0.000000
0.000000 1.000000 0.000000
0.300000 0.330000 0.000000
0.700000 0.680000 0.000000
0.100000 0.000000 0.000000
0.200000 0.000000 0.000000
0.300000 0.000000 0.000000
0.400000 0.000000 0.000000
0.500000 0.000000 0.000000
0.600000 0.000000 0.000000
0.700000 0.000000 0.000000
0.800000 0.000000 0.000000
0.900000 0.000000 0.000000
1.000000 0.100000 0.000000
1.000000 0.200000 0.000000
1.000000 0.300000 0.000000
1.000000 0.400000 0.000000
1.000000 0.500000 0.000000
1.000000 0.600000 0.000000
1.000000 0.700000 0.000000
1.000000 0.800000 0.000000
1.000000 0.900000 0.000000
0.900000 1.000000 0.000000
0.800000 1.000000 0.000000
0.700000 1.000000 0.000000
0.600000 1.000000 0.000000
0.500000 1.000000 0.000000
0.400000 1.000000 0.000000
0.300000 1.000000 0.000000
0.200000 1.000000 0.000000
0.100000 1.000000 0.000000
0.000000 0.900000 0.000000
0.000000 0.800000 0.000000
0.000000 0.700000 0.000000
0.000000 0.600000 0.000000
0.000000 0.500000 0.000000
0.000000 0.400000 0.000000
0.000000 0.300000 0.000000
0.000000 0.200000 0.000000
0.000000 0.100000 0.000000
0.307407 0.336481 0.000000
0.314815 0.342963 0.000000
0.322222 0.349444 0.000000
0.329630 0.355926 0.000000
0.337037 0.362407 0.000000
0.344444 0.368889 0.000000
0.351852 0.375370 0.000000
0.359259 0.381852 0.000000
0.366667 0.388333 0.000000
0.374074 0.394815 0.000000
0.381481 0.401296 0.000000
0.388889 0.407778 0.000000
0.396296 0.414259 0.000000
0.403704 0.420741 0.000000
0.411111 0.427222 0.000000
0.418519 0.433704 0.000000
0.425926 0.440185 0.000000
0.433333 0.446667 0.000000
0.440741 0.453148 0.000000
0.448148 0.459630 0.000000
0.455556 0.466111 0.000000
0.462963 0.472593 0.000000
0.470370 0.479074 0.000000
0.477778 0.485556 0.000000
0.485185 0.492037 0.000000
0.492593 0.498519 0.000000
0.500000 0.505000 0.000000
0.507407 0.511481 0.000000
0.514815 0.517963 0.000000
0.522222 0.524444 0.000000
0.529630 0.530926 0.000000
0.537037 0.537407 0.000000
0.544444 0.543889 0.000000
0.551852 0.550370 0.000000
0.559259 0.556852 0.000000
0.566667 0.563333 0.000000
0.574074 0.569815 0.000000
0.581481 0.576296 0.000000
0.588889 0.582778 0.000000
0.596296 0.589259 0.000000
0.603704 0.595741 0.000000
0.611111 0.602222 0.000000
0.618519 0.608704 0.000000
0.625926 0.615185 0.000000
0.633333 0.621667 0.000000
0.640741 0.628148 0.000000
0.648148 0.634630 0.000000
0.655556 0.641111 0.000000
0.662963 0.647593 0.000000
0.670370 0.654074 0.000000
0.677778 0.660556 0.000000
0.685185 0.667037 0.000000
0.692593 0.673519 0.000000
0.548037 0.570873 0.000000
0.554453 0.579695 0.000000
0.540788 0.582045 0.000000
0.550492 0.594703 0.000000
0.338797 0.350505 0.000000
0.329823 0.347064 0.000000
0.335712 0.339262 0.000000
0.451687 0.438509 0.000000
0.442642 0.430741 0.000000
0.457884 0.427703 0.000000
0.387297 0.847474 0.000000
0.374793 0.914734 0.000000
0.332869 0.847471 0.000000
0.447069 0.415163 0.000000
0.567391 0.482596 0.000000
0.554659 0.473874 0.000000
0.567453 0.464800 0.000000
0.301190 0.902112 0.000000
0.551747 0.457138 0.000000
0.356532 0.391813 0.000000
0.347986 0.386048 0.000000
0.176207 0.429241 0.000000
0.128375 0.468105 0.000000
0.136378 0.404291 0.000000
0.185621 0.475277 0.000000
0.497512 0.261165 0.000000
0.499167 0.296032 0.000000
0.469918 0.291504 0.000000
0.642232 0.687989 0.000000
0.624295 0.701188 0.000000
0.630549 0.678643 0.000000
0.647682 0.074905 0.000000
0.700945 0.096046 0.000000
0.657288 0.160421 0.000000
0.611443 0.684403 0.000000
0.559779 0.406431 0.000000
0.582162 0.394521 0.000000
0.580552 0.422827 0.000000
0.560788 0.374759 0.000000
0.541503 0.468043 0.000000
0.545465 0.480978 0.000000
0.428301 0.394826 0.000000
0.414860 0.384611 0.000000
0.432086 0.374027 0.000000
0.533961 0.477886 0.000000
0.527361 0.464336 0.000000
0.415481 0.368142 0.000000
0.484401 0.527206 0.000000
0.472984 0.524144 0.000000
0.481205 0.518972 0.000000
0.394266 0.424909 0.000000
0.401826 0.431399 0.000000
0.392742 0.434502 0.000000
0.642418 0.617836 0.000000
0.635302 0.612878 0.000000
0.644322 0.605726 0.000000
0.263646 0.464175 0.000000
0.250486 0.498376 0.000000
0.230296 0.467342 0.000000
0.491693 0.468898 0.000000
0.498004 0.479972 0.000000
0.487381 0.480785 0.000000
0.718619 0.489140 0.000000
0.756680 0.466072 0.000000
0.751564 0.516847 0.000000
0.497232 0.719177 0.000000
0.477497 0.748035 0.000000
0.465924 0.716726 0.000000
0.501292 0.467390 0.000000
0.529064 0.285755 0.000000
0.547173 0.240449 0.000000
0.474742 0.511943 0.000000
0.403118 0.392815 0.000000
0.412434 0.399392 0.000000
0.653057 0.614785 0.000000
0.659187 0.602396 0.000000
0.400247 0.379451 0.000000
0.459133 0.636583 0.000000
0.434636 0.647284 0.000000
0.440667 0.616932 0.000000
0.453650 0.664799 0.000000
0.666296 0.616100 0.000000
0.657731 0.628197 0.000000
0.420489 0.468863 0.000000
0.414183 0.459489 0.000000
0.424065 0.460120 0.000000
0.629321 0.574616 0.000000
0.630370 0.589442 0.000000
0.617226 0.584388 0.000000
0.422026 0.450877 0.000000
0.590180 0.614274 0.000000
0.596278 0.627413 0.000000
0.585881 0.628067 0.000000
0.630677 0.603443 0.000000
0.529117 0.486095 0.000000
0.517046 0.488781 0.000000
0.522040 0.477224 0.000000
0.308641 0.392803 0.000000
0.323746 0.398675 0.000000
0.304273 0.411173 0.000000
0.146020 0.514086 0.000000
0.087335 0.505198 0.000000
0.624982 0.561914 0.000000
0.643811 0.559907 0.000000
0.831909 0.406061 0.000000
0.881376 0.423788 0.000000
0.839177 0.457573 0.000000
0.509066 0.478681 0.000000
0.614792 0.620247 0.000000
0.608406 0.635616 0.000000
0.603251 0.619643 0.000000
0.640290 0.595050 0.000000
0.524731 0.497540 0.000000
0.338689 0.392113 0.000000
0.347423 0.395876 0.000000
0.340116 0.407012 0.000000
0.686563 0.659098 0.000000
0.682555 0.651347 0.000000
0.934704 0.856355 0.000000
0.940546 0.930926 0.000000
0.863552 0.916423 0.000000
0.172107 0.566287 0.000000
0.188105 0.516551 0.000000
0.221330 0.532895 0.000000
0.683914 0.680068 0.000000
0.692945 0.685712 0.000000
0.683376 0.697853 0.000000
0.672414 0.683990 0.000000
0.557147 0.529227 0.000000
0.554161 0.540325 0.000000
0.546244 0.533101 0.000000
0.391911 0.394487 0.000000
0.387591 0.383772 0.000000
0.385780 0.368800 0.000000
0.671617 0.628861 0.000000
0.664093 0.637808 0.000000
0.408700 0.450928 0.000000
0.406517 0.467364 0.000000
0.394366 0.455525 0.000000
0.388841 0.472148 0.000000
0.792728 0.486062 0.000000
0.461047 0.516036 0.000000
0.460182 0.532753 0.000000
0.450617 0.523703 0.000000
0.364207 0.398120 0.000000
0.371344 0.402923 0.000000
0.362621 0.408449 0.000000
0.235276 0.413110 0.000000
0.235915 0.390376 0.000000
0.260894 0.399649 0.000000
0.564107 0.604249 0.000000
0.558497 0.625526 0.000000
0.545610 0.611482 0.000000
0.542035 0.628852 0.000000
0.441269 0.401429 0.000000
0.443649 0.385779 0.000000
0.454140 0.398188 0.000000
0.456246 0.380948 0.000000
0.531090 0.597071 0.000000
0.528592 0.618783 0.000000
0.693800 0.600685 0.000000
0.675646 0.601117 0.000000
0.688895 0.583493 0.000000
0.466943 0.412411 0.000000
0.469666 0.393398 0.000000
0.215629 0.311290 0.000000
0.236374 0.342186 0.000000
0.194357 0.347185 0.000000
0.372859 0.289727 0.000000
0.362694 0.307734 0.000000
0.346245 0.295576 0.000000
0.824768 0.656091 0.000000
0.787989 0.680173 0.000000
0.787481 0.637866 0.000000
0.763354 0.658567 0.000000
0.564845 0.587843 0.000000
0.565674 0.575091 0.000000
0.575285 0.580662 0.000000
0.591463 0.532694 0.000000
0.606735 0.524365 0.000000
0.606700 0.541268 0.000000
0.696107 0.663701 0.000000
0.695223 0.651919 0.000000
0.114270 0.553146 0.000000
0.897846 0.490106 0.000000
0.941355 0.438159 0.000000
0.491870 0.442127 0.000000
0.508682 0.433741 0.000000
0.504276 0.453072 0.000000
0.616608 0.507977 0.000000
0.629719 0.487283 0.000000
0.643435 0.510566 0.000000
0.660659 0.486926 0.000000
0.584650 0.557787 0.000000
0.582076 0.545531 0.000000
0.595086 0.552412 0.000000
0.215445 0.494211 0.000000
0.502563 0.534321 0.000000
0.493623 0.527201 0.000000
0.502900 0.523550 0.000000
0.490744 0.536689 0.000000
0.303740 0.348241 0.000000
0.312638 0.354325 0.000000
0.302746 0.359450 0.000000
0.683727 0.548378 0.000000
0.666144 0.562133 0.000000
0.663581 0.542222 0.000000
0.366098 0.324774 0.000000
0.379406 0.309842 0.000000
0.251675 0.434611 0.000000
0.214900 0.437402 0.000000
0.581091 0.493223 0.000000
0.603283 0.484739 0.000000
0.593195 0.510449 0.000000
0.429738 0.356510 0.000000
0.412970 0.350726 0.000000
0.358920 0.356811 0.000000
0.352460 0.366146 0.000000
0.347463 0.357590 0.000000
0.353794 0.402394 0.000000
0.527483 0.436280 0.000000
0.546965 0.439869 0.000000
0.535210 0.453469 0.000000
0.624606 0.790385 0.000000
0.614250 0.755688 0.000000
0.654837 0.763041 0.000000
0.384960 0.332814 0.000000
0.619946 0.597007 0.000000
0.358705 0.265521 0.000000
0.397502 0.266486 0.000000
0.377869 0.228897 0.000000
0.471169 0.372235 0.000000
0.492664 0.362648 0.000000
0.488718 0.386734 0.000000
0.431288 0.062893 0.000000
0.512348 0.074893 0.000000
0.450325 0.128772 0.000000
0.515327 0.223180 0.000000
0.538419 0.183215 0.000000
0.367912 0.509419 0.000000
0.343175 0.515399 0.000000
0.351317 0.488263 0.000000
0.593186 0.193353 0.000000
0.476496 0.230456 0.000000
0.594140 0.256114 0.000000
0.629340 0.367381 0.000000
0.659922 0.374166 0.000000
0.641019 0.397588 0.000000
0.669525 0.412603 0.000000
0.510665 0.591750 0.000000
0.493263 0.584115 0.000000
0.507476 0.576852 0.000000
0.492575 0.790205 0.000000
0.516533 0.753914 0.000000
0.493265 0.606545 0.000000
0.794852 0.435952 0.000000
0.797754 0.379724 0.000000
0.755728 0.420083 0.000000
0.528549 0.642034 0.000000
0.507334 0.653897 0.000000
0.509532 0.626562 0.000000
0.580705 0.748031 0.000000
0.605192 0.727758 0.000000
0.748472 0.635779 0.000000
0.742539 0.660255 0.000000
0.323194 0.421808 0.000000
0.325468 0.445306 0.000000
0.301700 0.435431 0.000000
0.295276 0.460827 0.000000
0.622421 0.457821 0.000000
0.642814 0.468538 0.000000
0.320303 0.468200 0.000000
[...]
POINT_DATA 858
SCALARS UX float 1
LOOKUP_TABLE default
-0.000000
0.000000
0.057970
-0.078327
-0.038724
0.034875
0.000000
-0.000000
-0.000000
-0.000000
-0.000000
0.000000
0.000000
0.000000
-0.000000
0.032839
0.052275
0.065360
0.075331
0.081672
0.082113
0.076107
0.066885
0.060148
0.043415
0.029118
0.015849
0.003946
-0.008556
-0.021942
-0.035875
-0.050198
-0.064330
-0.079364
-0.081904
-0.085864
-0.089742
-0.091299
-0.086823
-0.074723
-0.056200
-0.034718
-0.037088
-0.034985
-0.032992
-0.033327
-0.031165
-0.028872
-0.029346
-0.027908
-0.026321
-0.024808
-0.025827
-0.023920
-0.022608
-0.020714
-0.020375
-0.018629
-0.018222
-0.016801
-0.014764
-0.014416
-0.012293
-0.011816
-0.010489
-0.008143
-0.006922
-0.007169
-0.004750
-0.003905
-0.002102
-0.000816
0.001669
0.001320
0.003677
0.005385
0.005529
0.007845
0.009982
0.010677
0.010391
0.011449
0.013864
0.014850
0.015944
0.018487
0.019638
0.020670
0.021309
0.024188
0.024863
0.026059
0.029449
0.029208
0.032525
-0.023252
-0.021936
-0.024114
-0.021426
-0.015045
-0.020335
-0.015458
0.014197
0.012064
0.014605
-0.025297
-0.025822
-0.033151
0.011982
0.030781
0.028808
0.028789
-0.036609
0.026656
-0.047372
-0.049625
-0.068179
-0.074846
-0.070966
-0.068172
0.002015
0.004285
0.000694
0.006744
0.004929
0.002729
0.003838
0.007722
0.010205
0.000120
0.021455
0.022363
0.025208
0.018120
0.027119
0.028836
0.007401
0.004540
0.005170
0.027559
0.025595
0.002594
-0.035974
-0.037559
-0.036728
-0.044226
-0.043905
-0.048322
0.040843
0.038056
0.045347
-0.059392
-0.060158
-0.063018
0.022166
0.023130
0.017671
0.045611
0.048627
0.051372
-0.014248
-0.015433
-0.019017
0.023523
0.006771
0.005861
-0.037604
0.003171
0.005169
0.045922
0.047150
0.002103
-0.026692
-0.028740
-0.030821
-0.024738
0.047878
0.044461
-0.045993
-0.046772
-0.044747
0.043505
0.043682
0.041533
-0.043728
-0.013096
-0.010852
-0.012449
0.042095
0.027788
0.026252
0.026416
-0.055599
-0.054725
-0.056056
-0.072831
-0.080266
0.042515
0.043730
0.053737
0.061921
0.058758
0.025115
-0.005490
-0.007861
-0.009575
0.044978
0.027531
-0.053093
-0.052075
-0.053688
0.042372
0.045268
0.052946
0.050232
0.039238
-0.068158
-0.067427
-0.062737
0.019578
0.025338
0.019987
0.014150
0.032978
0.028833
0.027706
0.000180
-0.000397
-0.000987
0.047987
0.041463
-0.047567
-0.047596
-0.049199
-0.048711
0.054601
-0.039309
-0.037965
-0.039582
-0.045553
-0.042491
-0.051026
-0.061849
-0.060699
-0.059388
-0.018390
-0.016364
-0.019775
-0.017824
0.009653
0.007921
0.010616
0.008539
-0.023436
-0.020726
0.049493
0.048246
0.048472
0.013799
0.011495
-0.048791
-0.054311
-0.058638
-0.012162
-0.012812
-0.016672
0.058169
0.051262
0.056712
0.052664
-0.019555
-0.016559
-0.011523
0.037721
0.038141
0.039749
0.045404
0.048474
-0.076207
0.068353
0.070882
0.019820
0.020296
0.022343
0.037280
0.036357
0.039663
0.039158
0.036850
0.037603
0.039543
-0.064454
-0.032696
-0.034352
-0.031391
-0.034479
-0.050411
-0.049445
-0.053609
0.045944
0.045481
0.043866
-0.010355
-0.009789
-0.060766
-0.064466
0.033005
0.033842
0.035714
0.002545
-0.000105
-0.007732
-0.013653
-0.011663
-0.051770
0.022187
0.024228
0.024932
0.008100
0.006307
0.012887
-0.006248
0.038760
-0.014290
-0.009194
-0.010823
0.008880
0.009888
0.012436
-0.001835
-0.000235
-0.003023
0.002218
0.002730
-0.047537
-0.049371
-0.050303
0.007340
-0.001142
0.011390
0.024723
0.028891
0.028922
0.033544
-0.026261
-0.028990
-0.028496
-0.011449
-0.009245
-0.026154
0.051295
0.046787
0.044837
-0.017627
-0.018826
-0.021858
0.000515
0.003693
0.054066
0.051315
-0.054791
-0.054176
-0.056193
-0.056272
0.032773
0.035752
-0.053849
0.003088
-0.005096
-0.004301
-0.006513
-0.063725
-0.070047
-0.080112
-0.064767
-0.058457
-0.057225
-0.014718
-0.016095
0.047124
0.048393
-0.057429
-0.056280
-0.073381
-0.062852
-0.074242
-0.081371
-0.019271
-0.043946
-0.038764
-0.041391
-0.039764
-0.007605
-0.005775
-0.065662
0.055333
0.064498
0.049351
-0.056234
-0.055108
-0.065339
-0.016191
-0.018487
-0.012970
-0.037216
-0.036087
-0.040573
-0.021892
0.054828
0.009461
0.007379
-0.053622
-0.010481
-0.006945
0.007385
0.008200
0.010797
0.012413
0.006936
0.055847
-0.021963
-0.027702
-0.018822
-0.030031
-0.031898
-0.022051
0.058521
0.045564
-0.031464
0.039744
0.038784
0.032878
-0.030146
-0.009483
-0.013809
-0.009438
0.005408
0.014422
-0.046216
-0.043293
0.008265
0.009778
0.015761
-0.064049
-0.060128
-0.023788
0.020404
0.028804
0.018307
-0.052515
-0.052739
-0.024215
-0.021531
0.041968
0.042964
-0.055935
-0.046478
-0.048800
0.061105
-0.052088
0.014482
0.016035
0.021932
0.036878
0.040983
-0.006942
-0.058214
-0.054935
-0.002382
-0.019482
-0.008698
-0.007337
-0.060505
-0.046030
-0.063668
-0.044417
-0.050589
-0.052165
-0.045572
0.052356
0.053177
0.051672
0.037370
0.039923
-0.040908
-0.039091
-0.009768
-0.005649
0.061694
0.061365
-0.041088
0.047070
0.051002
-0.048301
-0.004273
-0.007233
-0.039191
-0.036444
-0.051276
-0.050114
-0.050237
-0.050314
-0.034610
0.045092
0.046092
0.046732
-0.082685
0.028052
0.041121
0.001958
0.004696
0.000555
-0.002372
0.063297
0.066900
0.071853
0.073825
0.000079
-0.015242
-0.014218
0.009543
0.041556
0.039747
0.048183
0.047127
-0.023768
-0.026533
0.015903
0.014023
0.017050
0.016468
0.007344
0.001918
0.010432
0.014024
-0.004398
0.049770
0.051162
-0.027966
-0.022541
-0.022533
0.021390
0.019515
-0.018403
0.017948
-0.055491
-0.053492
-0.057130
-0.000261
-0.001354
-0.057984
-0.058408
-0.054733
-0.034309
-0.034653
0.050800
0.053760
-0.032781
-0.035868
-0.032014
-0.016147
-0.022122
-0.034395
-0.004255
-0.001548
-0.054632
-0.007577
-0.004329
0.010339
0.010037
-0.024555
-0.025415
-0.027215
0.022707
0.002157
0.001927
0.049118
-0.004659
-0.012380
-0.008099
-0.010049
-0.042589
-0.044427
-0.043990
0.004343
-0.048525
0.005349
0.009380
-0.003293
-0.007827
-0.018727
0.015989
0.017425
0.015241
0.034556
0.032564
-0.052166
-0.053172
0.024773
0.017736
0.021785
0.033821
-0.003485
-0.036008
-0.049825
0.018586
-0.038210
-0.041148
0.013353
-0.041274
-0.033864
0.050158
0.049095
0.009908
0.065511
-0.055267
0.024062
-0.019466
-0.034729
-0.030876
-0.015553
-0.052127
-0.038388
-0.052775
0.044926
0.035563
0.035851
0.025669
0.059572
0.038192
0.010274
-0.020091
-0.018905
-0.032710
-0.031028
-0.028182
-0.028548
-0.028065
0.019127
0.021439
0.019923
0.011226
0.010189
0.028712
0.028460
0.025813
-0.028337
0.023417
0.044642
0.016236
0.021011
0.019496
-0.026464
0.039515
0.041804
0.017163
0.035454
0.034142
0.001122
-0.036119
-0.037191
-0.036669
-0.035063
0.027019
0.023701
0.033946
-0.047423
0.026197
-0.037589
-0.022128
-0.020454
-0.034138
-0.003355
0.045788
-0.044712
-0.045981
-0.044119
-0.015762
-0.046616
0.017115
-0.015120
-0.000485
-0.051703
-0.050771
-0.030598
0.002658
-0.028694
-0.028340
-0.004054
0.057297
0.058372
-0.040834
-0.027731
-0.047023
-0.003506
0.041978
0.036462
0.050781
0.043886
-0.004021
0.054418
-0.048481
-0.047437
-0.029072
-0.044049
-0.007563
-0.012885
-0.009107
-0.040537
-0.042603
-0.006063
-0.004340
-0.043455
-0.050006
-0.000480
-0.000947
-0.047038
-0.013997
-0.052025
-0.037212
-0.036001
-0.040584
-0.015286
0.005815
0.011477
0.014327
-0.015471
-0.038221
-0.041632
-0.003592
0.039902
-0.002438
0.026855
0.024781
0.029680
0.031375
0.023242
0.027008
-0.045811
-0.043838
-0.056864
0.031008
-0.037162
-0.002796
-0.001413
0.017805
-0.054084
0.026355
-0.006831
-0.005833
0.015234
0.022808
-0.058941
-0.071249
-0.009002
0.051047
-0.019219
0.031740
0.024568
-0.076123
-0.067977
-0.055033
0.063645
0.055500
-0.037813
-0.037740
-0.042864
0.016769
-0.021652
0.044360
0.000764
-0.009054
0.043460
0.025387
-0.053556
-0.075830
0.010588
-0.006553
-0.003250
-0.009521
0.028077
0.036392
0.015356
-0.023919
-0.028673
0.037612
0.014164
-0.050129
-0.049458
-0.053107
0.016620
0.028500
-0.050596
0.032181
0.037655
-0.038614
0.046649
0.030521
-0.045692
-0.048229
0.030997
-0.051128
-0.051507
-0.040467
0.001969
-0.005473
-0.008986
0.010282
-0.019230
0.045192
-0.044655
-0.043458
-0.033997
0.024612
-0.037318
-0.028459
-0.025491
0.032356
0.030502
-0.040141
-0.042037
-0.020710
0.017958
-0.044993
0.039296
-0.033027
0.034542
0.034342
0.034531
0.036362
0.027003
0.024229
0.029126
-0.030810
0.009427
-0.009342
0.013627
-0.025025
-0.023914
0.002580
0.005196
-0.047374
-0.039500
-0.035249
0.033912
0.033622
0.006693
0.031661
0.022986
-0.032466
-0.034436
0.007688
0.031146
0.006051
-0.042346
-0.042840
0.030291
0.026692
SCALARS UY float 1
LOOKUP_TABLE default
-0.000000
-0.000000
-0.455000
-0.455000
-0.130800
-0.320469
-0.000000
-0.000000
-0.000000
-0.000000
-0.000000
-0.000000
-0.000000
-0.000000
-0.000000
-0.057078
-0.103284
-0.147014
-0.188814
-0.228831
-0.268367
-0.309611
-0.355279
-0.404520
-0.455000
-0.455000
-0.455000
-0.455000
-0.455000
-0.455000
-0.455000
-0.455000
-0.455000
-0.407795
-0.361232
-0.315834
-0.272434
-0.231755
-0.192625
-0.152974
-0.108942
-0.059533
-0.135979
-0.140891
-0.145609
-0.147104
-0.151522
-0.156047
-0.157547
-0.161345
-0.165311
-0.169510
-0.171784
-0.174893
-0.177948
-0.181766
-0.184321
-0.187636
-0.190429
-0.193976
-0.198227
-0.200151
-0.204200
-0.206302
-0.209653
-0.214386
-0.217559
-0.219271
-0.223237
-0.226003
-0.229999
-0.233030
-0.237327
-0.238014
-0.242399
-0.246080
-0.247760
-0.252316
-0.256733
-0.258524
-0.263707
-0.266396
-0.270369
-0.272299
-0.275137
-0.280079
-0.283356
-0.287020
-0.289234
-0.294414
-0.296864
-0.300703
-0.306570
-0.308284
-0.314694
-0.279819
-0.284398
-0.285091
-0.291023
-0.131112
-0.133476
-0.125539
-0.166609
-0.162520
-0.161426
-0.389020
-0.418039
-0.387839
-0.155608
-0.192436
-0.187528
-0.185296
-0.411627
-0.180571
-0.182378
-0.180144
-0.194857
-0.214099
-0.185377
-0.215636
-0.097448
-0.111676
-0.108390
-0.332049
-0.336856
-0.327962
-0.028086
-0.037554
-0.062528
-0.329586
-0.160919
-0.157878
-0.169542
-0.147975
-0.183839
-0.189384
-0.146676
-0.142138
-0.138767
-0.187025
-0.181008
-0.135819
-0.258378
-0.256469
-0.254323
-0.202110
-0.205737
-0.209444
-0.264845
-0.262431
-0.255222
-0.210942
-0.226629
-0.211636
-0.180813
-0.186504
-0.190166
-0.212013
-0.204230
-0.227693
-0.337944
-0.349200
-0.335257
-0.180428
-0.109036
-0.091308
-0.251202
-0.145931
-0.148363
-0.260926
-0.255390
-0.139989
-0.300948
-0.303811
-0.291422
-0.312441
-0.262941
-0.269563
-0.228210
-0.223387
-0.223527
-0.238412
-0.245414
-0.242528
-0.217660
-0.300064
-0.305795
-0.305960
-0.253700
-0.190052
-0.190378
-0.185718
-0.180790
-0.185922
-0.189008
-0.234154
-0.231721
-0.232392
-0.234257
-0.180755
-0.191401
-0.204727
-0.185621
-0.300544
-0.309697
-0.301479
-0.249247
-0.195015
-0.184505
-0.186991
-0.192093
-0.294475
-0.287085
-0.385929
-0.421554
-0.416451
-0.257522
-0.234657
-0.242238
-0.325802
-0.328867
-0.336125
-0.329961
-0.211705
-0.220335
-0.215924
-0.147811
-0.142833
-0.135611
-0.270323
-0.278829
-0.218776
-0.226395
-0.219924
-0.226497
-0.215667
-0.252312
-0.259030
-0.254493
-0.186249
-0.187465
-0.195006
-0.186010
-0.175149
-0.179685
-0.295838
-0.303706
-0.297398
-0.303873
-0.149859
-0.143906
-0.149343
-0.142863
-0.290575
-0.298935
-0.260889
-0.257736
-0.252060
-0.155741
-0.148566
-0.138353
-0.152194
-0.156688
-0.104323
-0.111333
-0.106542
-0.294508
-0.305945
-0.286321
-0.296113
-0.288437
-0.279417
-0.279143
-0.215912
-0.214341
-0.221435
-0.297885
-0.288255
-0.252209
-0.221576
-0.200815
-0.169204
-0.167308
-0.174625
-0.208806
-0.201723
-0.213329
-0.205176
-0.228143
-0.220734
-0.225126
-0.224211
-0.262189
-0.258576
-0.255714
-0.262992
-0.153645
-0.158429
-0.161742
-0.235336
-0.238735
-0.229695
-0.118119
-0.112343
-0.196418
-0.197622
-0.198317
-0.197512
-0.206813
-0.132022
-0.129161
-0.131831
-0.140992
-0.134624
-0.191158
-0.170002
-0.173245
-0.177481
-0.372103
-0.358369
-0.361634
-0.121476
-0.251488
-0.095069
-0.095743
-0.081235
-0.140473
-0.138148
-0.147351
-0.021492
-0.026326
-0.045036
-0.082946
-0.067984
-0.239837
-0.240060
-0.229035
-0.074019
-0.084349
-0.100103
-0.149971
-0.155187
-0.164052
-0.173046
-0.286875
-0.282418
-0.280726
-0.367770
-0.353536
-0.291294
-0.192517
-0.166688
-0.182790
-0.308086
-0.311375
-0.300540
-0.354031
-0.346812
-0.284969
-0.297540
-0.196490
-0.207269
-0.200153
-0.211305
-0.188408
-0.195178
-0.217033
-0.043564
-0.037781
-0.060753
-0.055545
-0.162113
-0.167910
-0.199337
-0.174796
-0.265590
-0.245965
-0.428551
-0.399804
-0.243847
-0.243819
-0.220077
-0.233451
-0.279464
-0.284430
-0.314004
-0.288178
-0.098942
-0.295844
-0.306112
-0.316742
-0.292851
-0.293886
-0.295391
-0.307695
-0.147365
-0.173240
-0.267110
-0.309245
-0.288160
-0.339721
-0.086669
-0.081665
-0.071581
-0.282310
-0.292866
-0.280348
-0.096747
-0.166561
-0.153025
-0.152805
-0.200582
-0.124685
-0.126083
-0.128163
-0.122984
-0.134881
-0.380524
-0.389776
-0.271700
-0.373183
-0.347036
-0.359146
-0.283569
-0.276732
-0.339990
-0.271559
-0.140499
-0.273997
-0.163703
-0.175374
-0.153734
-0.366164
-0.066582
-0.062470
-0.053784
-0.129527
-0.092153
-0.415358
-0.381812
-0.156535
-0.034239
-0.064106
-0.143623
-0.145736
-0.105520
-0.350944
-0.347287
-0.368488
-0.201730
-0.208703
-0.300439
-0.312344
-0.218958
-0.214666
-0.335794
-0.329886
-0.303463
-0.225533
-0.218078
-0.336540
-0.345802
-0.340937
-0.190578
-0.200386
-0.035825
-0.164828
-0.155131
-0.017178
-0.054422
-0.023732
-0.027643
-0.167689
-0.250530
-0.182563
-0.248643
-0.281733
-0.261744
-0.276435
-0.279071
-0.270764
-0.290866
-0.232907
-0.232311
-0.252893
-0.258863
-0.310963
-0.316680
-0.260794
-0.278695
-0.249243
-0.229292
-0.243948
-0.255220
-0.077402
-0.071751
-0.360230
-0.340762
-0.215489
-0.219595
-0.223157
-0.213943
-0.324973
-0.243601
-0.250020
-0.247796
-0.259148
-0.239725
-0.228623
-0.313301
-0.316431
-0.133768
-0.128339
-0.292367
-0.269402
-0.284847
-0.253159
-0.050452
-0.120114
-0.115718
-0.348537
-0.226431
-0.218117
-0.305138
-0.306742
-0.293406
-0.282639
-0.158538
-0.153369
-0.163944
-0.156772
-0.425373
-0.397699
-0.401156
-0.146807
-0.421687
-0.280223
-0.282349
-0.117316
-0.109144
-0.116970
-0.165139
-0.162656
-0.114579
-0.155059
-0.167696
-0.167910
-0.166779
-0.309727
-0.316858
-0.190226
-0.201070
-0.157261
-0.280318
-0.284205
-0.257466
-0.258351
-0.296032
-0.272348
-0.282651
-0.290097
-0.243358
-0.253710
-0.314258
-0.322707
-0.224558
-0.153572
-0.145433
-0.323479
-0.331201
-0.275654
-0.280365
-0.276763
-0.192753
-0.380141
-0.365499
-0.294870
-0.133236
-0.310025
-0.317183
-0.317051
-0.259616
-0.260668
-0.268415
-0.119840
-0.213901
-0.324844
-0.316858
-0.372872
-0.389705
-0.121404
-0.165769
-0.168672
-0.170004
-0.242437
-0.240160
-0.238643
-0.247150
-0.136396
-0.115529
-0.112741
-0.184553
-0.305493
-0.262469
-0.207112
-0.088184
-0.271028
-0.258304
-0.134815
-0.269761
-0.267331
-0.274721
-0.273696
-0.108600
-0.245293
-0.174297
-0.169849
-0.323977
-0.080395
-0.089186
-0.056879
-0.110600
-0.076490
-0.196406
-0.375828
-0.396268
-0.372096
-0.396193
-0.345219
-0.184660
-0.158447
-0.267355
-0.271612
-0.267474
-0.265895
-0.291610
-0.110838
-0.114808
-0.171017
-0.175575
-0.176847
-0.177614
-0.174310
-0.176901
-0.181063
-0.163104
-0.325640
-0.175205
-0.112357
-0.134209
-0.147705
-0.133086
-0.271354
-0.238934
-0.235143
-0.174518
-0.209442
-0.203935
-0.320949
-0.264498
-0.263344
-0.126733
-0.269783
-0.113077
-0.089773
-0.111212
-0.355188
-0.176610
-0.122475
-0.263081
-0.258151
-0.269178
-0.354280
-0.305833
-0.243480
-0.237402
-0.242110
-0.295244
-0.239256
-0.185869
-0.302070
-0.123281
-0.208841
-0.202325
-0.271185
-0.127618
-0.272634
-0.267463
-0.128984
-0.258323
-0.240264
-0.117827
-0.099647
-0.115146
-0.121421
-0.224442
-0.351692
-0.339340
-0.328824
-0.323302
-0.245930
-0.231829
-0.233394
-0.276524
-0.209886
-0.331282
-0.321387
-0.323184
-0.256953
-0.249999
-0.324408
-0.332528
-0.191833
-0.196287
-0.153361
-0.333561
-0.232039
-0.312538
-0.227781
-0.233479
-0.237282
-0.241639
-0.377603
-0.136463
-0.122481
-0.119378
-0.325794
-0.246086
-0.237627
-0.095082
-0.269637
-0.108144
-0.209151
-0.205469
-0.199566
-0.206386
-0.202586
-0.329968
-0.234030
-0.238297
-0.178115
-0.190602
-0.265633
-0.341507
-0.066634
-0.390649
-0.176519
-0.423549
-0.085174
-0.105471
-0.037189
-0.043558
-0.414609
-0.411370
-0.106153
-0.270582
-0.040382
-0.072918
-0.073373
-0.171203
-0.374400
-0.373606
-0.314720
-0.312268
-0.224792
-0.230109
-0.232502
-0.419895
-0.077754
-0.225762
-0.118461
-0.337943
-0.193818
-0.373173
-0.139605
-0.347036
-0.338734
-0.113623
-0.114507
-0.290335
-0.335428
-0.140071
-0.144779
-0.323920
-0.311428
-0.318022
-0.183549
-0.173578
-0.176742
-0.180152
-0.320808
-0.131825
-0.167724
-0.231519
-0.317878
-0.263800
-0.278348
-0.175108
-0.137406
-0.143143
-0.187197
-0.147122
-0.147817
-0.210243
-0.156720
-0.140808
-0.139695
-0.170543
-0.275973
-0.241306
-0.232421
-0.227280
-0.307008
-0.180598
-0.129803
-0.256880
-0.259595
-0.198783
-0.193845
-0.247180
-0.242976
-0.128953
-0.163099
-0.197913
-0.322506
-0.276859
-0.247384
-0.217162
-0.211012
-0.214723
-0.226434
-0.215102
-0.192586
-0.237278
-0.184489
-0.284182
-0.199747
-0.123943
-0.238939
-0.162130
-0.171412
-0.161034
-0.217569
-0.218642
-0.253286
-0.205565
-0.162726
-0.199776
-0.197291
-0.243261
-0.248270
-0.297533
-0.225933
-0.166344
-0.247635
-0.243795
-0.196052
-0.199908
SCALARS DAMAGE float 1
LOOKUP_TABLE default
0.999959
0.999961
0.999971
0.999974
0.000000
0.000000
0.999975
0.999980
0.999984
0.999985
0.999985
0.999983
0.999981
0.999978
0.999973
0.999967
0.999975
0.999978
0.999980
0.999981
0.999981
0.999978
0.999973
0.999971
0.999974
0.999977
0.999980
0.999981
0.999980
0.999978
0.999977
0.999976
0.999975
0.999974
0.999975
0.999977
0.999979
0.999981
0.999982
0.999979
0.999975
0.999962
-0.000000
0.000000
0.000000
0.000000
0.000000
0.000000
0.000000
0.000000
0.000000
0.000000
0.000000
0.000000
0.000000
0.000000
0.000000
0.000000
0.000000
0.000000
0.000000
0.000000
0.000000
0.000000
0.000000
0.000000
0.000000
0.000000
0.000000
0.000000
0.000000
0.000000
0.000000
0.000000
0.000000
0.000000
0.000000
0.000000
0.000000
0.000000
0.000000
0.000000
0.000000
0.000000
0.000000
0.000000
0.000000
0.000000
0.000000
0.000000
0.000000
0.000000
0.000000
0.000000
-0.000000
0.678582
0.728304
0.862983
0.890190
0.481504
0.344890
0.649605
0.685439
0.689954
0.857636
0.999978
0.999978
0.999977
0.879938
0.980452
0.977578
0.991735
0.999977
0.988739
0.443563
0.491326
0.999974
0.999977
0.999977
0.999976
0.999979
0.999956
0.999920
0.943745
0.987922
0.947275
0.999982
0.999980
0.999980
0.981999
0.999387
0.999860
0.999480
0.999918
0.970266
0.952886
0.901020
0.890096
0.970658
0.933832
0.954995
0.953437
0.820308
0.870486
0.763527
0.448052
0.444776
0.670089
0.433205
0.389610
0.708150
0.999789
0.999964
0.999958
0.748543
0.668615
0.466564
0.999961
0.999974
0.999976
0.999967
0.999978
0.999974
0.844358
0.999978
0.999980
0.751281
0.726544
0.752595
0.683871
0.868646
0.844881
0.999737
0.999934
0.999704
0.999938
0.811640
0.516070
0.798310
0.754520
0.638228
0.879396
0.761449
0.673304
0.496205
0.768704
0.834934
0.898400
0.539720
0.879060
0.775413
0.895592
0.930984
0.904131
0.978163
0.999976
0.999978
0.917992
0.970576
0.999975
0.999976
0.999976
0.807253
0.510078
0.827983
0.681264
0.790181
0.752035
0.744939
0.687493
0.869976
0.351006
0.474943
0.999973
0.999972
0.999975
0.999975
0.999975
0.999975
0.513404
0.484319
0.845188
0.747248
0.706948
0.439392
0.448525
0.544040
0.656972
0.834324
0.718177
0.392454
0.715359
0.881252
0.873497
0.957079
0.999975
0.887865
0.952103
0.948591
0.433432
0.382482
0.675745
0.999421
0.998360
0.996270
0.881084
0.967074
0.960654
0.985297
0.916157
0.966097
0.959922
0.983856
0.957843
0.987264
0.972696
0.939335
0.986305
0.955212
0.984098
0.999103
0.996317
0.999945
0.994794
0.977188
0.981065
0.999961
0.999525
0.999553
0.994401
0.717069
0.454033
0.373295
0.922772
0.971614
0.936951
0.475907
0.689639
0.999977
0.999977
0.999979
0.931609
0.978919
0.931607
0.992032
0.998469
0.997539
0.999703
0.630908
0.782386
0.823543
0.999972
0.726899
0.732592
0.541014
0.850541
0.525971
0.473285
0.730009
0.997067
0.985865
0.994923
0.955775
0.988011
0.999701
0.999932
0.981856
0.996211
0.976756
0.985936
0.977818
0.692256
0.366640
0.493455
0.703236
0.988839
0.994109
0.980948
0.999969
0.999713
1.000015
0.971015
0.462750
0.998502
0.999616
0.999965
0.994674
0.998702
0.994851
0.999985
0.999984
0.999984
0.999981
0.999981
0.997175
0.999396
0.996357
0.999980
0.999981
0.999979
0.999977
0.999976
0.999971
0.999976