# vtk DataFile Version 2.0
Test
ASCII
DATASET POLYDATA
POINTS 5816 float
0.000000 0.000000 0.000000
2.000000 0.000000 0.000000
2.000000 4.000000 0.000000
0.000000 4.000000 0.000000
0.000000 0.500000 0.000000
1.500000 2.000000 0.000000
2.000000 2.500000 0.000000
0.285714 0.000000 0.000000
0.571429 0.000000 0.000000
0.857143 0.000000 0.000000
1.142857 0.000000 0.000000
1.428571 0.000000 0.000000
1.714286 0.000000 0.000000
2.000000 0.275040 0.000000
2.000000 0.520628 0.000000
2.000000 0.739917 0.000000
2.000000 0.935725 0.000000
2.000000 1.110565 0.000000
2.000000 1.266683 0.000000
2.000000 1.406084 0.000000
2.000000 1.530557 0.000000
2.000000 1.641701 0.000000
2.000000 1.740944 0.000000
2.000000 1.829560 0.000000
2.000000 1.908686 0.000000
2.000000 1.979340 0.000000
2.000000 2.042428 0.000000
2.000000 2.098760 0.000000
2.000000 2.149060 0.000000
2.000000 2.193974 0.000000
2.000000 2.234078 0.000000
2.000000 2.269888 0.000000
2.000000 2.301863 0.000000
2.000000 2.330415 0.000000
2.000000 2.355908 0.000000
2.000000 2.378673 0.000000
2.000000 2.398999 0.000000
2.000000 2.417149 0.000000
2.000000 2.433355 0.000000
2.000000 2.447826 0.000000
2.000000 2.460747 0.000000
2.000000 2.472285 0.000000
2.000000 2.482587 0.000000
2.000000 2.491786 0.000000
2.000000 2.508637 0.000000
2.000000 2.519089 0.000000
2.000000 2.531737 0.000000
2.000000 2.547044 0.000000
2.000000 2.565568 0.000000
2.000000 2.587985 0.000000
2.000000 2.615113 0.000000
2.000000 2.647942 0.000000
2.000000 2.687670 0.000000
2.000000 2.735749 0.000000
2.000000 2.793931 0.000000
2.000000 2.864341 0.000000
2.000000 2.949549 0.000000
2.000000 3.052664 0.000000
2.000000 3.177450 0.000000
2.000000 3.328462 0.000000
2.000000 3.511210 0.000000
2.000000 3.732366 0.000000
1.714286 4.000000 0.000000
1.428571 4.000000 0.000000
1.142857 4.000000 0.000000
0.857143 4.000000 0.000000
0.571429 4.000000 0.000000
0.285714 4.000000 0.000000
0.000000 3.715673 0.000000
0.000000 3.453827 0.000000
0.000000 3.212685 0.000000
0.000000 2.990611 0.000000
0.000000 2.786096 0.000000
0.000000 2.597752 0.000000
0.000000 2.424300 0.000000
0.000000 2.264564 0.000000
0.000000 2.117457 0.000000
0.000000 1.981983 0.000000
0.000000 1.857220 0.000000
0.000000 1.742322 0.000000
0.000000 1.636510 0.000000
0.000000 1.539064 0.000000
0.000000 1.449323 0.000000
0.000000 1.366678 0.000000
0.000000 1.290567 0.000000
0.000000 1.220475 0.000000
0.000000 1.155925 0.000000
0.000000 1.096479 0.000000
0.000000 1.041733 0.000000
0.000000 0.991316 0.000000
0.000000 0.944886 0.000000
0.000000 0.902126 0.000000
0.000000 0.862748 0.000000
0.000000 0.826483 0.000000
0.000000 0.793086 0.000000
0.000000 0.762330 0.000000
0.000000 0.734005 0.000000
0.000000 0.707920 0.000000
0.000000 0.683898 0.000000
0.000000 0.661775 0.000000
0.000000 0.641402 0.000000
0.000000 0.622639 0.000000
0.000000 0.605360 0.000000
0.000000 0.589447 0.000000
0.000000 0.574792 0.000000
0.000000 0.561296 0.000000
0.000000 0.548868 0.000000
0.000000 0.537421 0.000000
0.000000 0.526881 0.000000
0.000000 0.517173 0.000000
0.000000 0.508233 0.000000
0.000000 0.491468 0.000000
0.000000 0.479827 0.000000
0.000000 0.463944 0.000000
0.000000 0.442273 0.000000
0.000000 0.412707 0.000000
0.000000 0.372368 0.000000
0.000000 0.317330 0.000000
0.000000 0.242238 0.000000
0.000000 0.139785 0.000000
0.005639 0.505639 0.000000
0.011278 0.511278 0.000000
0.016917 0.516917 0.000000
0.022556 0.522556 0.000000
0.028195 0.528195 0.000000
0.033835 0.533835 0.000000
0.039474 0.539474 0.000000
0.045113 0.545113 0.000000
0.050752 0.550752 0.000000
0.056391 0.556391 0.000000
0.062030 0.562030 0.000000
0.067669 0.567669 0.000000
0.073308 0.573308 0.000000
0.078947 0.578947 0.000000
0.084586 0.584586 0.000000
0.090226 0.590226 0.000000
0.095865 0.595865 0.000000
0.101504 0.601504 0.000000
0.107143 0.607143 0.000000
0.112782 0.612782 0.000000
0.118421 0.618421 0.000000
0.124060 0.624060 0.000000
0.129699 0.629699 0.000000
0.135338 0.635338 0.000000
0.140977 0.640977 0.000000
0.146617 0.646617 0.000000
0.152256 0.652256 0.000000
0.157895 0.657895 0.000000
0.163534 0.663534 0.000000
0.169173 0.669173 0.000000
0.174812 0.674812 0.000000
0.180451 0.680451 0.000000
0.186090 0.686090 0.000000
0.191729 0.691729 0.000000
0.197368 0.697368 0.000000
0.203008 0.703008 0.000000
0.208647 0.708647 0.000000
0.214286 0.714286 0.000000
0.219925 0.719925 0.000000
0.225564 0.725564 0.000000
0.231203 0.731203 0.000000
0.236842 0.736842 0.000000
0.242481 0.742481 0.000000
0.248120 0.748120 0.000000
0.253759 0.753759 0.000000
0.259398 0.759398 0.000000
0.265038 0.765038 0.000000
0.270677 0.770677 0.000000
0.276316 0.776316 0.000000
0.281955 0.781955 0.000000
0.287594 0.787594 0.000000
0.293233 0.793233 0.000000
0.298872 0.798872 0.000000
0.304511 0.804511 0.000000
0.310150 0.810150 0.000000
0.315789 0.815789 0.000000
0.321429 0.821429 0.000000
0.327068 0.827068 0.000000
0.332707 0.832707 0.000000
0.338346 0.838346 0.000000
0.343985 0.843985 0.000000
0.349624 0.849624 0.000000
0.355263 0.855263 0.000000
0.360902 0.860902 0.000000
0.366541 0.866541 0.000000
0.372180 0.872180 0.000000
0.377820 0.877820 0.000000
0.383459 0.883459 0.000000
0.389098 0.889098 0.000000
0.394737 0.894737 0.000000
0.400376 0.900376 0.000000
0.406015 0.906015 0.000000
0.411654 0.911654 0.000000
0.417293 0.917293 0.000000
0.422932 0.922932 0.000000
0.428571 0.928571 0.000000
0.434211 0.934211 0.000000
0.439850 0.939850 0.000000
0.445489 0.945489 0.000000
0.451128 0.951128 0.000000
0.456767 0.956767 0.000000
0.462406 0.962406 0.000000
0.468045 0.968045 0.000000
0.473684 0.973684 0.000000
0.479323 0.979323 0.000000
0.484962 0.984962 0.000000
0.490602 0.990602 0.000000
0.496241 0.996241 0.000000
0.501880 1.001880 0.000000
0.507519 1.007519 0.000000
0.513158 1.013158 0.000000
0.518797 1.018797 0.000000
0.524436 1.024436 0.000000
0.530075 1.030075 0.000000
0.535714 1.035714 0.000000
0.541353 1.041353 0.000000
0.546992 1.046992 0.000000
0.552632 1.052632 0.000000
0.558271 1.058271 0.000000
0.563910 1.063910 0.000000
0.569549 1.069549 0.000000
0.575188 1.075188 0.000000
0.580827 1.080827 0.000000
0.586466 1.086466 0.000000
0.592105 1.092105 0.000000
0.597744 1.097744 0.000000
0.603383 1.103383 0.000000
0.609023 1.109023 0.000000
0.614662 1.114662 0.000000
0.620301 1.120301 0.000000
0.625940 1.125940 0.000000
0.631579 1.131579 0.000000
0.637218 1.137218 0.000000
0.642857 1.142857 0.000000
0.648496 1.148496 0.000000
0.654135 1.154135 0.000000
0.659774 1.159774 0.000000
0.665414 1.165414 0.000000
0.671053 1.171053 0.000000
0.676692 1.176692 0.000000
0.682331 1.182331 0.000000
0.687970 1.187970 0.000000
0.693609 1.193609 0.000000
0.699248 1.199248 0.000000
0.704887 1.204887 0.000000
0.710526 1.210526 0.000000
0.716165 1.216165 0.000000
0.721805 1.221805 0.000000
0.727444 1.227444 0.000000
0.733083 1.233083 0.000000
0.738722 1.238722 0.000000
0.744361 1.244361 0.000000
0.750000 1.250000 0.000000
0.755639 1.255639 0.000000
0.761278 1.261278 0.000000
0.766917 1.266917 0.000000
0.772556 1.272556 0.000000
0.778195 1.278195 0.000000
0.783835 1.283835 0.000000
0.789474 1.289474 0.000000
0.795113 1.295113 0.000000
0.800752 1.300752 0.000000
0.806391 1.306391 0.000000
0.812030 1.312030 0.000000
0.817669 1.317669 0.000000
0.823308 1.323308 0.000000
0.828947 1.328947 0.000000
0.834586 1.334586 0.000000
0.840226 1.340226 0.000000
0.845865 1.345865 0.000000
0.851504 1.351504 0.000000
0.857143 1.357143 0.000000
0.862782 1.362782 0.000000
0.868421 1.368421 0.000000
0.874060 1.374060 0.000000
0.879699 1.379699 0.000000
0.885338 1.385338 0.000000
0.890977 1.390977 0.000000
0.896617 1.396617 0.000000
0.902256 1.402256 0.000000
0.907895 1.407895 0.000000
0.913534 1.413534 0.000000
0.919173 1.419173 0.000000
0.924812 1.424812 0.000000
0.930451 1.430451 0.000000
0.936090 1.436090 0.000000
0.941729 1.441729 0.000000
0.947368 1.447368 0.000000
0.953008 1.453008 0.000000
0.958647 1.458647 0.000000
0.964286 1.464286 0.000000
0.969925 1.469925 0.000000
0.975564 1.475564 0.000000
0.981203 1.481203 0.000000
0.986842 1.486842 0.000000
0.992481 1.492481 0.000000
0.998120 1.498120 0.000000
1.003759 1.503759 0.000000
1.009398 1.509398 0.000000
1.015038 1.515038 0.000000
1.020677 1.520677 0.000000
1.026316 1.526316 0.000000
1.031955 1.531955 0.000000
1.037594 1.537594 0.000000
1.043233 1.543233 0.000000
1.048872 1.548872 0.000000
1.054511 1.554511 0.000000
1.060150 1.560150 0.000000
1.065789 1.565789 0.000000
1.071429 1.571429 0.000000
1.077068 1.577068 0.000000
1.082707 1.582707 0.000000
1.088346 1.588346 0.000000
1.093985 1.593985 0.000000
1.099624 1.599624 0.000000
1.105263 1.605263 0.000000
1.110902 1.610902 0.000000
1.116541 1.616541 0.000000
1.122180 1.622180 0.000000
1.127820 1.627820 0.000000
1.133459 1.633459 0.000000
1.139098 1.639098 0.000000
1.144737 1.644737 0.000000
1.150376 1.650376 0.000000
1.156015 1.656015 0.000000
1.161654 1.661654 0.000000
1.167293 1.667293 0.000000
1.172932 1.672932 0.000000
1.178571 1.678571 0.000000
1.184211 1.684211 0.000000
1.189850 1.689850 0.000000
1.195489 1.695489 0.000000
1.201128 1.701128 0.000000
1.206767 1.706767 0.000000
1.212406 1.712406 0.000000
1.218045 1.718045 0.000000
1.223684 1.723684 0.000000
1.229323 1.729323 0.000000
1.234962 1.734962 0.000000
1.240602 1.740602 0.000000
1.246241 1.746241 0.000000
1.251880 1.751880 0.000000
1.257519 1.757519 0.000000
1.263158 1.763158 0.000000
1.268797 1.768797 0.000000
1.274436 1.774436 0.000000
1.280075 1.780075 0.000000
1.285714 1.785714 0.000000
1.291353 1.791353 0.000000
1.296992 1.796992 0.000000
1.302632 1.802632 0.000000
1.308271 1.808271 0.000000
1.313910 1.813910 0.000000
1.319549 1.819549 0.000000
1.325188 1.825188 0.000000
1.330827 1.830827 0.000000
1.336466 1.836466 0.000000
1.342105 1.842105 0.000000
1.347744 1.847744 0.000000
1.353383 1.853383 0.000000
1.359023 1.859023 0.000000
1.364662 1.864662 0.000000
1.370301 1.870301 0.000000
1.375940 1.875940 0.000000
1.381579 1.881579 0.000000
1.387218 1.887218 0.000000
1.392857 1.892857 0.000000
[...]
POINT_DATA 5816
SCALARS UX float 1
LOOKUP_TABLE default
-0.000000
0.000000
0.752439
-0.813346
-2.597144
0.542895
0.828182
0.000000
-0.000000
-0.000000
-0.000000
0.000000
-0.000000
0.445241
0.627988
0.738020
0.810497
0.861457
0.897808
0.927752
0.948825
0.963156
0.970987
0.971537
0.966957
0.958360
0.947087
0.934666
0.921811
0.909654
0.898307
0.888095
0.878991
0.870924
0.863870
0.857725
0.852389
0.847730
0.843685
0.840151
0.837079
0.834398
0.832045
0.829989
0.826318
0.824094
0.821482
0.818412
0.814837
0.810742
0.806062
0.800816
0.795031
0.788850
0.782450
0.775985
0.769840
0.764180
0.759775
0.756303
0.754035
0.752891
0.525664
0.301669
0.080227
-0.140347
-0.362339
-0.586767
-0.814366
-0.815834
-0.819853
-0.826484
-0.836151
-0.848477
-0.863138
-0.879440
-0.896910
-0.914549
-0.932323
-0.949602
-0.966298
-0.982288
-0.997774
-1.013233
-1.028656
-1.044508
-1.061287
-1.079640
-1.099185
-1.121315
-1.145884
-1.174179
-1.204302
-1.237200
-1.273621
-1.315912
-1.358335
-1.407517
-1.463160
-1.528066
-1.608273
-1.709504
-1.872220
-2.068107
-2.308421
-2.668503
-3.179071
-3.862532
-4.914462
-6.387898
-7.407077
-2.054691
-1.630815
-1.335711
-1.081252
-0.894111
-0.744786
-0.615151
-0.450194
-0.299198
-1.967385
-1.616469
-1.561079
-1.490294
-1.434429
-1.385597
-1.332744
-1.281212
-1.241529
-1.200489
-1.160785
-1.130619
-1.100308
-1.073243
-1.049252
-1.027083
-1.006143
-0.987349
-0.970752
-0.953973
-0.937259
-0.922177
-0.907436
-0.892523
-0.879366
-0.866149
-0.854447
-0.843167
-0.832293
-0.822756
-0.813161
-0.803797
-0.794784
-0.785595
-0.777159
-0.768573
-0.760952
-0.753156
-0.745275
-0.737400
-0.729735
-0.722924
-0.716461
-0.710054
-0.703464
-0.696984
-0.690857
-0.684884
-0.678898
-0.673469
-0.667837
-0.662308
-0.656915
-0.651499
-0.646274
-0.641072
-0.635897
-0.630681
-0.625489
-0.620412
-0.615285
-0.610395
-0.605429
-0.600575
-0.595839
-0.591192
-0.586424
-0.581543
-0.576807
-0.571948
-0.567291
-0.562710
-0.558185
-0.553566
-0.549003
-0.544371
-0.539710
-0.534979
-0.530475
-0.525882
-0.521346
-0.516793
-0.512169
-0.507584
-0.502960
-0.498303
-0.493651
-0.489046
-0.484472
-0.479815
-0.475185
-0.470512
-0.465855
-0.461183
-0.456542
-0.451862
-0.447149
-0.442500
-0.437818
-0.433157
-0.428454
-0.423726
-0.418944
-0.414189
-0.409448
-0.404685
-0.399867
-0.395056
-0.390218
-0.385354
-0.380482
-0.375575
-0.370645
-0.365707
-0.360752
-0.355787
-0.350837
-0.345891
-0.340931
-0.335928
-0.330896
-0.325864
-0.320802
-0.315718
-0.310642
-0.305547
-0.300449
-0.295295
-0.290127
-0.284951
-0.279771
-0.274568
-0.269339
-0.264104
-0.258853
-0.253593
-0.248322
-0.243017
-0.237695
-0.232354
-0.226998
-0.221618
-0.216234
-0.210808
-0.205365
-0.199910
-0.194445
-0.188989
-0.183492
-0.177978
-0.172446
-0.166893
-0.161319
-0.155704
-0.150078
-0.144423
-0.138768
-0.133098
-0.127439
-0.121774
-0.116079
-0.110359
-0.104616
-0.098871
-0.093130
-0.087363
-0.081567
-0.075753
-0.069907
-0.064056
-0.058201
-0.052331
-0.046457
-0.040588
-0.034719
-0.028848
-0.022951
-0.017018
-0.011022
-0.005015
0.000988
0.006996
0.013007
0.019031
0.025066
0.031132
0.037202
0.043271
0.049336
0.055390
0.061443
0.067512
0.073575
0.079657
0.085764
0.091888
0.098019
0.104149
0.110301
0.116459
0.122680
0.128943
0.135219
0.141484
0.147728
0.153955
0.160162
0.166369
0.172633
0.178932
0.185244
0.191560
0.197862
0.204169
0.210476
0.216747
0.223045
0.229382
0.235725
0.242064
0.248429
0.254831
0.261249
0.267667
0.274090
0.280528
0.286954
0.293375
0.299790
0.306220
0.312618
0.319034
0.325489
0.332007
0.338528
0.345037
0.351545
0.358063
0.364612
0.371172
0.377745
0.384282
0.390818
0.397353
0.403928
0.410479
0.417060
0.423667
0.430245
0.436826
0.443468
0.450095
0.456750
0.463346
0.469934
0.476593
0.483264
0.489800
0.496362
0.502975
0.509627
0.516270
0.522936
0.529658
0.536385
0.549252
0.555181
0.560469
0.565515
0.570325
0.574947
0.579438
0.583759
0.587963
0.592061
0.596022
0.599844
0.603553
0.607177
0.610678
0.614076
0.617389
0.620610
0.623749
0.626804
0.629795
0.632728
0.635603
0.638421
0.641204
0.643951
0.646669
0.649360
0.652034
0.654694
0.657349
0.659997
0.662645
0.665293
0.667943
0.670601
0.673265
0.675936
0.678621
0.681317
0.684023
0.686741
0.689475
0.692221
0.694976
0.697745
0.700524
0.703317
0.706120
0.708935
0.711762
0.714589
0.717434
0.720286
0.723148
0.726022
0.728904
0.731796
0.734698
0.737606
0.740524
0.743452
0.746390
0.749335
0.752293
0.755264
0.758248
0.761246
0.764255
0.767279
0.770314
0.773362
0.776428
0.779511
0.782611
0.785728
0.788865
0.792017
0.795183
0.798375
0.801593
0.804830
0.808092
0.811376
0.814686
0.818026
0.821385
0.824769
0.359744
0.357035
0.345497
0.372388
0.052653
0.025360
0.027980
-0.000844
0.073484
0.100698
0.119398
-0.247705
-0.271771
-0.233285
-0.297013
-0.119154
-0.082206
-0.109200
0.737184
0.744444
0.740906
0.739369
-0.209208
-0.194300
-0.201321
-0.200763
-0.103635
0.679327
0.691126
0.681313
0.689512
-0.210152
-0.184482
-0.189576
-0.163121
-0.063853
-0.088181
-0.087457
-0.113251
-0.075535
-0.052478
-0.053695
0.564369
0.547834
0.568016
0.548127
-0.067718
0.045645
0.034369
0.062043
0.056997
0.255749
0.233093
0.260968
0.253165
0.250668
0.232315
0.229233
-0.516418
-0.512274
-0.542514
-0.527561
0.225845
-0.033857
-0.047373
-0.589412
-0.572950
-0.573115
-0.589015
-0.587539
-0.575306
-0.588215
-0.035920
-0.011322
-0.026703
-0.074702
-0.896480
-0.872053
-0.862419
-0.848128
0.799642
0.785445
0.783972
0.784503
-0.364229
-0.365090
-0.447301
-0.274983
-0.884974
-0.844969
-0.866807
-0.832816
-0.854327
-0.811002
-0.976280
-0.963123
-0.934328
-1.004089
-0.920532
-0.912955
-0.945848
-0.886063
-1.338518
-1.335711
-1.382909
-1.297409
0.729044
0.759813
0.754578
-0.035900
-0.568043
-0.020831
-0.086596
-0.072300
-0.085165
-0.077880
-0.589292
-0.602012
-0.263026
-0.294820
-0.290121
-0.605457
-0.393373
-0.381620
-0.374334
-0.446002
-0.385722
-0.395214
-0.333729
-0.257709
-0.174242
-0.259280
-0.168693
-0.308617
-0.296985
-0.341405
-0.278297
-0.448764
-0.409153
-0.419242
-0.372645
-0.404314
-0.225355
-0.209809
-0.223117
0.801380
0.804656
0.809707
0.793242
-0.201755
0.308710
0.289665
0.291532
0.801693
0.797881
-0.202983
-0.195441
-0.153887
-0.237227
-0.453739
-0.556314
-0.557469
0.145944
-1.054043
-1.041998
-1.079592
-1.024925
-0.068058
-0.068878
-0.025655
-0.031860
-0.702146
-0.705595
0.311902
-0.062502
-0.071393
-0.059321
-0.030984
0.008794
-0.208870
-0.198417
-0.177340
0.019788
-0.600223
-0.604580
-0.584791
0.747364
0.730345
0.751923
0.752097
-0.616663
0.070276
0.078449
0.082875
0.354011
0.344802
0.372146
0.197506
0.171985
0.181630
0.073347
0.037424
0.031068
0.157743
-0.051336
-0.046137
-0.036944
-0.422591
-0.441211
-0.448903
-0.406138
0.095791
0.135397
0.160451
0.052486
0.007284
0.492563
0.482933
0.504292
0.436122
0.444503
0.464554
-0.380396
-0.374696
-0.386986
-0.526009
-0.514857
-0.514220
0.730685
0.720726
0.727887
0.730240
0.779363
0.785397
0.787419
0.461759
-0.339040
-0.333058
-0.380692
0.236695
0.206344
0.194072
-0.722753
-0.706491
-0.691877
-0.678633
-0.686979
-0.667404
-0.657346
-0.643184
0.371247
0.366933
0.385027
0.699185
0.689221
-0.357070
0.387143
0.741376
0.733296
0.730123
-0.368694
-0.373282
-0.385648
-0.382964
-0.188798
-0.185504
-0.140374
0.614890
0.636188
0.622572
0.391427
0.375015
-0.139112
0.393785
-0.147012
-0.159872
-0.150360
0.676778
0.691508
0.678165
0.690166
0.749817
0.754355
0.743040
-0.198529
-0.209293
-0.210371
0.454830
0.475760
0.474512
0.455447
0.033627
0.056598
0.057698
-0.199678
-0.318617
-0.335957
-0.321244
0.507368
0.531729
0.524901
-0.328252
0.601298
-0.206895
-0.202119
0.587488
0.593515
0.600697
0.580349
0.038361
0.051878
0.051479
0.608156
0.622314
0.628202
0.066768
0.527941
0.526363
0.539988
0.641340
0.512388
-0.225423
-0.232029
-0.245150
-0.245556
0.129534
0.145920
0.130179
0.297151
0.278619
0.305740
0.276550
-0.201589
-0.215432
-0.191479
-0.202759
0.150412
-0.190294
-0.209923
0.030317
0.022032
0.040124
0.016181
0.011879
-0.193096
0.582149
0.564617
0.581066
0.428350
0.429923
0.415763
-0.483703
-0.514178
-0.504202
0.376743
0.367924
0.383458
0.367023
-0.370266
-0.391218
-0.369974
-0.392415
0.498847
0.515424
0.508927
-0.198407
-0.198724
-0.170846
0.138822
0.164875
0.137763
-0.228133
0.163515
-0.450948
-0.465887
-0.448549
-0.466375
0.791407
-0.764863
-0.747746
-0.726120
-0.717908
-0.616563
-0.624173
-0.794544
-0.798170
-0.770853
-0.138757
-0.134048
-0.819514
0.513541
0.598541
0.593698
0.587495
0.587881
0.600549
0.505364
-0.264829
-0.266004
-0.292007
0.555172
0.187959
0.139431
0.114027
0.033956
0.569846
0.562502
0.697723
0.698729
0.701713
-0.264637
-0.298367
0.610800
-0.338418
-0.325326
-0.362440
-0.312140
-0.687725
-0.692905
-0.715095
-0.719941
-0.618355
-0.634207
-0.650301
0.545005
0.528769
0.531164
0.704221
0.714164
0.716488
0.384954
0.349401
0.386858
-0.427229
-0.405479
-0.398631
-0.373762
0.345830
-0.290848
-0.320867
-0.292410
-0.177379
0.163513
0.189405
0.193725
0.565431
0.583805
0.588081
-0.414246
-0.429357
-0.445104
0.563808
0.591429
0.613867
-0.343980
-0.315915
-0.301121
-0.319357
0.016675
0.004859
0.002103
-0.456738
-0.434915
-0.443265
-0.440659
-0.658969
-0.661147
-0.671490
-0.653414
0.244873
0.223920
0.233312
0.206824
0.586457
0.584703
0.569970
0.598837
0.603410
-0.174527
-0.172570
-0.163692
0.032157
-0.685318
-0.369225
-0.391709
0.633796
0.623281
0.627325
0.635157
-0.765590
-0.776057
-0.736039
-0.799609
-0.828513
0.514929
0.521964
0.508724
-0.362468
-0.098459
-0.113122
-0.121057
-0.676432
-0.702087
-0.625366
-0.620829
-0.607485
-0.133064
-0.152097
-0.175365
-0.201034
-0.202414
-0.234103
-0.219885
-0.226923
0.527528
0.511948
-0.880363
-0.929319
-0.904644
-0.364961
-0.370359
-0.394413
-0.396051
-0.205931
-0.225746
-0.206309
0.736223
0.737272
-1.291155
-1.253925
-1.023610
-1.020391
-1.055868
0.460038
0.446911
0.469385
-0.013560
-0.005228
0.003100
0.675386
0.671673
0.691891
-0.049215
-0.037430
-0.026973
0.458677
0.006544
-0.027846
-0.013804
-0.572099
-0.577596
-0.562816
0.609749
0.610138
-0.281340
-0.298515
-0.318967
-0.326118
-0.256357
-0.248527
0.605271
-0.222652
-0.247894
-0.249635
-0.278696
-0.193150
0.054516
0.067948
-0.279034
-0.781099
-0.810259
-0.608283
-0.627086
-0.582375
-0.597387
-0.270543
-0.604377
-0.159849
-0.130349
-0.151973
-0.201448
-0.230452
-0.230576
0.747722
0.751405
0.742062
0.749507
-0.827912
-0.805689
-0.845478
0.543308
0.550959
0.541735
-0.741254
-0.718338
0.630833
0.628566
0.623529
-0.570812
-0.587740
0.619434
0.064123
0.701030
0.688499
-0.568097
-0.584058
-0.568044
-0.585615
-0.551584
-0.557197
-0.418011
-0.432110
-0.420335
-0.436237
-0.917037
-0.916665
-0.951080
0.706662
0.698306
0.709042
-0.403728
-0.414957
-0.396938
0.174892
0.100445
0.043637
0.180305
0.192682
0.171844
0.688812
-0.652954
-0.693555
-0.020908
-0.019913
0.530343
0.548163
0.546456
-0.025663
-0.049852
0.071561
0.076431
-0.696060
-0.672426
0.473558
0.458673
0.471234
0.710175
0.713652
0.633442
0.603558
0.649004
0.453741
0.487367
0.496442
-0.216814
-0.355768
-0.351856
-0.368061
-0.215988
0.626470
-0.515107
-0.491866
-0.500808
-0.378782
-0.381647
-0.392598
-0.397947
0.074134
0.080866
0.057629
-0.473823
-0.059604
-0.306717
-0.298730
-0.316906
-0.524715
-0.549156
-0.537771
-0.533158
0.681267
0.676901
0.673377
0.325961
0.340778
0.330507
0.718594
0.344858
0.323569
0.308492
0.085576
0.036890
0.058127
0.544961
0.530881
0.541650
0.733422
-0.495416
-0.488137
-0.503237
-0.487335
-0.501127
-0.487533
-0.489562
0.707200
0.011762
0.018271
-1.122148
-1.165334
-1.092021
-0.342195
-0.348545
-0.103758
-0.107924
-0.077475
-0.138230
0.415602
0.395016
0.389336
0.364823
0.252201
-0.530810
0.686752
0.678958
0.683579
-1.042897
-1.095763
-1.022739
-0.409119
-0.396463
-0.402447
-0.422716
-0.431810
0.628280
0.629668
0.641528
-0.563453
-0.565141
-0.581236
-0.575191
0.157944
0.167327
0.137203
0.164231
0.320230
0.298775
0.327642
0.295259
0.228902
0.244850
0.240262
0.706505
0.705616
0.257218
-0.510487
-0.515489
-0.326466
-0.323817
-0.309517
-0.307626
0.428318
0.451066
0.457412
0.481175
0.400840
0.395859
-0.141218
0.365931
0.092791
0.113067
0.103311
0.029360
0.014274
-0.016306
-0.025758
0.097034
0.053380
-0.686626
-0.694934
-0.717403
0.067413
-0.675268
-0.658212
-0.643699
-0.440107
-0.420229
-0.255957
-0.247491
-0.269812
-0.066881
-0.375747
-0.388995
-0.400180
-0.372912
-0.405221
-0.397106
-0.393583
0.260375
0.268767
0.271486
-0.138889
-0.152741
-0.143261
-0.149107
0.560427
0.570308
0.561384
0.575140
-0.091468
-0.082165
-0.080202
0.376321
0.397697
0.251774
0.321043
0.334923
0.168186
0.195335
0.183882
0.188355
0.019526
0.032439
0.033946
0.048560
-0.314405
-0.329223
-0.330124
-0.346199
-0.325231
-0.337983
-0.250613
0.667484
0.671489
0.287359
0.282810
0.263817
0.310682
0.210157
0.218094
0.214233
0.278837
0.294779
0.274976
0.720069
-0.535128
-0.542926
-0.520700
-0.292051
-0.275787
-0.279936
-0.264677
-0.357206
-0.342360
-0.354100
-0.333895
-0.359576
-0.378098
0.384393
0.399274
0.390211
0.708485
0.703682
0.410115
0.368035
0.345306
0.375334
0.350093
-0.167686
-0.163358
-0.147746
-0.180587
-0.528513
-0.592202
-0.598129
-0.173145
-0.166414
-0.184219
0.255139
0.275272
0.268385
0.269551
-0.010048
-0.020005
-0.353096
-0.343636
-0.075812
-0.046837
0.054669
0.060709
0.217947
0.236497
-0.635279
-0.661144
-0.242133
-0.232518
-0.241771
0.116583
0.094861
0.122841
-0.062910
0.093621
0.109913
0.112300
0.103127
0.088345
0.107304
-0.183715
-0.188966
-0.175602
-0.588292
0.072459
-0.258368
-0.251216
-0.246815
-0.361980
-0.050591
-0.056241
-0.343301
-0.348705
-0.322061
-0.371729
-0.498735
-0.440221
-0.387456
-0.385606
-0.477481
-0.467356
-0.467343
-0.287748
0.211652
0.187781
0.190909
0.136922
0.136538
0.110586
0.096729
0.174532
0.110473
-0.352382
-0.362481
-0.378104
-0.368204
-0.345819
-0.353060
-0.076351
-0.083937
-0.066203
-0.092755
-0.096117
-0.108056
-0.289475
-0.270835
-0.269229
-0.252055
0.342242
0.366283
0.622741
-0.442854
-0.420598
-2.355397
-2.601725
0.332939
0.380579
0.397542
-0.474673
-0.488527
-0.494871
-0.686771
-0.462523
-0.454305
-0.444351
0.329319
0.310729
0.290753
-0.297469
-0.280901
-0.115705
-0.142744
-0.148557
-0.272527
0.090577
0.096033
0.112264
0.078071
-0.500375
-0.132364
-0.151493
-0.088343
-0.104023
0.464169
0.427744
0.468409
0.432269
0.495423
0.507631
0.290356
0.306388
0.291547
0.311048
0.300414
0.315990
0.272185
0.430684
0.434819
0.653706
0.653951
0.642706
0.664801
0.664219
0.259451
0.212761
0.556249
0.547037
-0.298209
-0.297399
-0.386970
0.299188
0.313319
-0.230692
-0.249139
-0.007341
-0.045120
0.627149
0.499493
0.497055
0.474671
0.354421
0.338348
0.333107
0.317665
0.445880
-0.242423
0.403791
-0.550358
-0.543823
-0.559632
-0.354816
-0.308197
-0.449498
-0.463520
-1.910111
-2.233284
-2.074605
0.188417
0.185447
0.209974
-0.455195
-0.440913
0.462591
0.451801
0.014851
0.039790
-0.272730
-0.236740
-0.204400
-0.317418
-0.398969
0.410310
0.422451
0.428353
-1.066695
-1.063482
-1.110816
0.404411
0.338682
0.328854
0.325910
-0.291045
-0.207049
-0.096178
-1.447854
-0.075420
0.439744
0.451856
0.455733
0.248738
0.255494
0.355647
0.369551
0.258598
0.232590
0.239218
0.617462
-0.161886
-0.082956
-0.111701
0.614295
-0.017672
-0.005658
-0.035440
0.344729
-0.173611
-0.053028
-0.018386
-0.063733
-1.514465
-1.353676
-1.689619
-0.000802
0.017325
-0.459043
-0.472203
-1.583644
-1.475977
-1.622245
-0.083691
-1.327431
-1.716703
-1.795909
-1.670013
-0.325723
-0.140989
-0.219983
0.720197
0.725492
-1.625711
-1.682384
-0.129139
-0.124719
0.326523
0.276031
0.310056
-0.048956
-0.115773
-0.077874
-0.117321
-0.141929
-0.145760
-0.039356
0.670283
0.677210
0.680075
-0.052238
-0.077037
-0.112473
-0.122763
-0.124117
-0.140679
0.126700
0.140473
0.126725
-0.017005
-1.507970
-1.585960
-1.535638
-0.554633
-0.550301
-0.565100
-0.538878
-0.565239
-0.579821
-0.592152
-0.561567
-0.543806
-0.580609
-0.542018
-0.186521
0.312550
0.312217
0.300165
-0.133736
0.303342
0.510853
0.517728
0.539892
-0.165586
-0.173253
0.488088
0.504305
0.511893
-0.416658
-0.410507
-0.104278
0.401055
-0.040012
0.354454
-1.440192
-1.466068
-1.747442
0.353589
0.358907
0.813859
0.811317
0.347140
0.622244
0.721660
-0.241899
0.817942
0.814692
0.821649
0.817094
0.627760
0.637650
0.640533
0.650022
0.140461
0.458360
0.465564
0.454592
-0.434594
-0.428249
-0.419429
0.447424
0.442799
0.610950
-1.287419
-1.331177
-1.213109
-1.430707
0.606175
-0.043100
0.391388
0.408224
0.408606
0.567974
0.560931
0.553942
0.545725
0.038144
0.005541
-0.599317
-0.609904
-0.264010
-0.632605
0.574449
0.580007
0.584744
-0.638484
-1.623980
-1.743101
0.715914
0.508435
-1.297805
-1.242784
0.152947
0.130651
0.148451
0.123716
0.713902
0.653035
0.697571
0.669816
0.508607
0.805194
-0.390673
-1.437341
-1.227147
-0.917014
-0.902594
-0.930666
-0.878635
-0.538418
-0.519574
-0.522465
-0.507007
-0.533282
-0.520214
-1.189684
-0.114406
-0.137041
-0.153538
-1.223533
-1.183637
-1.220948
-1.177170
-1.182264
-0.609979
-0.590204
-0.575663
-0.627590
-0.825565
-0.784162
-0.809444
-0.828192
-0.885448
-0.728229
-0.755090
-0.697544
-0.335772
-0.353060
-0.327945
-1.013478
-1.016053
-1.009889
-1.376040
-1.390776
-1.339888
-0.985428
-0.975748
-0.949365
-0.912520
-0.931971
-1.196299
-1.157920
-1.201162
-1.106413
-1.110350
-1.149820
-1.140641
0.594561
-0.939157
-0.908270
-0.093065
-0.129843
-0.958102
-0.941009
-0.986275
-0.968987
-0.925193
-0.964975
-0.926778
-0.352325
-1.194879
-1.151721
-0.290708
-0.608965
-0.642789
-0.632643
-0.609303
-0.594594
-1.006611
-1.041787
-0.994347
0.149302
0.166670
0.166335
0.588561
-0.558464
-0.576539
-0.595779
-0.543657
0.025261
0.002128
-0.073008
-0.984470
-1.005156
-0.950676
-1.143338
-1.182496
-1.034390
-2.250753
-1.808689
-1.651331
0.599735
-0.780336
-0.747780
-1.281502
-0.736052
-1.220752
-1.199709
-1.285913
-1.162215
-1.152293
-0.955379
-1.003087
-1.018383
-1.044213
0.140971
0.192967
0.022121
-0.679231
-0.718760
0.013548
-0.730888
-0.760006
-0.764394
-0.730792
-0.696467
-0.702493
-1.346522
-1.362835
-1.253003
0.182126
-0.716818
0.438876
0.442482
-0.795348
-0.782544
-0.749441
-1.045253
-1.084769
-1.080593
-1.063001
-0.590785
-0.611782
-0.628840
-0.436078
-0.432094
-0.463724
-0.475277
-0.450374
-0.722103
-0.749099
-0.755076
0.773228
0.767893
-1.107850
-1.118563
0.764101
-0.236813
-0.345641
-0.672740
-0.693073
-0.715562
-0.753460
-0.714410
0.023823
-0.060395
0.079937
-0.509424
-0.509729
0.717175
0.687843
0.700787
0.706742
-1.150544
-1.119085
-1.192308
-1.176167
-0.924638
-0.898878
-0.886276
-0.868242
-0.011534
-1.113372
-1.066357
-1.115407
-1.035766
-1.085673
-0.546094
-0.587480
-0.557690
-0.571527
-0.533447
-1.270189
-1.446000
-0.685130
-0.720085
0.002794
0.033155
-0.003198
0.039769
-0.674625
-0.642938
-0.669628
-0.649823
-0.621877
0.715104
-0.304878
-0.305567
-0.321812
-0.273083
0.779059
0.775586
0.770919
-0.623162
-0.693495
-0.715002
-0.691894
-0.735665
-0.741022
-1.143920
-1.101038
-1.134713
0.813415
-0.903288
-0.916184
-0.873320
-0.884695
-1.250185
-1.323905
-1.425864
-0.855533
-0.728176
-0.754511
-0.760194
-0.754287
-0.714236
-0.696343
-0.151343
-0.112177
-0.858725
-0.834010
-0.829148
-0.794738
-0.794274
0.756329
0.760913
-0.019546
-0.003930
0.011507
0.005360
-0.666222
-0.710682
-0.915807
-0.886257
-0.950745
-0.639510
-0.592261
-0.624075
-0.677528
-0.942055
-0.965464
-0.927734
-0.976049
-0.992705
-0.503106
-0.461719
-0.578001
-0.622000
0.225850
0.247874
0.206719
0.162601
0.165184
-0.961003
-0.896151
-0.855281
-0.893298
-0.927869
-0.928759
-1.016526
-1.071872
-0.957869
-0.962869
-0.960497
-0.920015
-0.545555
-0.561753
-0.029333
-0.510736
-0.486405
-0.483702
-0.460113
-0.824192
-0.857711
-0.896751
-0.890883
0.080056
-0.774285
-0.770987
-1.024355
-1.011921
-1.056605
-0.969886
-1.076786
-0.902821
-0.886468
-0.864932
-0.925297
-0.951101
0.614737
0.618557
0.608673
-0.855592
-0.819856
-0.631103
-1.037194
-1.054582
-1.095023
-0.808787
-0.829610
-0.792322
-0.773002
-0.492528
-0.477057
-0.459134
-0.481675
-0.884088
-0.852194
0.742545
0.726079
0.694444
-0.665097
-0.892747
-0.900535
-0.681494
-0.832994
-0.863188
-0.843999
-0.848193
-0.628399
-0.656200
-0.800670
-0.818939
-0.586061
-0.568162
-0.537195
-0.514908
-0.547156
-1.038361
0.391627
-0.520671
-0.497333
-0.539206
0.728376
-0.589659
-0.638887
0.580596
0.578014
0.586973
-0.609379
-0.644070
0.765137
0.421150
-1.050975
-0.488546