# vtk DataFile Version 2.0
Test
ASCII
DATASET POLYDATA
POINTS 4677 float
0.000000 0.000000 0.000000
0.080000 0.000000 0.000000
0.080000 0.160000 0.000000
0.000000 0.160000 0.000000
0.036000 0.073072 0.000000
0.044000 0.086928 0.000000
0.024500 0.065566 0.000000
0.055500 0.093560 0.000000
0.001000 0.050000 0.000000
0.079000 0.110000 0.000000
0.002963 0.000000 0.000000
0.005926 0.000000 0.000000
0.008889 0.000000 0.000000
0.011852 0.000000 0.000000
0.014815 0.000000 0.000000
0.017778 0.000000 0.000000
0.020741 0.000000 0.000000
0.023704 0.000000 0.000000
0.026667 0.000000 0.000000
0.029630 0.000000 0.000000
0.032593 0.000000 0.000000
0.035556 0.000000 0.000000
0.038519 0.000000 0.000000
0.041481 0.000000 0.000000
0.044444 0.000000 0.000000
0.047407 0.000000 0.000000
0.050370 0.000000 0.000000
0.053333 0.000000 0.000000
0.056296 0.000000 0.000000
0.059259 0.000000 0.000000
0.062222 0.000000 0.000000
0.065185 0.000000 0.000000
0.068148 0.000000 0.000000
0.071111 0.000000 0.000000
0.074074 0.000000 0.000000
0.077037 0.000000 0.000000
0.080000 0.002963 0.000000
0.080000 0.005926 0.000000
0.080000 0.008889 0.000000
0.080000 0.011852 0.000000
0.080000 0.014815 0.000000
0.080000 0.017778 0.000000
0.080000 0.020741 0.000000
0.080000 0.023704 0.000000
0.080000 0.026667 0.000000
0.080000 0.029630 0.000000
0.080000 0.032593 0.000000
0.080000 0.035556 0.000000
0.080000 0.038519 0.000000
0.080000 0.041481 0.000000
0.080000 0.044444 0.000000
0.080000 0.047407 0.000000
0.080000 0.050370 0.000000
0.080000 0.053333 0.000000
0.080000 0.056296 0.000000
0.080000 0.059259 0.000000
0.080000 0.062222 0.000000
0.080000 0.065185 0.000000
0.080000 0.068148 0.000000
0.080000 0.071111 0.000000
0.080000 0.074074 0.000000
0.080000 0.077037 0.000000
0.080000 0.080000 0.000000
0.080000 0.082963 0.000000
0.080000 0.085926 0.000000
0.080000 0.088889 0.000000
0.080000 0.091852 0.000000
0.080000 0.094815 0.000000
0.080000 0.097778 0.000000
0.080000 0.100741 0.000000
0.080000 0.103704 0.000000
0.080000 0.106667 0.000000
0.080000 0.109630 0.000000
0.080000 0.112593 0.000000
0.080000 0.115556 0.000000
0.080000 0.118519 0.000000
0.080000 0.121481 0.000000
0.080000 0.124444 0.000000
0.080000 0.127407 0.000000
0.080000 0.130370 0.000000
0.080000 0.133333 0.000000
0.080000 0.136296 0.000000
0.080000 0.139259 0.000000
0.080000 0.142222 0.000000
0.080000 0.145185 0.000000
0.080000 0.148148 0.000000
0.080000 0.151111 0.000000
0.080000 0.154074 0.000000
0.080000 0.157037 0.000000
0.077037 0.160000 0.000000
0.074074 0.160000 0.000000
0.071111 0.160000 0.000000
0.068148 0.160000 0.000000
0.065185 0.160000 0.000000
0.062222 0.160000 0.000000
0.059259 0.160000 0.000000
0.056296 0.160000 0.000000
0.053333 0.160000 0.000000
0.050370 0.160000 0.000000
0.047407 0.160000 0.000000
0.044444 0.160000 0.000000
0.041481 0.160000 0.000000
0.038519 0.160000 0.000000
0.035556 0.160000 0.000000
0.032593 0.160000 0.000000
0.029630 0.160000 0.000000
0.026667 0.160000 0.000000
0.023704 0.160000 0.000000
0.020741 0.160000 0.000000
0.017778 0.160000 0.000000
0.014815 0.160000 0.000000
0.011852 0.160000 0.000000
0.008889 0.160000 0.000000
0.005926 0.160000 0.000000
0.002963 0.160000 0.000000
0.000000 0.157037 0.000000
0.000000 0.154074 0.000000
0.000000 0.151111 0.000000
0.000000 0.148148 0.000000
0.000000 0.145185 0.000000
0.000000 0.142222 0.000000
0.000000 0.139259 0.000000
0.000000 0.136296 0.000000
0.000000 0.133333 0.000000
0.000000 0.130370 0.000000
0.000000 0.127407 0.000000
0.000000 0.124444 0.000000
0.000000 0.121481 0.000000
0.000000 0.118519 0.000000
0.000000 0.115556 0.000000
0.000000 0.112593 0.000000
0.000000 0.109630 0.000000
0.000000 0.106667 0.000000
0.000000 0.103704 0.000000
0.000000 0.100741 0.000000
0.000000 0.097778 0.000000
0.000000 0.094815 0.000000
0.000000 0.091852 0.000000
0.000000 0.088889 0.000000
0.000000 0.085926 0.000000
0.000000 0.082963 0.000000
0.000000 0.080000 0.000000
0.000000 0.077037 0.000000
0.000000 0.074074 0.000000
0.000000 0.071111 0.000000
0.000000 0.068148 0.000000
0.000000 0.065185 0.000000
0.000000 0.062222 0.000000
0.000000 0.059259 0.000000
0.000000 0.056296 0.000000
0.000000 0.053333 0.000000
0.000000 0.050370 0.000000
0.000000 0.047407 0.000000
0.000000 0.044444 0.000000
0.000000 0.041481 0.000000
0.000000 0.038519 0.000000
0.000000 0.035556 0.000000
0.000000 0.032593 0.000000
0.000000 0.029630 0.000000
0.000000 0.026667 0.000000
0.000000 0.023704 0.000000
0.000000 0.020741 0.000000
0.000000 0.017778 0.000000
0.000000 0.014815 0.000000
0.000000 0.011852 0.000000
0.000000 0.008889 0.000000
0.000000 0.005926 0.000000
0.000000 0.002963 0.000000
0.035500 0.072746 0.000000
0.035000 0.072419 0.000000
0.034500 0.072093 0.000000
0.034000 0.071767 0.000000
0.033500 0.071440 0.000000
0.033000 0.071114 0.000000
0.032500 0.070788 0.000000
0.032000 0.070461 0.000000
0.031500 0.070135 0.000000
0.031000 0.069809 0.000000
0.030500 0.069482 0.000000
0.030000 0.069156 0.000000
0.029500 0.068829 0.000000
0.029000 0.068503 0.000000
0.028500 0.068177 0.000000
0.028000 0.067850 0.000000
0.027500 0.067524 0.000000
0.027000 0.067198 0.000000
0.026500 0.066871 0.000000
0.026000 0.066545 0.000000
0.025500 0.066219 0.000000
0.025000 0.065892 0.000000
0.044500 0.087216 0.000000
0.045000 0.087505 0.000000
0.045500 0.087793 0.000000
0.046000 0.088081 0.000000
0.046500 0.088370 0.000000
0.047000 0.088658 0.000000
0.047500 0.088946 0.000000
0.048000 0.089235 0.000000
0.048500 0.089523 0.000000
0.049000 0.089811 0.000000
0.049500 0.090100 0.000000
0.050000 0.090388 0.000000
0.050500 0.090677 0.000000
0.051000 0.090965 0.000000
0.051500 0.091253 0.000000
0.052000 0.091542 0.000000
0.052500 0.091830 0.000000
0.053000 0.092118 0.000000
0.053500 0.092407 0.000000
0.054000 0.092695 0.000000
0.054500 0.092983 0.000000
0.055000 0.093272 0.000000
0.043704 0.086415 0.000000
0.043407 0.085902 0.000000
0.043111 0.085388 0.000000
0.042815 0.084875 0.000000
0.042519 0.084362 0.000000
0.042222 0.083849 0.000000
0.041926 0.083336 0.000000
0.041630 0.082823 0.000000
0.041333 0.082309 0.000000
0.041037 0.081796 0.000000
0.040741 0.081283 0.000000
0.040444 0.080770 0.000000
0.040148 0.080257 0.000000
0.039852 0.079743 0.000000
0.039556 0.079230 0.000000
0.039259 0.078717 0.000000
0.038963 0.078204 0.000000
0.038667 0.077691 0.000000
0.038370 0.077177 0.000000
0.038074 0.076664 0.000000
0.037778 0.076151 0.000000
0.037481 0.075638 0.000000
0.037185 0.075125 0.000000
0.036889 0.074612 0.000000
0.036593 0.074098 0.000000
0.036296 0.073585 0.000000
0.024000 0.065235 0.000000
0.023500 0.064904 0.000000
0.023000 0.064572 0.000000
0.022500 0.064241 0.000000
0.022000 0.063910 0.000000
0.021500 0.063579 0.000000
0.021000 0.063248 0.000000
0.020500 0.062916 0.000000
0.020000 0.062585 0.000000
0.019500 0.062254 0.000000
0.019000 0.061923 0.000000
0.018500 0.061592 0.000000
0.018000 0.061261 0.000000
0.017500 0.060929 0.000000
0.017000 0.060598 0.000000
0.016500 0.060267 0.000000
0.016000 0.059936 0.000000
0.015500 0.059605 0.000000
0.015000 0.059273 0.000000
0.014500 0.058942 0.000000
0.014000 0.058611 0.000000
0.013500 0.058280 0.000000
0.013000 0.057949 0.000000
0.012500 0.057617 0.000000
0.012000 0.057286 0.000000
0.011500 0.056955 0.000000
0.011000 0.056624 0.000000
0.010500 0.056293 0.000000
0.010000 0.055961 0.000000
0.009500 0.055630 0.000000
0.009000 0.055299 0.000000
0.008500 0.054968 0.000000
0.008000 0.054637 0.000000
0.007500 0.054305 0.000000
0.007000 0.053974 0.000000
0.006500 0.053643 0.000000
0.006000 0.053312 0.000000
0.005500 0.052981 0.000000
0.005000 0.052650 0.000000
0.004500 0.052318 0.000000
0.004000 0.051987 0.000000
0.003500 0.051656 0.000000
0.003000 0.051325 0.000000
0.002500 0.050994 0.000000
0.002000 0.050662 0.000000
0.001500 0.050331 0.000000
0.055990 0.093902 0.000000
0.056479 0.094245 0.000000
0.056969 0.094587 0.000000
0.057458 0.094930 0.000000
0.057948 0.095272 0.000000
0.058437 0.095615 0.000000
0.058927 0.095957 0.000000
0.059417 0.096300 0.000000
0.059906 0.096642 0.000000
0.060396 0.096985 0.000000
0.060885 0.097327 0.000000
0.061375 0.097670 0.000000
0.061865 0.098012 0.000000
0.062354 0.098355 0.000000
0.062844 0.098697 0.000000
0.063333 0.099040 0.000000
0.063823 0.099382 0.000000
0.064312 0.099725 0.000000
0.064802 0.100067 0.000000
0.065292 0.100410 0.000000
0.065781 0.100752 0.000000
0.066271 0.101095 0.000000
0.066760 0.101437 0.000000
0.067250 0.101780 0.000000
0.067740 0.102122 0.000000
0.068229 0.102465 0.000000
0.068719 0.102807 0.000000
0.069208 0.103150 0.000000
0.069698 0.103492 0.000000
0.070187 0.103835 0.000000
0.070677 0.104177 0.000000
0.071167 0.104520 0.000000
0.071656 0.104862 0.000000
0.072146 0.105205 0.000000
0.072635 0.105547 0.000000
0.073125 0.105890 0.000000
0.073615 0.106232 0.000000
0.074104 0.106575 0.000000
0.074594 0.106917 0.000000
0.075083 0.107260 0.000000
0.075573 0.107602 0.000000
0.076062 0.107945 0.000000
0.076552 0.108287 0.000000
0.077042 0.108630 0.000000
0.077531 0.108972 0.000000
0.078021 0.109315 0.000000
0.078510 0.109658 0.000000
0.043942 0.087469 0.000000
0.035556 0.157037 0.000000
0.044420 0.002920 0.000000
0.077037 0.038519 0.000000
0.002963 0.121481 0.000000
0.077037 0.059259 0.000000
0.002963 0.109630 0.000000
0.002923 0.098139 0.000000
0.077153 0.126913 0.000000
0.002808 0.032596 0.000000
0.077140 0.071061 0.000000
0.002963 0.085926 0.000000
0.002963 0.136296 0.000000
0.077041 0.023701 0.000000
0.056296 0.157037 0.000000
0.032593 0.002963 0.000000
0.077037 0.080000 0.000000
0.002813 0.077135 0.000000
0.077037 0.142222 0.000000
0.017778 0.157037 0.000000
0.062222 0.002963 0.000000
0.076992 0.088722 0.000000
0.002945 0.020743 0.000000
0.017777 0.002962 0.000000
0.002801 0.068434 0.000000
0.002959 0.011851 0.000000
0.065186 0.157038 0.000000
0.002963 0.148148 0.000000
0.077037 0.011852 0.000000
0.076887 0.094740 0.000000
0.077092 0.115875 0.000000
0.002677 0.044265 0.000000
0.077038 0.148148 0.000000
0.002985 0.062165 0.000000
0.077037 0.047407 0.000000
0.011852 0.002963 0.000000
[...]
POINT_DATA 4677
SCALARS UX float 1
LOOKUP_TABLE default
-0.000000
0.000001
0.041863
-0.000604
0.008509
0.001543
-0.027173
0.029663
-0.034883
0.044051
-0.000000
-0.000000
-0.000000
-0.000000
-0.000000
-0.000000
-0.000000
-0.000000
-0.000000
-0.000000
-0.000000
-0.000000
-0.000000
0.000000
0.000000
0.000000
0.000000
0.000000
0.000000
0.000000
0.000000
0.000000
0.000000
0.000000
0.000000
-0.000000
0.003526
0.005743
0.007796
0.009776
0.011793
0.014060
0.016529
0.018864
0.020943
0.023035
0.025260
0.027385
0.029948
0.032915
0.035185
0.036947
0.037379
0.037743
0.037519
0.037002
0.036428
0.036329
0.036285
0.037916
0.039368
0.040566
0.041415
0.042002
0.042068
0.041577
0.041538
0.041952
0.042438
0.043038
0.043544
0.044067
0.044254
0.045712
0.047157
0.048575
0.050080
0.051168
0.051091
0.045847
0.041893
0.040609
0.040287
0.040734
0.038799
0.038665
0.039555
0.040038
0.040877
0.039841
0.037949
0.036697
0.034245
0.032287
0.030800
0.028598
0.026676
0.025004
0.023526
0.022175
0.021019
0.019965
0.018695
0.017027
0.015325
0.013669
0.012192
0.011089
0.010123
0.008766
0.006908
0.005478
0.003700
0.002254
0.001156
-0.001262
-0.001365
-0.001921
-0.002989
-0.003733
-0.005179
-0.006515
-0.008153
-0.009695
-0.011002
-0.012655
-0.014462
-0.015737
-0.015753
-0.016051
-0.016637
-0.017116
-0.017121
-0.017380
-0.018207
-0.019823
-0.021965
-0.027062
-0.035296
-0.037472
-0.038876
-0.038407
-0.038223
-0.038981
-0.039595
-0.040140
-0.040135
-0.040243
-0.039961
-0.038925
-0.037632
-0.035649
-0.034236
-0.032660
-0.030381
-0.028500
-0.024933
-0.022729
-0.021268
-0.019355
-0.017802
-0.015964
-0.014850
-0.013194
-0.011727
-0.009477
-0.007497
-0.005141
0.006895
0.007682
0.004682
0.004990
0.003169
0.001846
0.001432
-0.000138
-0.002183
-0.003796
-0.005504
-0.002095
-0.009204
-0.013530
-0.017763
-0.020977
-0.021861
-0.025851
-0.027498
-0.025965
-0.025320
-0.025177
0.001939
0.003607
0.002845
0.003115
0.005020
0.005902
0.007558
0.008549
0.009931
0.011431
0.011145
0.012565
0.014204
0.016055
0.018859
0.020928
0.021791
0.024528
0.024989
0.025560
0.026779
0.028947
0.001406
0.001143
0.002863
0.003399
0.003225
0.003845
0.003801
0.004466
0.004745
0.005065
0.005289
0.005367
0.005184
0.004938
0.005487
0.006368
0.006226
0.007062
0.007081
0.007351
0.008117
0.008396
0.008782
0.008803
0.008993
0.008795
-0.027807
-0.028239
-0.028475
-0.028723
-0.028976
-0.029224
-0.029509
-0.029635
-0.029922
-0.030347
-0.030581
-0.030864
-0.031118
-0.031390
-0.031658
-0.031918
-0.032160
-0.032389
-0.032596
-0.032799
-0.032988
-0.033174
-0.033349
-0.033518
-0.033681
-0.033834
-0.033981
-0.034125
-0.034277
-0.034368
-0.034483
-0.034557
-0.034632
-0.034707
-0.034765
-0.034812
-0.034857
-0.034882
-0.034895
-0.034891
-0.034884
-0.034861
-0.034845
-0.034834
-0.034992
-0.034950
0.030440
0.030565
0.030967
0.031439
0.031706
0.032058
0.032412
0.032712
0.032962
0.033252
0.033537
0.033798
0.034130
0.034413
0.034747
0.035059
0.035297
0.035551
0.035824
0.036112
0.036394
0.036679
0.036965
0.037251
0.037538
0.037823
0.038108
0.038392
0.038677
0.038970
0.039259
0.039517
0.039791
0.040056
0.040334
0.040613
0.040897
0.041177
0.041450
0.041721
0.042018
0.042278
0.042554
0.042847
0.043122
0.043401
0.043718
0.001383
0.016037
0.000070
0.028883
-0.013712
0.035393
-0.015878
-0.016222
0.048782
-0.021094
0.035863
-0.031907
-0.006353
0.015651
0.026420
-0.000122
0.039603
-0.036534
0.037409
0.008020
0.000279
0.040065
-0.014651
-0.000640
-0.038791
-0.010390
0.031922
-0.001486
0.007179
0.040815
0.045919
-0.030160
0.036833
-0.039166
0.035841
-0.000900
0.035675
0.001645
0.000858
-0.038431
0.041627
0.037862
0.019573
0.022025
-0.000220
-0.009045
0.020518
0.010538
0.000171
0.038427
0.046772
-0.027428
0.003558
0.048186
-0.025282
-0.038277
-0.037201
0.039762
-0.022085
-0.034953
0.034782
0.037280
0.036081
-0.015532
0.042038
-0.014693
-0.019382
-0.017399
0.031867
0.012832
0.037817
0.000118
0.000052
-0.010476
0.023052
0.000001
-0.013388
-0.000436
0.028071
0.023372
-0.003687
0.010995
-0.008058
-0.000900
-0.005516
0.004847
0.000492
0.037173
-0.001823
-0.002435
0.000015
0.003296
0.000314
0.001300
0.043620
0.000598
-0.034096
-0.036127
0.042990
0.000548
-0.000003
0.027777
0.034952
-0.017818
-0.030849
0.045772
0.023075
-0.006977
0.033119
-0.000724
-0.025853
-0.012095
-0.038057
0.037631
0.040688
0.026231
-0.008818
-0.002398
-0.004281
0.035323
0.001300
0.001871
0.044828
-0.032222
0.041252
-0.039192
0.040396
-0.038224
-0.035456
0.040402
0.048610
-0.023599
0.043508
-0.036146
0.038779
-0.027244
-0.018366
0.034706
0.034883
-0.015929
-0.015734
0.036012
-0.015396
0.036217
0.040989
0.034323
-0.014241
0.017890
-0.012192
0.025684
0.014401
0.000098
0.020745
-0.016267
0.011524
0.000137
-0.000056
0.037197
-0.007714
0.018167
0.024856
-0.000188
0.009609
0.000215
-0.011885
-0.000388
0.030055
-0.004908
0.013123
-0.000640
-0.002526
0.008995
0.033902
0.036666
0.006248
0.000360
0.036865
0.037838
0.002908
0.000662
-0.000577
0.005206
-0.034401
0.043922
0.043229
-0.037106
-0.034275
0.003026
0.000536
0.042757
-0.037338
0.045346
-0.025159
0.007609
0.006404
0.007144
0.033624
-0.015169
-0.014355
0.042774
-0.024735
0.013583
0.008594
-0.036690
0.000300
0.015049
0.039469
-0.003225
0.005648
0.040079
0.006500
-0.001149
0.000839
0.043340
-0.033518
0.043104
0.034401
-0.014369
0.034761
-0.012736
0.020366
-0.005767
0.029705
-0.001264
-0.002044
0.000752
0.033054
0.035807
-0.033444
0.043943
-0.029885
0.044317
0.037082
-0.038128
0.044634
-0.033978
-0.036575
0.039259
0.038218
-0.014407
0.041931
-0.020786
-0.022620
-0.027610
0.033129
0.033927
-0.021699
0.024171
-0.000221
-0.000100
-0.016013
0.033512
0.031235
0.000175
0.000107
-0.027537
0.035126
0.021760
0.011014
0.024630
-0.009972
-0.008517
0.033305
0.034442
0.033797
0.017201
-0.014512
-0.000474
0.028144
-0.010418
-0.000755
0.010251
0.000499
-0.013307
-0.006687
-0.002591
0.036235
0.002638
0.001333
0.003275
-0.018905
0.000069
0.001978
0.042900
-0.033976
-0.035369
0.044444
-0.034402
0.043021
0.001016
0.003313
0.004397
0.004857
0.001026
-0.000232
0.029318
0.031999
-0.017959
0.019539
-0.008223
-0.016919
0.031010
0.036789
-0.000961
0.024629
-0.013134
-0.010819
-0.003552
-0.033020
0.042914
0.036890
0.008838
-0.035918
0.021412
0.000074
0.030299
-0.001632
0.027558
0.032228
-0.004794
0.002047
0.002225
0.005262
-0.037460
0.039502
-0.019216
-0.038187
-0.014396
-0.034427
-0.018356
-0.014945
0.018101
0.032896
0.044004
0.034069
-0.014791
0.034191
0.035021
-0.013470
0.037066
0.039196
-0.021673
0.018609
-0.000334
0.012326
-0.004475
0.034087
0.000232
0.009802
-0.014346
0.021151
0.022135
-0.011778
0.000388
0.007237
0.033867
0.012430
-0.009139
-0.005365
0.008263
0.033989
0.031504
-0.001694
-0.002102
0.000641
0.015403
0.004020
-0.000191
0.034590
0.004746
0.001055
-0.023125
0.042849
-0.026340
-0.000084
-0.035929
-0.000064
0.002887
0.042218
-0.031282
0.043740
0.002003
0.004798
0.042512
-0.035360
-0.032662
0.042603
0.043582
0.006175
0.009636
0.008134
-0.034357
-0.028010
0.000371
0.011588
0.031670
-0.012800
-0.015408
-0.017112
0.039983
0.018688
-0.034063
-0.024630
0.010237
0.038309
-0.001525
0.000494
0.012001
-0.012871
-0.037467
0.006595
-0.013350
0.001073
0.006018
0.032040
-0.000385
0.043250
0.016451
-0.012129
-0.010118
0.031571
-0.009518
-0.002856
0.003296
0.003508
0.032424
-0.029755
0.042701
0.031701
-0.036168
-0.013254
-0.025381
-0.015536
-0.000626
0.031321
0.017951
-0.013233
0.031554
0.018330
-0.000085
-0.021013
0.038304
0.030519
-0.032175
0.038358
0.035771
0.022938
0.031990
0.030717
-0.015883
-0.003651
0.008942
-0.001262
0.026560
-0.012114
0.025931
-0.002200
0.031709
0.000654
0.013021
0.029198
0.032522
-0.006419
0.009544
-0.007452
0.033043
-0.004282
0.000224
-0.000532
0.001257
0.001344
0.001690
-0.022320
0.002067
0.007543
0.009418
-0.033505
-0.034316
0.042548
0.042110
-0.000117
-0.035398
-0.000485
0.041544
-0.038020
0.004145
0.043124
0.037687
0.033719
0.034103
-0.026609
-0.031822
0.004272
0.004728
0.043105
0.002165
0.005099
0.026299
0.029938
-0.008384
-0.000186
0.034175
-0.022538
0.028622
0.040652
0.037041
0.023661
-0.003321
0.009373
-0.001557
-0.028341
0.028714
0.000719
0.009877
0.042614
0.026832
0.000158
0.002783
0.011074
-0.013976
0.016034
0.033125
0.030635
-0.003531
0.001561
-0.010831
-0.006261
0.002450
0.007823
0.042101
-0.013448
0.032765
0.007062
-0.015888
-0.000751
-0.013112
0.032198
0.031121
0.017049
0.037122
-0.013169
0.005745
-0.012862
0.000067
-0.011128
0.028122
0.021745
-0.032487
0.037958
0.030790
-0.036366
0.032413
0.000349
0.036296
-0.017576
-0.011946
-0.020737
-0.006574
0.020258
-0.007961
0.014780
0.031499
0.007750
0.007605
-0.002029
0.030872
0.000841
-0.002582
0.020328
-0.004439
0.029540
0.011779
0.004581
0.000402
0.005059
0.014855
0.041535
-0.034463
0.001382
-0.037387
-0.030878
0.003415
0.011565
0.000786
0.001385
-0.000643
-0.000479
-0.025112
0.006251
0.004050
0.006229
-0.011897
-0.035193
-0.029061
-0.035363
0.029050
0.032272
0.042318
0.038995
0.036105
-0.032345
-0.035216
0.041260
0.008118
0.042563
-0.033885
-0.018827
0.041857
0.041722
0.004796
0.000839
0.013102
-0.012088
-0.012135
0.034566
0.016724
-0.005984
-0.032397
-0.000232
-0.015818
0.012325
-0.023600
0.040636
-0.002131
0.035783
-0.011839
0.025967
0.021613
-0.029670
-0.036611
0.006850
0.042055
0.029698
0.028437
0.029538
0.014067
0.009024
0.027365
-0.011135
-0.009857
0.010731
0.000481
-0.004658
0.030051
0.005627
-0.035052
0.001251
-0.000976
0.003362
0.001951
0.000367
0.004882
-0.011821
-0.029364
-0.021550
-0.018676
0.030448
0.029473
-0.010373
-0.020344
0.013781
0.035480
-0.000471
-0.036904
0.030132
-0.009989
0.000271
-0.001130
-0.035425
-0.004728
0.032923
0.028176
0.042108
0.019577
-0.002686
-0.006736
0.028320
0.031000
0.028682
0.025109
0.000965
-0.002175
0.007070
0.030677
0.023108
0.001152
0.041000
0.015521
0.008087
0.001933
-0.005289
0.041069
0.004292
-0.034208
0.037357
0.041594
0.042340
0.002607
0.006212
-0.031327
-0.033548
0.028846
-0.027045
0.002645
0.037179
0.013540
0.008672
-0.000270
0.006061
-0.000093
-0.000810
-0.011895
0.004331
0.041817
0.009390
0.006580
0.041485
-0.036011
-0.017125
-0.034325
0.041256
0.012052
-0.034308
0.030417
-0.015248
0.008834
0.000493
0.026297
0.014832
0.027849
0.029096
-0.009511
-0.018368
0.032285
-0.025558
0.000638
0.020386
0.009996
-0.001817
0.005832
0.010790
0.011271
0.001352
-0.030576
-0.033599
-0.011996
-0.012517
0.009317
-0.015843
-0.007335
0.024603
0.025671
0.030197
-0.003643
0.027694
0.026614
0.002368
0.007266
-0.000349
-0.010425
-0.012003
0.004519
-0.011768
-0.014582
-0.000785
-0.001709
0.041318
0.029790
-0.036313
-0.035664
0.034564
0.007915
-0.036435
0.014697
0.012713
-0.020277
0.028466
-0.036473
0.012557
0.029497
-0.010975
-0.025763
0.026047
-0.002774
-0.004542
0.028183
-0.032467
-0.037041
-0.013242
0.036550
0.036149
-0.005604
-0.033618
0.017883
-0.008482
-0.000736
0.023070
0.022101
0.015047
0.003533
0.029304
0.002636
0.004509
0.041749
0.005687
0.000318
0.001722
-0.010407
0.027129
0.037543
0.000068
0.001982
0.041852
0.040624
0.005468
-0.033727
0.038278
0.026855
0.041344
-0.035280
0.013132
0.002630
0.000734
-0.000629
-0.030850
0.007532
-0.000768
-0.028838
0.010796
0.040694
0.041476
-0.035934
0.003562
0.030397
0.028097
-0.011808
0.013969
-0.000542
0.041026
0.011565
0.040616
0.006895
-0.034146
0.024359
-0.005299
0.020753
0.013973
-0.018451
-0.010385
-0.000630
-0.031328
0.009140
0.034173
-0.035349
0.036900
0.024193
-0.003768
-0.000389
-0.010860
-0.010840
0.015043
-0.036125
-0.029806
0.041074
-0.033457
0.025485
-0.009239
-0.025337
0.001797
0.012995
0.011519
-0.008825
0.026904
-0.016005
0.004575
0.003683
0.028358
-0.000701
-0.035736
0.041386
0.035880
-0.032091
0.003659
0.007150
-0.017082
-0.023894
0.029539
0.021628
-0.008269
0.026357
0.033677
0.013079
-0.034220
-0.009754
-0.005871
0.028774
-0.001173
0.031204
-0.003781
0.028044
0.000336
0.003493
0.025972
-0.008629
0.000975
0.006017
-0.010479
0.018777
0.002126
0.008546
-0.036032
-0.007073
0.019008
-0.014411
0.039187
-0.010577
-0.010487
-0.002214
0.000652
0.004713
0.001436
0.026638
-0.021438
-0.003155
0.038151
0.028671
-0.010216
0.038346
0.025411
0.014412
0.001487
-0.000757
0.005243
0.009961
0.000013
0.007068
0.040099
0.006944
0.041074
0.001565
0.040705
0.040385
0.014818
-0.000289
0.040831
-0.000294
-0.035634
0.003037
0.008940
-0.033027
-0.037161
-0.012057
0.041253
0.015352
-0.010588
0.003023
-0.035092
-0.037865
-0.013883
0.033772
0.010936
-0.034180
0.008498
-0.027772
0.041479
0.040383
0.001205
-0.000885
0.014859
0.016097
0.026937
-0.009384
-0.008313
0.030127
-0.001079
-0.003440
0.039074
0.037020
-0.028869
0.018182
-0.035044
0.010797
0.000980
0.007556
0.023129
0.028209
-0.035988
-0.009661
0.022896
-0.008867
-0.011710
0.026338
0.003417
-0.006387
0.005699
0.014271
-0.008986
-0.007213
0.000501
0.003621
0.004963
0.002798
0.001302
-0.001509
0.040289
0.026582
-0.001659
-0.013486
0.040449
0.028657
0.025410
0.032383
0.027959
0.036163
0.035128
0.007449
-0.031419
0.017483
0.027929
-0.028674
-0.035588
-0.004905
-0.019421
-0.034996
0.040130
-0.008882
-0.037197
-0.012126
0.000087
0.026130
-0.020373
0.002274
0.024613
-0.034139
0.001654
-0.033113
0.038476
-0.008975
0.015618
0.013953
-0.002599
0.017659
0.010820
0.019337
-0.007845
-0.002831
-0.017320
-0.014725
0.023726
0.002799
0.024946
0.009620
0.007028
0.036942
-0.010539
0.034939
-0.035837
-0.035451
0.001614
0.000137
0.024828
0.004301
0.005646
-0.000921
-0.001064
0.040916
0.039791
0.007877
-0.032649
0.040671
-0.000554
-0.034897
0.015841
-0.010988
0.000311
0.040754
0.013631
0.027270
0.002531
-0.025767
0.016404
-0.033492
0.041208
0.040097
0.003418
0.010152
-0.021658
-0.037725
0.009685
0.040369
-0.015901
-0.007613
0.021996
0.000949
-0.016084
0.016868
0.016300
-0.007309
-0.019906
-0.029812
0.017549
0.037029
0.006972
0.033919
-0.027476
0.035329
0.023186
0.010003
-0.007667
-0.002855
0.040102
0.016010
-0.006825
-0.000930
-0.033868
0.013009
-0.007450
-0.035942
-0.004437
0.002911
0.001693
0.000145
0.003092
-0.010645
-0.036018
-0.009134
0.014163
0.024084
0.024339
-0.009303
0.039845
-0.005387
-0.020599
-0.034738
0.040463
-0.030742
0.027378
0.030468
-0.017687
-0.015423
0.012651
0.024842
-0.008498
-0.014756
-0.009795
0.034309
0.029351
-0.000483
0.004424
0.004133
0.017017
0.040358
0.028287
0.006364
0.000062
0.037675
0.000870
0.021027
0.009194
0.038998
0.026631
0.013582
-0.013632
-0.003590
0.006248
0.023359
0.002188
0.016397
0.026496
-0.002232
0.024685
-0.032410
-0.000361
-0.009520
-0.001474
-0.037534
0.002070
0.003891
0.015736
0.004929
0.006379
-0.000402
-0.033588
-0.035124
-0.000869
0.040545
-0.009044
0.002183
0.008985
-0.024329
0.001021
0.017090
0.023519
0.039815
0.023991
-0.012727
-0.033815
0.011604
0.039387
0.029322
0.029903
0.040127
0.013148
0.017158
0.006446
0.039811
-0.006151
-0.007597
0.011410
-0.005713
0.023266
-0.035566
-0.035007
0.036420
0.003977
0.010993
-0.014910
0.026499
0.017663
0.017770
0.021228
-0.003374
-0.006723
0.030001
0.027300
0.034650
-0.026127
-0.000586
0.001332
0.004556
0.037709
0.022046
0.011864
0.036549
-0.003434
-0.009655
-0.008197
-0.034411
0.025276
0.039554
0.033154
-0.035032
-0.008306
0.017159
0.016030
-0.033307
0.008759
0.005415
0.009110
0.001181
-0.007430
-0.012742
0.039745
-0.001525
0.026387
0.022568
-0.015759
0.040017
-0.000646
0.034936
0.028465
-0.032022
-0.024703
-0.029674
0.005649
0.002562
0.013998
-0.036791
-0.011903
0.035590
-0.031912
0.004049
-0.006475
0.010568
0.002349
0.025338
-0.001286
0.019352
0.007332
0.012635
0.040460
0.023589
0.003082
0.028432
0.037925
-0.000901
-0.034464
-0.004527
0.018707
0.013128
0.000722
-0.006751
0.026035
0.011727
-0.008208
-0.007338
0.002365
0.023124
-0.008583
0.027319
-0.018406
0.021819
-0.002158
0.022328
-0.013851
0.009103
0.015635
0.016787
0.023118
0.012302
0.025077
0.039636
0.003520
0.002382
0.002796
-0.000799
0.000754
-0.000254
-0.035463
0.039837
0.039553
0.000033
0.004418
0.005537
-0.016291
0.017876
-0.022301
0.007677
-0.000993
0.023638
0.039476
-0.035440
0.001894
-0.006871
-0.032899
0.034517
0.009979
0.011319
0.040097
-0.004698
-0.033132
0.027054
-0.034034
-0.034739
-0.034732
0.016350
-0.036393
0.026904
0.014593
0.010483
0.000626
0.026168
-0.014964
-0.007247
0.018139
-0.005757
-0.003000
-0.021323
0.030797
-0.031208
0.032806
-0.001425
-0.034162
0.034598
0.015433
0.035808
0.002626
-0.034328
-0.006742
0.010611
0.039142
-0.008406
0.039400
0.001413
0.021657
0.039509
0.003050
0.003341
-0.034976
0.009443
0.000456
-0.035255
0.017300
-0.002102
0.001625
0.014804
0.024412
0.021194
0.021236
-0.034749
0.018031
-0.011580
0.009619
0.004661
0.002236
0.032317
0.039057
0.009150
-0.024090
-0.005349
0.004108
-0.009653
-0.004498
0.036312
0.022105
-0.000652
0.006930
0.028910
0.025506
0.016942
0.005620
0.013483
-0.006486
-0.006603
-0.017134
0.037123
0.012184
0.016204
-0.002733
-0.007942
-0.007874
0.025606
-0.002374
-0.013867
-0.010682
0.026955
0.004396
0.022191
-0.033910
-0.033458
-0.005530
0.013673
0.021680
-0.033971
-0.033478
0.020266
0.025274
-0.011697
0.000146
-0.012846
-0.006712
-0.000683
0.011097
0.038761
0.016969
0.003672
0.012589
-0.006477
0.027714
0.003244
0.020160
0.018515
0.027182
0.004057
0.001156
0.039114
-0.001055
0.005034
-0.000167
0.006410
0.039631
0.038546
0.017757
-0.000930
0.034182
0.039781
-0.035211
0.039663
0.001559
0.014638
-0.035804
-0.018913
0.007860
0.013428
0.015368
0.008173
0.039338
0.017621
0.035338
0.005427
-0.034478
0.000235
-0.033977
-0.007579
-0.032369
0.022439
-0.020474
-0.028380
-0.031224
0.023731
0.015116
0.023857
0.001902
0.025162
0.021122
-0.006600
0.018818
-0.020146
0.028649
0.033166
0.026949
0.015843
-0.033473
0.003313
0.038716
0.033985
0.011072
0.036659
-0.009604
-0.003888
-0.016451
-0.000502
0.010240
-0.005747
0.003569
0.037923
-0.015921
-0.006653
-0.003296
0.000503
0.026436
-0.033987
-0.000626
-0.028059
-0.034470
0.019460
0.015504
0.018088
0.004224
0.013829
0.039123
0.018740
0.019665
0.021036
0.000304
-0.006744
0.035194
-0.008559
-0.022358
0.039018
-0.006834
-0.002323
-0.005910
0.022869
0.005884
0.007325
-0.034164
0.009624
0.020482
0.002045
0.007095
-0.031868
0.001801
0.024995
0.026440
0.021079
-0.006135
-0.005839
0.034907
-0.007418
0.026028
0.033576
-0.001925
0.009154
0.026714
0.018746
0.031766
0.016885
0.000874
0.024089
0.000198
0.002953
-0.004122
-0.013072
-0.013950
0.039324
0.021081
0.003592
-0.024459
-0.000839
0.020329
-0.011852
0.027620
0.021620
0.013052
0.038034
0.011167
0.001578
0.016250
0.002989
0.018399
0.018055
-0.001054
0.003879
-0.035321
-0.034554
-0.032866
0.000367
0.003626
0.004531
0.014007
0.005793
0.001218
0.038525
-0.001105
0.033116
0.039160
0.018536
0.011446
-0.017542
-0.000754
-0.027329
-0.034825
0.013409
0.018465
-0.030420
0.039249
0.038805
0.039473
0.039014
-0.034775
0.006630
-0.033895
0.006749
0.016194
-0.033539
-0.032792
0.036008
0.022886
-0.016161
0.022450
0.000995
-0.021020
0.026118
0.027300
-0.029675
0.032671
0.009937
0.038004
-0.003598
0.001677
0.003153
-0.033643
0.035431
0.036204
0.019302
0.038537
0.038942
-0.005638
-0.004970
-0.020536
-0.001494
0.030966
0.009417
-0.001737
0.038427
0.001026
0.002660
-0.031304
0.016812
0.019320
-0.034182
-0.008352
-0.007139
-0.000202
0.025652
0.022605
0.018776
0.024719
-0.034341
0.001128
0.004704
0.028746
0.019598
0.016733
-0.033573
0.033478
-0.010338
0.037258
-0.034492
-0.006104
0.012214
0.029270
0.035008
0.005336
0.025589
0.031646
-0.005120
0.038574
-0.005934
0.036831
0.000082
0.038813
0.026377
0.034654
0.008310
0.006595
-0.018647
0.018932
-0.012933
0.003996
-0.011780
-0.010141
0.003067
-0.014713
-0.032745
0.018873
0.020192
-0.013977
-0.005149
0.027474
0.024445
0.038669
0.014642
0.019377
0.014630
0.008522
0.038026
0.020068
0.019264
-0.000980
0.002440
0.007727
0.002711
0.012754
-0.033014
0.009093
0.003712
-0.026106
0.017467
0.034345
0.004169
0.018591
-0.001255
0.000790
0.038551
-0.006145
-0.034979
0.004473
0.019000
0.012407
0.005427
-0.005291
0.038863
-0.001019
-0.010976
-0.029505
-0.000392
-0.007238
0.003515
0.017336
-0.034048
0.019122
-0.033468
-0.034298
0.039199
0.038713
0.019903
-0.027297
0.001611
0.000690
0.017919
0.013268
0.018894
-0.006972
0.031562
0.020411
-0.033322
-0.013699
0.024171
0.001233
-0.019774
0.024813
-0.004419
-0.032644
0.031697
0.000073
0.033396
-0.033567
0.015068
0.027893
0.034179
0.037845
0.004612
0.014129
-0.009054
-0.030602
0.035649
-0.007227
0.018354
0.025691
0.011778
-0.032664