# vtk DataFile Version 2.0
Test
ASCII
DATASET POLYDATA
POINTS 4677 float
0.000000 0.000000 0.000000
0.080000 0.000000 0.000000
0.080000 0.160000 0.000000
0.000000 0.160000 0.000000
0.036000 0.073072 0.000000
0.044000 0.086928 0.000000
0.024500 0.065566 0.000000
0.055500 0.093560 0.000000
0.001000 0.050000 0.000000
0.079000 0.110000 0.000000
0.002963 0.000000 0.000000
0.005926 0.000000 0.000000
0.008889 0.000000 0.000000
0.011852 0.000000 0.000000
0.014815 0.000000 0.000000
0.017778 0.000000 0.000000
0.020741 0.000000 0.000000
0.023704 0.000000 0.000000
0.026667 0.000000 0.000000
0.029630 0.000000 0.000000
0.032593 0.000000 0.000000
0.035556 0.000000 0.000000
0.038519 0.000000 0.000000
0.041481 0.000000 0.000000
0.044444 0.000000 0.000000
0.047407 0.000000 0.000000
0.050370 0.000000 0.000000
0.053333 0.000000 0.000000
0.056296 0.000000 0.000000
0.059259 0.000000 0.000000
0.062222 0.000000 0.000000
0.065185 0.000000 0.000000
0.068148 0.000000 0.000000
0.071111 0.000000 0.000000
0.074074 0.000000 0.000000
0.077037 0.000000 0.000000
0.080000 0.002963 0.000000
0.080000 0.005926 0.000000
0.080000 0.008889 0.000000
0.080000 0.011852 0.000000
0.080000 0.014815 0.000000
0.080000 0.017778 0.000000
0.080000 0.020741 0.000000
0.080000 0.023704 0.000000
0.080000 0.026667 0.000000
0.080000 0.029630 0.000000
0.080000 0.032593 0.000000
0.080000 0.035556 0.000000
0.080000 0.038519 0.000000
0.080000 0.041481 0.000000
0.080000 0.044444 0.000000
0.080000 0.047407 0.000000
0.080000 0.050370 0.000000
0.080000 0.053333 0.000000
0.080000 0.056296 0.000000
0.080000 0.059259 0.000000
0.080000 0.062222 0.000000
0.080000 0.065185 0.000000
0.080000 0.068148 0.000000
0.080000 0.071111 0.000000
0.080000 0.074074 0.000000
0.080000 0.077037 0.000000
0.080000 0.080000 0.000000
0.080000 0.082963 0.000000
0.080000 0.085926 0.000000
0.080000 0.088889 0.000000
0.080000 0.091852 0.000000
0.080000 0.094815 0.000000
0.080000 0.097778 0.000000
0.080000 0.100741 0.000000
0.080000 0.103704 0.000000
0.080000 0.106667 0.000000
0.080000 0.109630 0.000000
0.080000 0.112593 0.000000
0.080000 0.115556 0.000000
0.080000 0.118519 0.000000
0.080000 0.121481 0.000000
0.080000 0.124444 0.000000
0.080000 0.127407 0.000000
0.080000 0.130370 0.000000
0.080000 0.133333 0.000000
0.080000 0.136296 0.000000
0.080000 0.139259 0.000000
0.080000 0.142222 0.000000
0.080000 0.145185 0.000000
0.080000 0.148148 0.000000
0.080000 0.151111 0.000000
0.080000 0.154074 0.000000
0.080000 0.157037 0.000000
0.077037 0.160000 0.000000
0.074074 0.160000 0.000000
0.071111 0.160000 0.000000
0.068148 0.160000 0.000000
0.065185 0.160000 0.000000
0.062222 0.160000 0.000000
0.059259 0.160000 0.000000
0.056296 0.160000 0.000000
0.053333 0.160000 0.000000
0.050370 0.160000 0.000000
0.047407 0.160000 0.000000
0.044444 0.160000 0.000000
0.041481 0.160000 0.000000
0.038519 0.160000 0.000000
0.035556 0.160000 0.000000
0.032593 0.160000 0.000000
0.029630 0.160000 0.000000
0.026667 0.160000 0.000000
0.023704 0.160000 0.000000
0.020741 0.160000 0.000000
0.017778 0.160000 0.000000
0.014815 0.160000 0.000000
0.011852 0.160000 0.000000
0.008889 0.160000 0.000000
0.005926 0.160000 0.000000
0.002963 0.160000 0.000000
0.000000 0.157037 0.000000
0.000000 0.154074 0.000000
0.000000 0.151111 0.000000
0.000000 0.148148 0.000000
0.000000 0.145185 0.000000
0.000000 0.142222 0.000000
0.000000 0.139259 0.000000
0.000000 0.136296 0.000000
0.000000 0.133333 0.000000
0.000000 0.130370 0.000000
0.000000 0.127407 0.000000
0.000000 0.124444 0.000000
0.000000 0.121481 0.000000
0.000000 0.118519 0.000000
0.000000 0.115556 0.000000
0.000000 0.112593 0.000000
0.000000 0.109630 0.000000
0.000000 0.106667 0.000000
0.000000 0.103704 0.000000
0.000000 0.100741 0.000000
0.000000 0.097778 0.000000
0.000000 0.094815 0.000000
0.000000 0.091852 0.000000
0.000000 0.088889 0.000000
0.000000 0.085926 0.000000
0.000000 0.082963 0.000000
0.000000 0.080000 0.000000
0.000000 0.077037 0.000000
0.000000 0.074074 0.000000
0.000000 0.071111 0.000000
0.000000 0.068148 0.000000
0.000000 0.065185 0.000000
0.000000 0.062222 0.000000
0.000000 0.059259 0.000000
0.000000 0.056296 0.000000
0.000000 0.053333 0.000000
0.000000 0.050370 0.000000
0.000000 0.047407 0.000000
0.000000 0.044444 0.000000
0.000000 0.041481 0.000000
0.000000 0.038519 0.000000
0.000000 0.035556 0.000000
0.000000 0.032593 0.000000
0.000000 0.029630 0.000000
0.000000 0.026667 0.000000
0.000000 0.023704 0.000000
0.000000 0.020741 0.000000
0.000000 0.017778 0.000000
0.000000 0.014815 0.000000
0.000000 0.011852 0.000000
0.000000 0.008889 0.000000
0.000000 0.005926 0.000000
0.000000 0.002963 0.000000
0.035500 0.072746 0.000000
0.035000 0.072419 0.000000
0.034500 0.072093 0.000000
0.034000 0.071767 0.000000
0.033500 0.071440 0.000000
0.033000 0.071114 0.000000
0.032500 0.070788 0.000000
0.032000 0.070461 0.000000
0.031500 0.070135 0.000000
0.031000 0.069809 0.000000
0.030500 0.069482 0.000000
0.030000 0.069156 0.000000
0.029500 0.068829 0.000000
0.029000 0.068503 0.000000
0.028500 0.068177 0.000000
0.028000 0.067850 0.000000
0.027500 0.067524 0.000000
0.027000 0.067198 0.000000
0.026500 0.066871 0.000000
0.026000 0.066545 0.000000
0.025500 0.066219 0.000000
0.025000 0.065892 0.000000
0.044500 0.087216 0.000000
0.045000 0.087505 0.000000
0.045500 0.087793 0.000000
0.046000 0.088081 0.000000
0.046500 0.088370 0.000000
0.047000 0.088658 0.000000
0.047500 0.088946 0.000000
0.048000 0.089235 0.000000
0.048500 0.089523 0.000000
0.049000 0.089811 0.000000
0.049500 0.090100 0.000000
0.050000 0.090388 0.000000
0.050500 0.090677 0.000000
0.051000 0.090965 0.000000
0.051500 0.091253 0.000000
0.052000 0.091542 0.000000
0.052500 0.091830 0.000000
0.053000 0.092118 0.000000
0.053500 0.092407 0.000000
0.054000 0.092695 0.000000
0.054500 0.092983 0.000000
0.055000 0.093272 0.000000
0.043704 0.086415 0.000000
0.043407 0.085902 0.000000
0.043111 0.085388 0.000000
0.042815 0.084875 0.000000
0.042519 0.084362 0.000000
0.042222 0.083849 0.000000
0.041926 0.083336 0.000000
0.041630 0.082823 0.000000
0.041333 0.082309 0.000000
0.041037 0.081796 0.000000
0.040741 0.081283 0.000000
0.040444 0.080770 0.000000
0.040148 0.080257 0.000000
0.039852 0.079743 0.000000
0.039556 0.079230 0.000000
0.039259 0.078717 0.000000
0.038963 0.078204 0.000000
0.038667 0.077691 0.000000
0.038370 0.077177 0.000000
0.038074 0.076664 0.000000
0.037778 0.076151 0.000000
0.037481 0.075638 0.000000
0.037185 0.075125 0.000000
0.036889 0.074612 0.000000
0.036593 0.074098 0.000000
0.036296 0.073585 0.000000
0.024000 0.065235 0.000000
0.023500 0.064904 0.000000
0.023000 0.064572 0.000000
0.022500 0.064241 0.000000
0.022000 0.063910 0.000000
0.021500 0.063579 0.000000
0.021000 0.063248 0.000000
0.020500 0.062916 0.000000
0.020000 0.062585 0.000000
0.019500 0.062254 0.000000
0.019000 0.061923 0.000000
0.018500 0.061592 0.000000
0.018000 0.061261 0.000000
0.017500 0.060929 0.000000
0.017000 0.060598 0.000000
0.016500 0.060267 0.000000
0.016000 0.059936 0.000000
0.015500 0.059605 0.000000
0.015000 0.059273 0.000000
0.014500 0.058942 0.000000
0.014000 0.058611 0.000000
0.013500 0.058280 0.000000
0.013000 0.057949 0.000000
0.012500 0.057617 0.000000
0.012000 0.057286 0.000000
0.011500 0.056955 0.000000
0.011000 0.056624 0.000000
0.010500 0.056293 0.000000
0.010000 0.055961 0.000000
0.009500 0.055630 0.000000
0.009000 0.055299 0.000000
0.008500 0.054968 0.000000
0.008000 0.054637 0.000000
0.007500 0.054305 0.000000
0.007000 0.053974 0.000000
0.006500 0.053643 0.000000
0.006000 0.053312 0.000000
0.005500 0.052981 0.000000
0.005000 0.052650 0.000000
0.004500 0.052318 0.000000
0.004000 0.051987 0.000000
0.003500 0.051656 0.000000
0.003000 0.051325 0.000000
0.002500 0.050994 0.000000
0.002000 0.050662 0.000000
0.001500 0.050331 0.000000
0.055990 0.093902 0.000000
0.056479 0.094245 0.000000
0.056969 0.094587 0.000000
0.057458 0.094930 0.000000
0.057948 0.095272 0.000000
0.058437 0.095615 0.000000
0.058927 0.095957 0.000000
0.059417 0.096300 0.000000
0.059906 0.096642 0.000000
0.060396 0.096985 0.000000
0.060885 0.097327 0.000000
0.061375 0.097670 0.000000
0.061865 0.098012 0.000000
0.062354 0.098355 0.000000
0.062844 0.098697 0.000000
0.063333 0.099040 0.000000
0.063823 0.099382 0.000000
0.064312 0.099725 0.000000
0.064802 0.100067 0.000000
0.065292 0.100410 0.000000
0.065781 0.100752 0.000000
0.066271 0.101095 0.000000
0.066760 0.101437 0.000000
0.067250 0.101780 0.000000
0.067740 0.102122 0.000000
0.068229 0.102465 0.000000
0.068719 0.102807 0.000000
0.069208 0.103150 0.000000
0.069698 0.103492 0.000000
0.070187 0.103835 0.000000
0.070677 0.104177 0.000000
0.071167 0.104520 0.000000
0.071656 0.104862 0.000000
0.072146 0.105205 0.000000
0.072635 0.105547 0.000000
0.073125 0.105890 0.000000
0.073615 0.106232 0.000000
0.074104 0.106575 0.000000
0.074594 0.106917 0.000000
0.075083 0.107260 0.000000
0.075573 0.107602 0.000000
0.076062 0.107945 0.000000
0.076552 0.108287 0.000000
0.077042 0.108630 0.000000
0.077531 0.108972 0.000000
0.078021 0.109315 0.000000
0.078510 0.109658 0.000000
0.043942 0.087469 0.000000
0.035556 0.157037 0.000000
0.044420 0.002920 0.000000
0.077037 0.038519 0.000000
0.002963 0.121481 0.000000
0.077037 0.059259 0.000000
0.002963 0.109630 0.000000
0.002923 0.098139 0.000000
0.077153 0.126913 0.000000
0.002808 0.032596 0.000000
0.077140 0.071061 0.000000
0.002963 0.085926 0.000000
0.002963 0.136296 0.000000
0.077041 0.023701 0.000000
0.056296 0.157037 0.000000
0.032593 0.002963 0.000000
0.077037 0.080000 0.000000
0.002813 0.077135 0.000000
0.077037 0.142222 0.000000
0.017778 0.157037 0.000000
0.062222 0.002963 0.000000
0.076992 0.088722 0.000000
0.002945 0.020743 0.000000
0.017777 0.002962 0.000000
0.002801 0.068434 0.000000
0.002959 0.011851 0.000000
0.065186 0.157038 0.000000
0.002963 0.148148 0.000000
0.077037 0.011852 0.000000
0.076887 0.094740 0.000000
0.077092 0.115875 0.000000
0.002677 0.044265 0.000000
0.077038 0.148148 0.000000
0.002985 0.062165 0.000000
0.077037 0.047407 0.000000
0.011852 0.002963 0.000000
[...]
POINT_DATA 4677
SCALARS UX float 1
LOOKUP_TABLE default
-0.000001
0.000002
0.043841
-0.045932
-0.022372
-0.032725
-0.056755
0.020682
-0.068598
0.074532
-0.000000
-0.000000
-0.000000
-0.000000
-0.000000
-0.000000
-0.000000
-0.000000
-0.000000
-0.000000
-0.000000
-0.000000
-0.000000
0.000000
0.000000
0.000000
0.000000
0.000000
0.000000
0.000000
0.000000
0.000000
0.000000
0.000000
0.000000
-0.000000
0.007121
0.011151
0.014126
0.016418
0.018273
0.019982
0.021905
0.023291
0.023782
0.024238
0.024916
0.025555
0.026034
0.026780
0.027540
0.028567
0.030476
0.033761
0.033605
0.034502
0.035089
0.036607
0.038826
0.043070
0.049302
0.051616
0.051460
0.052955
0.055586
0.060246
0.064535
0.068740
0.073614
0.079903
0.083180
0.083053
0.077388
0.066676
0.060250
0.055186
0.051788
0.049624
0.046855
0.044158
0.045264
0.048129
0.043869
0.041379
0.040832
0.040958
0.042255
0.043552
0.043770
0.040837
0.037126
0.033758
0.030686
0.027821
0.024509
0.021205
0.018186
0.015779
0.012393
0.009063
0.006313
0.002951
-0.000190
-0.003284
-0.006441
-0.009672
-0.012976
-0.016351
-0.019796
-0.023312
-0.026905
-0.030572
-0.034316
-0.038158
-0.041999
-0.046072
-0.046359
-0.046810
-0.047424
-0.048200
-0.049139
-0.050249
-0.051530
-0.052941
-0.054546
-0.056212
-0.058137
-0.060171
-0.062400
-0.064853
-0.067542
-0.070422
-0.073368
-0.076282
-0.079349
-0.082155
-0.084572
-0.086314
-0.087590
-0.088578
-0.089656
-0.090477
-0.090793
-0.090711
-0.089739
-0.088524
-0.086947
-0.084708
-0.082029
-0.078529
-0.074541
-0.070208
-0.065931
-0.061869
-0.058236
-0.055041
-0.052301
-0.049463
-0.046586
-0.043947
-0.041827
-0.040487
-0.038471
-0.034420
-0.030423
-0.026643
-0.023310
-0.018501
-0.020951
-0.025110
-0.030164
-0.033532
-0.036243
-0.036937
-0.036621
-0.038131
-0.039977
-0.042469
-0.044915
-0.046810
-0.048263
-0.043120
-0.043261
-0.044628
-0.047226
-0.048429
-0.050125
-0.049228
-0.051819
-0.053876
-0.030086
-0.024942
-0.022759
-0.021787
-0.020877
-0.020885
-0.020437
-0.019547
-0.018994
-0.020630
-0.013367
-0.011479
-0.010319
-0.004303
-0.003316
-0.004058
-0.003832
0.002736
0.006329
0.012917
0.012712
0.014444
-0.032026
-0.032479
-0.032028
-0.031069
-0.030160
-0.028421
-0.027156
-0.026449
-0.025238
-0.025479
-0.025594
-0.025675
-0.025919
-0.026433
-0.026573
-0.026442
-0.026062
-0.025418
-0.024459
-0.023566
-0.022869
-0.022085
-0.021194
-0.020525
-0.020718
-0.020187
-0.056444
-0.057950
-0.059224
-0.060536
-0.061511
-0.063302
-0.063403
-0.063754
-0.064201
-0.064564
-0.064913
-0.065256
-0.065568
-0.065845
-0.066130
-0.066408
-0.066662
-0.066890
-0.067073
-0.067235
-0.067362
-0.067452
-0.067504
-0.067535
-0.067562
-0.067586
-0.067614
-0.067654
-0.067706
-0.067764
-0.067830
-0.067892
-0.067944
-0.068001
-0.068060
-0.068119
-0.068177
-0.068231
-0.068284
-0.068333
-0.068377
-0.068419
-0.068464
-0.068505
-0.068540
-0.068572
0.017541
0.020169
0.021675
0.022796
0.023551
0.024933
0.026820
0.028656
0.029904
0.031136
0.032607
0.034109
0.035708
0.037734
0.040104
0.041499
0.043188
0.044277
0.045219
0.046296
0.047165
0.047990
0.048689
0.050182
0.052007
0.054733
0.056914
0.059752
0.062201
0.064531
0.065192
0.065886
0.068250
0.069504
0.072760
0.072843
0.074227
0.075091
0.075773
0.076476
0.076712
0.076949
0.076650
0.076288
0.075908
0.075600
0.075098
-0.029843
-0.003421
0.000272
0.022940
-0.056250
0.030251
-0.066660
-0.078588
0.041965
-0.046511
0.039707
-0.085488
-0.047506
0.019579
0.017405
-0.000490
0.047863
-0.088137
0.037030
-0.023384
0.001611
0.054901
-0.037269
-0.002177
-0.086123
-0.027620
0.027314
-0.043413
0.014178
0.060063
0.051521
-0.058588
0.037648
-0.082149
0.025395
-0.003390
0.033320
-0.038158
0.003353
-0.078377
0.074838
0.039945
0.002407
0.008359
-0.001002
-0.050492
0.021169
-0.016408
0.001080
0.040633
0.048282
-0.054605
-0.031431
0.045301
-0.051758
-0.077102
-0.087646
0.048509
-0.082976
-0.086465
0.033998
0.044431
0.029075
-0.072910
0.080269
-0.060961
-0.043524
-0.040890
0.023596
-0.009715
0.042516
0.000655
0.000125
-0.052280
0.021770
-0.000050
-0.035077
-0.001380
0.020383
0.011705
-0.045121
0.017568
-0.022644
-0.004439
-0.016030
-0.030654
0.002335
0.038933
-0.007124
-0.008783
-0.042354
0.008637
-0.042074
0.004412
0.071497
-0.031536
-0.066898
-0.071038
0.079889
-0.030910
0.000059
0.019917
0.036744
-0.040865
-0.083359
0.043157
0.011226
-0.046658
0.034645
-0.002362
-0.052701
-0.031398
-0.078241
0.043716
0.074620
0.016741
-0.022733
-0.007569
-0.012987
0.034637
-0.038426
0.006695
0.059970
-0.063067
0.066896
-0.084747
0.057793
-0.087168
-0.069723
0.050707
0.044171
-0.049880
0.077622
-0.087727
0.047889
-0.084176
-0.081061
0.036383
0.031793
-0.076066
-0.069748
0.029805
-0.063703
0.026480
0.039185
0.024613
-0.058518
-0.000463
-0.054213
0.022395
-0.006488
0.000457
0.005642
-0.038611
-0.013017
0.000849
-0.000255
0.039401
-0.048918
0.020442
0.014740
-0.000756
-0.019853
0.001322
-0.031430
-0.001737
0.023875
-0.046219
0.018728
-0.002714
-0.044185
0.016031
0.030320
0.037203
-0.026976
0.001938
0.036430
0.040269
-0.034365
0.002800
-0.042801
0.011806
-0.067389
0.072220
0.073458
-0.074170
-0.067470
-0.027537
-0.033599
0.081567
-0.073962
0.044269
-0.051199
-0.028649
-0.030066
-0.028581
0.028193
-0.079031
-0.066164
0.041969
-0.051371
-0.006699
-0.020049
-0.084561
0.001575
0.017292
0.052733
-0.042266
-0.027174
0.060682
0.013763
-0.040245
0.003804
0.069350
-0.065901
0.039176
0.026097
-0.059966
0.023087
-0.054776
0.005211
-0.045062
0.023288
-0.003867
-0.006039
-0.038868
0.029486
0.035631
-0.065653
0.067880
-0.059411
0.053025
0.044344
-0.081913
0.040641
-0.085105
-0.072028
0.049131
0.044975
-0.072579
0.079229
-0.046283
-0.048303
-0.055743
0.034107
0.035503
-0.081388
0.019462
-0.000690
-0.000288
-0.038347
0.021555
0.020667
0.000793
0.000423
-0.082296
0.034917
0.007940
-0.013213
0.013979
-0.050513
-0.048603
0.034145
0.034127
0.033990
-0.000691
-0.035371
-0.001661
0.019926
-0.027556
-0.003040
0.016056
0.002540
-0.033119
-0.018501
-0.009730
0.036296
-0.034583
0.005440
0.009629
-0.043237
-0.033549
-0.029407
0.072233
-0.066754
-0.069482
0.071170
-0.067021
0.077715
-0.033486
-0.024567
-0.031140
-0.026790
-0.029890
-0.000651
0.017706
0.032294
-0.078402
0.004541
-0.046676
-0.039726
0.030476
0.041431
-0.002886
0.013683
-0.031474
-0.026893
-0.009563
-0.064842
0.066910
0.035753
-0.026154
-0.084782
0.019006
0.000397
0.029247
-0.004979
0.019556
0.031163
-0.042829
-0.035019
0.007878
-0.030178
-0.083677
0.053704
-0.043797
-0.080438
-0.069213
-0.085159
-0.079959
-0.076791
0.018251
0.030456
0.047003
0.027023
-0.062819
0.024456
0.039297
-0.057115
0.036868
0.049656
-0.079639
0.002126
-0.001110
-0.009778
-0.043511
0.022286
0.001163
-0.016523
-0.034573
0.007620
0.016649
-0.052553
0.002036
-0.023547
0.033868
0.016628
-0.023250
-0.014699
0.015143
0.031725
0.026449
-0.004848
-0.041177
0.003114
-0.003676
-0.030812
-0.039476
0.032682
0.011964
0.004562
-0.049131
0.039826
-0.054330
-0.034684
-0.070498
-0.032453
-0.027411
0.078886
-0.061854
0.058717
-0.033170
-0.023550
0.074622
-0.069408
-0.064011
0.078309
0.064124
-0.022178
-0.023815
-0.024965
-0.067420
-0.057214
-0.030993
-0.020048
0.024371
-0.069018
-0.075645
-0.039870
0.038645
0.003945
-0.082575
-0.052161
-0.013290
0.048130
-0.038402
0.002179
0.014621
-0.030915
-0.078984
-0.023961
-0.059388
0.004484
0.012830
0.021132
-0.001109
0.055413
-0.001179
-0.053231
-0.048857
0.030731
-0.022426
-0.007786
0.009927
-0.031255
0.032618
-0.060011
0.045193
0.032267
-0.082344
-0.076004
-0.080685
-0.077142
-0.001845
0.028814
0.016087
-0.065920
0.018447
0.002063
-0.000159
-0.046221
0.037239
0.029454
-0.082834
0.045260
0.040073
0.010917
0.020229
0.030423
-0.037599
-0.041176
-0.016967
-0.003862
0.016975
-0.029266
0.016508
-0.006238
0.030779
0.002864
-0.006999
0.022737
0.028504
-0.044657
0.014135
-0.018887
0.031531
-0.011851
0.000961
-0.037328
-0.035620
0.005441
0.006544
-0.048955
-0.028289
-0.028608
-0.019661
-0.065792
-0.067259
0.070598
0.075207
-0.034834
-0.069295
-0.034460
0.076687
-0.082872
-0.025635
0.049738
0.042844
0.033970
0.036174
-0.055544
-0.062611
-0.030094
-0.020299
0.061130
-0.031841
-0.021581
0.014836
0.025888
-0.045675
-0.000485
0.036563
-0.049985
0.026993
0.042058
0.041711
0.012886
-0.039055
-0.014147
-0.004236
-0.058487
0.026901
0.002635
0.012527
0.058396
0.018927
-0.034594
-0.031851
-0.022412
-0.033368
0.013570
0.033622
0.029217
-0.008733
0.005616
-0.025263
-0.015783
0.008240
-0.026979
0.048225
-0.074239
0.022932
-0.025818
-0.036832
-0.002056
-0.072340
0.019242
0.025839
0.000813
0.035770
-0.062128
-0.020378
-0.056222
0.000290
-0.050743
0.025723
0.009603
-0.081890
0.045323
0.031572
-0.081408
0.031544
0.001527
0.039646
-0.076854
-0.028111
-0.046320
-0.043025
0.013824
-0.019404
-0.004051
0.028189
-0.020396
0.013631
-0.005508
0.025629
0.003616
-0.039653
0.007206
-0.010680
0.027393
-0.010089
0.011582
-0.036383
-0.027566
0.015229
0.075373
-0.067435
-0.029223
-0.079960
-0.061272
-0.026670
-0.016942
-0.034147
-0.032964
-0.035405
-0.033253
-0.053651
-0.027408
-0.023591
-0.022223
-0.072944
-0.082287
-0.081725
-0.069175
0.028749
0.023546
0.072796
0.046531
0.041407
-0.063800
-0.068993
0.075602
-0.017239
0.064891
-0.066501
-0.043100
0.077606
0.075938
-0.020674
-0.030036
-0.016770
-0.059723
-0.072659
0.035602
0.001271
-0.041717
-0.080126
-0.000722
-0.036535
0.010961
-0.051559
0.045258
-0.005588
0.038775
-0.028207
0.023449
0.009634
-0.060014
-0.077409
-0.020952
0.063164
0.021729
0.029903
0.017273
-0.004521
-0.022279
0.023564
-0.053067
-0.021187
-0.010777
0.001778
-0.011138
0.025131
0.011360
-0.080299
0.004530
-0.035890
0.009629
-0.032630
-0.035100
-0.024277
-0.068666
-0.080155
-0.078049
-0.043409
0.020209
0.023368
-0.070608
-0.046647
0.013109
0.038240
-0.001290
-0.081222
0.027768
-0.048277
0.001009
-0.003087
-0.069334
-0.040876
0.034300
0.025946
0.070551
0.006564
-0.007009
-0.016266
0.022134
0.028633
0.015853
0.015913
0.003512
-0.037434
0.011761
0.027869
0.014227
-0.033577
0.073688
-0.001906
-0.017482
0.006835
-0.012973
0.076032
-0.028170
-0.066970
0.045003
0.073374
0.052890
-0.030715
-0.021236
-0.062352
-0.065853
0.029189
-0.056842
-0.027803
0.043230
-0.014267
-0.025795
-0.035379
-0.015994
-0.031945
-0.034808
-0.071214
-0.025683
0.074391
-0.023753
-0.019131
0.076912
-0.070594
-0.040068
-0.067213
0.074080
-0.012945
-0.067143
0.032283
-0.035664
-0.014098
-0.030848
0.028617
-0.011847
0.018783
0.025607
-0.069460
-0.043819
0.032830
-0.054524
0.001911
0.008204
-0.011478
-0.035435
0.009821
-0.010367
-0.018917
0.004034
-0.061782
-0.065897
-0.066758
-0.029563
0.010230
-0.037014
-0.044197
0.015285
0.013266
0.026912
-0.009038
0.021855
0.022981
-0.029874
-0.018167
-0.036138
-0.068794
-0.062598
-0.026083
-0.055275
-0.033776
-0.002132
-0.004276
0.077735
0.018621
-0.079293
-0.079380
0.036148
-0.023231
-0.071618
-0.002064
-0.017328
-0.047510
0.022643
-0.078125
-0.007400
0.016263
-0.025215
-0.079167
0.022809
-0.007136
-0.039276
0.024193
-0.064069
-0.077154
-0.074094
0.042928
0.040591
-0.013551
-0.080000
0.003515
-0.018926
-0.033752
0.012425
0.012097
0.011259
-0.028916
0.024736
0.007979
0.010763
0.069323
-0.024502
-0.032263
0.005204
-0.050341
0.027591
0.046919
0.000061
-0.028579
0.056098
0.049189
-0.022654
-0.066100
0.039592
0.025302
0.072773
-0.069116
-0.008037
-0.029694
-0.035026
-0.035973
-0.079551
-0.021064
-0.033898
-0.058891
-0.021746
0.074741
0.050653
-0.070345
-0.026953
0.021506
0.031597
-0.057309
-0.008940
-0.001499
0.073090
-0.010054
0.072707
-0.018841
-0.066881
0.028095
-0.040670
0.010269
-0.005353
-0.044482
-0.071168
-0.001846
-0.078079
0.008774
0.035152
-0.076998
0.045073
0.020379
-0.008902
-0.031847
-0.025102
-0.059589
-0.000104
-0.075845
-0.060660
0.068866
-0.065680
0.020132
-0.049337
-0.077470
0.004326
-0.015101
-0.008609
-0.067976
0.021364
-0.075503
0.009464
-0.026234
0.016730
-0.036626
-0.075980
0.059596
0.041209
-0.063586
-0.026870
0.010052
-0.040599
-0.052226
0.025302
0.010610
-0.046669
0.013997
0.034933
-0.005502
-0.077973
-0.021233
-0.013604
0.024433
-0.003141
0.029648
-0.038065
0.020494
0.000899
0.008945
0.018649
-0.018383
0.002922
-0.021601
-0.056179
0.005860
0.006495
-0.014697
-0.070494
-0.016059
0.011560
-0.033552
0.046133
-0.063946
-0.066509
-0.005502
-0.030204
-0.025312
-0.030951
0.025845
-0.049303
-0.037290
0.042200
0.018535
-0.069764
0.049891
0.026597
-0.012969
-0.029428
-0.035544
-0.025232
-0.020270
-0.036217
-0.023288
0.051380
-0.021566
0.053825
-0.033176
0.073028
0.072703
-0.005836
-0.032823
0.075687
-0.001069
-0.076494
-0.028571
-0.019418
-0.064952
-0.073875
-0.065055
0.077399
-0.008546
-0.052105
-0.027648
-0.068857
-0.078807
-0.032638
0.036720
-0.014305
-0.066976
-0.016547
-0.057506
0.065568
0.073190
-0.030307
-0.036331
-0.010081
-0.006651
0.017712
-0.056443
-0.068331
0.027712
-0.002856
-0.036966
0.048424
0.047050
-0.059395
0.005332
-0.075398
-0.008969
-0.028396
-0.015553
0.011049
0.022021
-0.074357
-0.021342
0.012881
-0.049362
-0.026445
0.014506
-0.027393
-0.042842
0.008014
-0.009230
-0.065568
-0.015768
0.000809
0.007833
-0.022699
-0.027302
0.003113
-0.033713
0.073392
0.014997
-0.004192
-0.031116
0.070095
0.023876
0.018300
0.032174
0.016265
0.043048
0.038059
0.008190
-0.062725
0.003253
0.021352
-0.077307
-0.074976
-0.011494
-0.046091
-0.077327
0.072123
-0.067262
-0.075932
-0.072878
-0.000206
0.020628
-0.076714
0.005633
0.020093
-0.066959
-0.028729
-0.077301
0.051548
-0.063275
0.001057
-0.002659
-0.035843
0.009519
0.008851
0.007760
-0.066706
-0.007018
-0.041215
-0.034309
0.025895
0.007194
0.024563
-0.020651
-0.022244
0.042760
-0.053760
0.039292
-0.070324
-0.069734
-0.032160
-0.036518
0.022478
-0.026133
-0.024073
-0.034734
-0.002823
0.062382
0.054170
-0.020875
-0.064417
0.056983
-0.037217
-0.074221
-0.009387
-0.062325
-0.031783
0.070465
-0.006749
0.032466
-0.028247
-0.055428
-0.007212
-0.065738
0.076096
0.070167
-0.027135
-0.016670
-0.049751
-0.075939
-0.015493
0.073652
-0.037559
-0.045908
0.025089
-0.031081
-0.038154
0.000427
-0.005861
-0.065628
-0.046452
-0.075621
0.004770
0.044814
0.006731
0.035462
-0.057858
0.041576
0.017838
-0.019275
-0.062052
-0.006859
0.070892
-0.001741
-0.045079
-0.035824
-0.075839
-0.003212
-0.065132
-0.072847
-0.039259
-0.027914
0.003074
-0.000575
0.006249
-0.023241
-0.071717
-0.061407
-0.010859
0.012148
0.017356
-0.053651
0.071017
-0.012257
-0.075197
-0.075441
0.066952
-0.061705
0.019357
0.029407
-0.042071
-0.074299
-0.005238
0.017881
-0.018151
-0.034725
-0.070231
0.039027
0.035055
-0.001744
0.007957
-0.023742
0.007782
0.059927
0.022301
-0.018919
-0.030364
0.048616
0.001921
0.010486
-0.012282
0.051512
0.013823
0.009080
-0.031210
-0.008529
0.006709
0.023910
-0.026222
0.002431
0.015886
-0.034721
0.022894
-0.064045
-0.037392
-0.060025
-0.004045
-0.076021
-0.030846
-0.026590
0.001327
-0.025262
-0.022323
-0.033838
-0.065919
-0.069112
-0.037559
0.072461
-0.051447
-0.028986
-0.018550
-0.053442
-0.035019
-0.004380
0.028467
0.070120
0.015458
-0.029355
-0.066397
-0.015994
0.055306
0.025647
0.018188
0.070074
-0.011479
-0.004044
-0.023673
0.068335
-0.013654
-0.063699
-0.015700
-0.042198
0.019458
-0.073747
-0.073686
0.044752
-0.026679
-0.016303
-0.035277
0.016234
-0.001193
0.000224
0.025320
-0.038545
-0.059679
0.027599
0.021538
0.041023
-0.056083
-0.002276
-0.027115
0.004817
0.050492
0.016877
-0.015491
0.046262
-0.008235
-0.020538
-0.056679
-0.072356
0.012126
0.068004
0.033403
-0.072772
-0.067611
0.006035
0.002470
-0.065431
-0.012498
-0.020260
0.006898
0.001810
-0.060020
-0.028597
0.066272
-0.033714
0.013813
0.014601
-0.072914
0.062624
-0.034993
0.039855
0.034138
-0.075760
-0.075221
-0.060127
0.006485
-0.028559
-0.000870
-0.073837
-0.071858
0.043122
-0.063260
0.006333
-0.061839
-0.008737
0.004435
0.031235
-0.003612
0.008400
-0.023059
-0.009992
0.067199
0.017496
-0.025208
0.024554
0.048574
-0.032531
-0.075565
-0.010314
0.007541
0.007242
0.000597
-0.064070
0.014652
-0.005940
-0.053600
-0.047405
-0.025064
0.020389
-0.018604
0.019256
-0.043582
0.023212
-0.005362
0.013098
-0.032167
-0.020116
-0.006386
0.004321
0.021861
-0.015810
0.013245
0.057261
-0.026898
-0.029417
-0.028951
-0.038434
-0.034339
-0.037453
-0.070425
0.066769
0.064362
-0.033040
-0.025759
-0.024072
-0.038671
-0.000979
-0.051372
-0.020346
-0.037396
0.015297
0.068740
-0.072260
-0.029765
-0.015010
-0.064767
0.037920
-0.017699
-0.016448
0.070598
-0.041510
-0.075501
0.015703
-0.066880
-0.075044
-0.068639
-0.004970
-0.072058
0.017416
-0.009341
-0.016290
-0.032424
0.014207
-0.035827
-0.065000
-0.000131
-0.058050
-0.037841
-0.048169
0.036134
-0.073690
0.033008
-0.004117
-0.073818
0.040538
0.002012
0.044388
-0.023834
-0.073780
-0.053683
-0.006830
0.062672
-0.018204
0.059871
0.001518
0.017833
0.063110
0.004702
-0.023236
-0.071735
-0.019976
-0.029244
-0.071299
-0.003435
-0.005191
-0.031535
-0.008086
0.011402
0.008731
0.012282
-0.069324
0.007783
-0.070296
-0.018164
0.006054
-0.029378
0.031426
0.057482
-0.010754
-0.054074
-0.012176
-0.022160
-0.069366
-0.010271
0.044699
0.027567
-0.031525
-0.016415
0.026316
0.012837
0.005131
0.004993
0.005734
-0.062680
-0.063240
-0.040576
0.048696
-0.003709
-0.007403
-0.006606
-0.050467
-0.058693
0.012829
-0.035794
-0.032603
-0.022679
0.019943
0.004779
0.015516
-0.066839
-0.065757
-0.043322
-0.012043
0.021286
-0.073734
-0.073865
0.022216
0.011614
-0.025659
-0.001032
-0.028915
-0.058080
-0.038774
-0.017182
0.054030
-0.001978
-0.028203
-0.013881
-0.014229
0.023003
-0.027225
0.009970
0.002760
0.018038
-0.026016
-0.033161
0.066630
-0.038924
-0.024774
-0.034353
-0.022661
0.061990
0.053661
0.005021
-0.036989
0.038579
0.066080
-0.070120
0.065081
-0.030792
0.000395
-0.071713
-0.044219
-0.022251
-0.012428
-0.009707
-0.019156
0.063980
0.003676
0.039531
0.006748
-0.071598
-0.036752
-0.066836
-0.016415
-0.063878
0.015137
-0.073104
-0.058590
-0.062174
0.029982
-0.009027
0.008828
-0.030488
0.010890
0.026388
-0.062773
0.002750
-0.046013
0.024409
0.039406
0.020340
0.004076
-0.072211
0.003187
0.056352
0.039281
-0.004962
0.047787
-0.020714
-0.039374
-0.070929
-0.038689
-0.019279
-0.055714
0.004552
0.052923
-0.038023
-0.046687
-0.007692
-0.034957
0.016724
-0.070745
-0.032687
-0.073244
-0.070763
0.022180
-0.006021
0.001713
0.004645
-0.000395
0.060174
0.007122
0.009621
0.013044
-0.033865
-0.055837
0.042974
-0.067235
-0.051337
0.063862
-0.050520
-0.005618
-0.013280
0.010325
-0.018029
-0.014718
-0.073662
-0.008547
0.015472
0.002903
-0.021340
-0.063095
-0.026161
0.011228
0.015050
0.012300
-0.061623
-0.059344
0.041894
-0.015973
0.031725
0.035724
-0.035568
0.005346
0.019209
-0.001409
0.030718
0.006022
0.000199
0.009524
-0.030538
0.003013
-0.009671
-0.030198
-0.033034
0.067064
0.014677
-0.021785
-0.072936
-0.002905
0.020561
-0.026050
0.022502
0.019493
-0.013888
0.051289
-0.015898
-0.031872
-0.003373
-0.027676
0.007529
0.001462
-0.039687
-0.026155
-0.071273
-0.068920
-0.073910
-0.035709
-0.028610
-0.025140
-0.008117
-0.023670
-0.032269
0.055910
-0.038723
0.033655
0.065505
0.004531
-0.017022
-0.041304
-0.036363
-0.057159
-0.074622
-0.001390
0.009111
-0.061039
0.065402
0.063076
0.065535
0.064241
-0.070513
0.008239
-0.067043
-0.024485
-0.007150
-0.065989
-0.064563
0.045514
0.007061
-0.038809
0.027863
-0.029643
-0.049135
0.017956
0.021335
-0.071463
0.033322
-0.006467
0.053054
-0.008494
0.001365
-0.023144
-0.072368
0.043843
0.046464
0.012914
0.057689
0.062134
-0.050651
-0.042514
-0.070470
-0.035245
0.028952
0.003709
-0.004901
0.060157
-0.000272
0.002964
-0.062242
-0.001399
0.007185
-0.073011
-0.017949
-0.015664
-0.037727
0.013841
0.008104
0.005804
0.009497
-0.069778
-0.027936
-0.019827
0.034120
0.012130
0.005808
-0.072245
0.036726
-0.067655
0.050390
-0.069383
-0.061080
-0.016643
0.025544
0.042772
0.003499
0.012292
0.030628
-0.054743
0.060307
-0.060305
0.048093
-0.001657
0.061042
0.017334
0.041736
-0.011744
-0.022511
-0.043223
0.001301
-0.030556
-0.020625
-0.026827
-0.022367
0.003031
-0.036009
-0.064507
0.019266
0.018759
-0.033922
-0.011582
0.021397
0.010076
0.059284
0.001611
0.005073
-0.010455
-0.021395
0.054536
0.024329
0.005741
-0.040081
-0.030746
-0.023236
-0.028329
-0.013704
-0.072192
-0.018581
-0.026207
-0.055864
0.000749
0.040751
0.004828
0.002227
-0.040129
-0.033958
0.060366
-0.055509
-0.070307
-0.025325
0.007728
-0.002503
-0.024111
-0.046215
0.063728
-0.038526
-0.023867
-0.059815
-0.035879
-0.063682