# vtk DataFile Version 2.0
Test
ASCII
DATASET POLYDATA
POINTS 4677 float
0.000000 0.000000 0.000000
0.080000 0.000000 0.000000
0.080000 0.160000 0.000000
0.000000 0.160000 0.000000
0.036000 0.073072 0.000000
0.044000 0.086928 0.000000
0.024500 0.065566 0.000000
0.055500 0.093560 0.000000
0.001000 0.050000 0.000000
0.079000 0.110000 0.000000
0.002963 0.000000 0.000000
0.005926 0.000000 0.000000
0.008889 0.000000 0.000000
0.011852 0.000000 0.000000
0.014815 0.000000 0.000000
0.017778 0.000000 0.000000
0.020741 0.000000 0.000000
0.023704 0.000000 0.000000
0.026667 0.000000 0.000000
0.029630 0.000000 0.000000
0.032593 0.000000 0.000000
0.035556 0.000000 0.000000
0.038519 0.000000 0.000000
0.041481 0.000000 0.000000
0.044444 0.000000 0.000000
0.047407 0.000000 0.000000
0.050370 0.000000 0.000000
0.053333 0.000000 0.000000
0.056296 0.000000 0.000000
0.059259 0.000000 0.000000
0.062222 0.000000 0.000000
0.065185 0.000000 0.000000
0.068148 0.000000 0.000000
0.071111 0.000000 0.000000
0.074074 0.000000 0.000000
0.077037 0.000000 0.000000
0.080000 0.002963 0.000000
0.080000 0.005926 0.000000
0.080000 0.008889 0.000000
0.080000 0.011852 0.000000
0.080000 0.014815 0.000000
0.080000 0.017778 0.000000
0.080000 0.020741 0.000000
0.080000 0.023704 0.000000
0.080000 0.026667 0.000000
0.080000 0.029630 0.000000
0.080000 0.032593 0.000000
0.080000 0.035556 0.000000
0.080000 0.038519 0.000000
0.080000 0.041481 0.000000
0.080000 0.044444 0.000000
0.080000 0.047407 0.000000
0.080000 0.050370 0.000000
0.080000 0.053333 0.000000
0.080000 0.056296 0.000000
0.080000 0.059259 0.000000
0.080000 0.062222 0.000000
0.080000 0.065185 0.000000
0.080000 0.068148 0.000000
0.080000 0.071111 0.000000
0.080000 0.074074 0.000000
0.080000 0.077037 0.000000
0.080000 0.080000 0.000000
0.080000 0.082963 0.000000
0.080000 0.085926 0.000000
0.080000 0.088889 0.000000
0.080000 0.091852 0.000000
0.080000 0.094815 0.000000
0.080000 0.097778 0.000000
0.080000 0.100741 0.000000
0.080000 0.103704 0.000000
0.080000 0.106667 0.000000
0.080000 0.109630 0.000000
0.080000 0.112593 0.000000
0.080000 0.115556 0.000000
0.080000 0.118519 0.000000
0.080000 0.121481 0.000000
0.080000 0.124444 0.000000
0.080000 0.127407 0.000000
0.080000 0.130370 0.000000
0.080000 0.133333 0.000000
0.080000 0.136296 0.000000
0.080000 0.139259 0.000000
0.080000 0.142222 0.000000
0.080000 0.145185 0.000000
0.080000 0.148148 0.000000
0.080000 0.151111 0.000000
0.080000 0.154074 0.000000
0.080000 0.157037 0.000000
0.077037 0.160000 0.000000
0.074074 0.160000 0.000000
0.071111 0.160000 0.000000
0.068148 0.160000 0.000000
0.065185 0.160000 0.000000
0.062222 0.160000 0.000000
0.059259 0.160000 0.000000
0.056296 0.160000 0.000000
0.053333 0.160000 0.000000
0.050370 0.160000 0.000000
0.047407 0.160000 0.000000
0.044444 0.160000 0.000000
0.041481 0.160000 0.000000
0.038519 0.160000 0.000000
0.035556 0.160000 0.000000
0.032593 0.160000 0.000000
0.029630 0.160000 0.000000
0.026667 0.160000 0.000000
0.023704 0.160000 0.000000
0.020741 0.160000 0.000000
0.017778 0.160000 0.000000
0.014815 0.160000 0.000000
0.011852 0.160000 0.000000
0.008889 0.160000 0.000000
0.005926 0.160000 0.000000
0.002963 0.160000 0.000000
0.000000 0.157037 0.000000
0.000000 0.154074 0.000000
0.000000 0.151111 0.000000
0.000000 0.148148 0.000000
0.000000 0.145185 0.000000
0.000000 0.142222 0.000000
0.000000 0.139259 0.000000
0.000000 0.136296 0.000000
0.000000 0.133333 0.000000
0.000000 0.130370 0.000000
0.000000 0.127407 0.000000
0.000000 0.124444 0.000000
0.000000 0.121481 0.000000
0.000000 0.118519 0.000000
0.000000 0.115556 0.000000
0.000000 0.112593 0.000000
0.000000 0.109630 0.000000
0.000000 0.106667 0.000000
0.000000 0.103704 0.000000
0.000000 0.100741 0.000000
0.000000 0.097778 0.000000
0.000000 0.094815 0.000000
0.000000 0.091852 0.000000
0.000000 0.088889 0.000000
0.000000 0.085926 0.000000
0.000000 0.082963 0.000000
0.000000 0.080000 0.000000
0.000000 0.077037 0.000000
0.000000 0.074074 0.000000
0.000000 0.071111 0.000000
0.000000 0.068148 0.000000
0.000000 0.065185 0.000000
0.000000 0.062222 0.000000
0.000000 0.059259 0.000000
0.000000 0.056296 0.000000
0.000000 0.053333 0.000000
0.000000 0.050370 0.000000
0.000000 0.047407 0.000000
0.000000 0.044444 0.000000
0.000000 0.041481 0.000000
0.000000 0.038519 0.000000
0.000000 0.035556 0.000000
0.000000 0.032593 0.000000
0.000000 0.029630 0.000000
0.000000 0.026667 0.000000
0.000000 0.023704 0.000000
0.000000 0.020741 0.000000
0.000000 0.017778 0.000000
0.000000 0.014815 0.000000
0.000000 0.011852 0.000000
0.000000 0.008889 0.000000
0.000000 0.005926 0.000000
0.000000 0.002963 0.000000
0.035500 0.072746 0.000000
0.035000 0.072419 0.000000
0.034500 0.072093 0.000000
0.034000 0.071767 0.000000
0.033500 0.071440 0.000000
0.033000 0.071114 0.000000
0.032500 0.070788 0.000000
0.032000 0.070461 0.000000
0.031500 0.070135 0.000000
0.031000 0.069809 0.000000
0.030500 0.069482 0.000000
0.030000 0.069156 0.000000
0.029500 0.068829 0.000000
0.029000 0.068503 0.000000
0.028500 0.068177 0.000000
0.028000 0.067850 0.000000
0.027500 0.067524 0.000000
0.027000 0.067198 0.000000
0.026500 0.066871 0.000000
0.026000 0.066545 0.000000
0.025500 0.066219 0.000000
0.025000 0.065892 0.000000
0.044500 0.087216 0.000000
0.045000 0.087505 0.000000
0.045500 0.087793 0.000000
0.046000 0.088081 0.000000
0.046500 0.088370 0.000000
0.047000 0.088658 0.000000
0.047500 0.088946 0.000000
0.048000 0.089235 0.000000
0.048500 0.089523 0.000000
0.049000 0.089811 0.000000
0.049500 0.090100 0.000000
0.050000 0.090388 0.000000
0.050500 0.090677 0.000000
0.051000 0.090965 0.000000
0.051500 0.091253 0.000000
0.052000 0.091542 0.000000
0.052500 0.091830 0.000000
0.053000 0.092118 0.000000
0.053500 0.092407 0.000000
0.054000 0.092695 0.000000
0.054500 0.092983 0.000000
0.055000 0.093272 0.000000
0.043704 0.086415 0.000000
0.043407 0.085902 0.000000
0.043111 0.085388 0.000000
0.042815 0.084875 0.000000
0.042519 0.084362 0.000000
0.042222 0.083849 0.000000
0.041926 0.083336 0.000000
0.041630 0.082823 0.000000
0.041333 0.082309 0.000000
0.041037 0.081796 0.000000
0.040741 0.081283 0.000000
0.040444 0.080770 0.000000
0.040148 0.080257 0.000000
0.039852 0.079743 0.000000
0.039556 0.079230 0.000000
0.039259 0.078717 0.000000
0.038963 0.078204 0.000000
0.038667 0.077691 0.000000
0.038370 0.077177 0.000000
0.038074 0.076664 0.000000
0.037778 0.076151 0.000000
0.037481 0.075638 0.000000
0.037185 0.075125 0.000000
0.036889 0.074612 0.000000
0.036593 0.074098 0.000000
0.036296 0.073585 0.000000
0.024000 0.065235 0.000000
0.023500 0.064904 0.000000
0.023000 0.064572 0.000000
0.022500 0.064241 0.000000
0.022000 0.063910 0.000000
0.021500 0.063579 0.000000
0.021000 0.063248 0.000000
0.020500 0.062916 0.000000
0.020000 0.062585 0.000000
0.019500 0.062254 0.000000
0.019000 0.061923 0.000000
0.018500 0.061592 0.000000
0.018000 0.061261 0.000000
0.017500 0.060929 0.000000
0.017000 0.060598 0.000000
0.016500 0.060267 0.000000
0.016000 0.059936 0.000000
0.015500 0.059605 0.000000
0.015000 0.059273 0.000000
0.014500 0.058942 0.000000
0.014000 0.058611 0.000000
0.013500 0.058280 0.000000
0.013000 0.057949 0.000000
0.012500 0.057617 0.000000
0.012000 0.057286 0.000000
0.011500 0.056955 0.000000
0.011000 0.056624 0.000000
0.010500 0.056293 0.000000
0.010000 0.055961 0.000000
0.009500 0.055630 0.000000
0.009000 0.055299 0.000000
0.008500 0.054968 0.000000
0.008000 0.054637 0.000000
0.007500 0.054305 0.000000
0.007000 0.053974 0.000000
0.006500 0.053643 0.000000
0.006000 0.053312 0.000000
0.005500 0.052981 0.000000
0.005000 0.052650 0.000000
0.004500 0.052318 0.000000
0.004000 0.051987 0.000000
0.003500 0.051656 0.000000
0.003000 0.051325 0.000000
0.002500 0.050994 0.000000
0.002000 0.050662 0.000000
0.001500 0.050331 0.000000
0.055990 0.093902 0.000000
0.056479 0.094245 0.000000
0.056969 0.094587 0.000000
0.057458 0.094930 0.000000
0.057948 0.095272 0.000000
0.058437 0.095615 0.000000
0.058927 0.095957 0.000000
0.059417 0.096300 0.000000
0.059906 0.096642 0.000000
0.060396 0.096985 0.000000
0.060885 0.097327 0.000000
0.061375 0.097670 0.000000
0.061865 0.098012 0.000000
0.062354 0.098355 0.000000
0.062844 0.098697 0.000000
0.063333 0.099040 0.000000
0.063823 0.099382 0.000000
0.064312 0.099725 0.000000
0.064802 0.100067 0.000000
0.065292 0.100410 0.000000
0.065781 0.100752 0.000000
0.066271 0.101095 0.000000
0.066760 0.101437 0.000000
0.067250 0.101780 0.000000
0.067740 0.102122 0.000000
0.068229 0.102465 0.000000
0.068719 0.102807 0.000000
0.069208 0.103150 0.000000
0.069698 0.103492 0.000000
0.070187 0.103835 0.000000
0.070677 0.104177 0.000000
0.071167 0.104520 0.000000
0.071656 0.104862 0.000000
0.072146 0.105205 0.000000
0.072635 0.105547 0.000000
0.073125 0.105890 0.000000
0.073615 0.106232 0.000000
0.074104 0.106575 0.000000
0.074594 0.106917 0.000000
0.075083 0.107260 0.000000
0.075573 0.107602 0.000000
0.076062 0.107945 0.000000
0.076552 0.108287 0.000000
0.077042 0.108630 0.000000
0.077531 0.108972 0.000000
0.078021 0.109315 0.000000
0.078510 0.109658 0.000000
0.043942 0.087469 0.000000
0.035556 0.157037 0.000000
0.044420 0.002920 0.000000
0.077037 0.038519 0.000000
0.002963 0.121481 0.000000
0.077037 0.059259 0.000000
0.002963 0.109630 0.000000
0.002923 0.098139 0.000000
0.077153 0.126913 0.000000
0.002808 0.032596 0.000000
0.077140 0.071061 0.000000
0.002963 0.085926 0.000000
0.002963 0.136296 0.000000
0.077041 0.023701 0.000000
0.056296 0.157037 0.000000
0.032593 0.002963 0.000000
0.077037 0.080000 0.000000
0.002813 0.077135 0.000000
0.077037 0.142222 0.000000
0.017778 0.157037 0.000000
0.062222 0.002963 0.000000
0.076992 0.088722 0.000000
0.002945 0.020743 0.000000
0.017777 0.002962 0.000000
0.002801 0.068434 0.000000
0.002959 0.011851 0.000000
0.065186 0.157038 0.000000
0.002963 0.148148 0.000000
0.077037 0.011852 0.000000
0.076887 0.094740 0.000000
0.077092 0.115875 0.000000
0.002677 0.044265 0.000000
0.077038 0.148148 0.000000
0.002985 0.062165 0.000000
0.077037 0.047407 0.000000
0.011852 0.002963 0.000000
[...]
POINT_DATA 4677
SCALARS UX float 1
LOOKUP_TABLE default
-0.000000
0.000000
0.064650
0.042503
0.002848
0.002194
-0.005696
0.055278
-0.011491
0.063737
-0.000000
-0.000000
-0.000000
-0.000000
-0.000000
-0.000000
-0.000000
-0.000000
-0.000000
-0.000000
-0.000000
-0.000000
-0.000000
0.000000
0.000000
0.000000
0.000000
0.000000
0.000000
0.000000
0.000000
0.000000
0.000000
0.000000
0.000000
-0.000000
0.002381
0.003626
0.004544
0.005328
0.006031
0.006683
0.007299
0.007888
0.008472
0.009044
0.009627
0.010160
0.010632
0.011127
0.011213
0.011998
0.012709
0.013186
0.014718
0.016419
0.019193
0.025677
0.034190
0.050848
0.068346
0.066555
0.067052
0.067378
0.067134
0.067166
0.067129
0.066790
0.066212
0.065628
0.065028
0.064832
0.064137
0.063857
0.063689
0.063495
0.063166
0.063175
0.062825
0.062889
0.063085
0.062888
0.063071
0.063370
0.063384
0.063500
0.064004
0.064411
0.064527
0.063785
0.063105
0.062068
0.060998
0.060232
0.059388
0.058371
0.057606
0.056627
0.055874
0.054925
0.054217
0.053263
0.052409
0.051639
0.050984
0.050055
0.049387
0.048463
0.047734
0.046828
0.046094
0.045297
0.044570
0.043866
0.043183
0.042459
0.042355
0.042213
0.041953
0.041735
0.040967
0.037699
0.033519
0.020789
0.004961
-0.014283
-0.011031
-0.010653
-0.008122
-0.006575
-0.006247
-0.005819
-0.005895
-0.006430
-0.006967
-0.007088
-0.007664
-0.008029
-0.008197
-0.008627
-0.009289
-0.009739
-0.010008
-0.010523
-0.010776
-0.011122
-0.011493
-0.011709
-0.011806
-0.011816
-0.011744
-0.011717
-0.011603
-0.011499
-0.011315
-0.011065
-0.010732
-0.010432
-0.010186
-0.009824
-0.009410
-0.008938
-0.008344
-0.007616
-0.006832
-0.005938
-0.004795
-0.003329
0.002664
0.001572
0.000767
0.001398
0.002005
0.001167
-0.000008
-0.000220
-0.000027
-0.000820
-0.001559
-0.002000
-0.002104
-0.002461
-0.002838
-0.003033
-0.003292
-0.003614
-0.004200
-0.004018
-0.004634
-0.005145
0.001634
0.001868
0.002346
0.002960
0.003580
0.004480
0.005621
0.004326
0.008122
0.012631
0.015631
0.029188
0.047280
0.043174
0.046976
0.048117
0.049988
0.051511
0.052122
0.052998
0.054819
0.055144
0.001829
0.001749
0.001910
0.002032
0.002168
0.002278
0.002369
0.002442
0.002502
0.002547
0.002581
0.002606
0.002615
0.002632
0.002684
0.002655
0.002687
0.002703
0.002687
0.002698
0.002666
0.002683
0.002708
0.002729
0.002753
0.002752
-0.005812
-0.005947
-0.006040
-0.006149
-0.006266
-0.006392
-0.006528
-0.006662
-0.006797
-0.006936
-0.007090
-0.007233
-0.007354
-0.007480
-0.007614
-0.007781
-0.007923
-0.008036
-0.008192
-0.008339
-0.008459
-0.008607
-0.008713
-0.008852
-0.008961
-0.009076
-0.009186
-0.009326
-0.009455
-0.009591
-0.009703
-0.009828
-0.009959
-0.010085
-0.010217
-0.010321
-0.010428
-0.010541
-0.010653
-0.010761
-0.010874
-0.010987
-0.011106
-0.011207
-0.011308
-0.011396
0.055716
0.056116
0.056509
0.056585
0.056855
0.056973
0.057153
0.057346
0.057522
0.057743
0.057907
0.058090
0.058332
0.058554
0.058779
0.059015
0.059281
0.059458
0.059668
0.059857
0.060039
0.060207
0.060358
0.060569
0.060729
0.060919
0.061104
0.061263
0.061384
0.061515
0.061635
0.061745
0.061857
0.061969
0.062082
0.062194
0.062306
0.062416
0.062521
0.062620
0.062688
0.062849
0.063025
0.063178
0.063345
0.063518
0.063614
0.002505
0.051379
0.000009
0.009841
-0.006948
0.014109
-0.004707
-0.006245
0.061861
-0.009913
0.043702
-0.007823
0.037223
0.007072
0.057284
-0.000244
0.065154
-0.009299
0.062251
0.046713
0.000314
0.066185
-0.008252
-0.000587
-0.010544
-0.006208
0.059877
0.042905
0.004465
0.065707
0.062437
-0.010894
0.062621
-0.011057
0.010782
-0.001006
0.061690
0.043832
0.000803
-0.011105
0.064724
0.061884
0.052944
0.054571
-0.000391
0.014817
0.008235
0.048235
0.000204
0.063667
0.062126
-0.010602
0.001556
0.061968
-0.010415
-0.011352
-0.009721
0.066178
-0.007053
-0.008249
0.020466
0.057057
0.011970
-0.005697
0.064020
-0.004942
-0.009542
-0.009090
0.010083
0.049799
0.061965
0.000114
-0.000045
-0.001837
0.008799
-0.000114
-0.007705
-0.000454
0.057968
0.055589
0.042701
0.005862
-0.005220
-0.001222
-0.003602
0.045124
0.000498
0.062984
-0.001761
-0.001819
0.043061
0.002536
0.043150
0.001161
0.063192
0.002211
-0.011215
-0.011253
0.063736
0.002524
-0.000133
0.008954
0.044836
-0.008956
-0.007433
0.061272
0.055241
0.028472
0.060948
-0.000762
-0.010065
-0.007103
-0.010695
0.063644
0.063326
0.056887
-0.005521
-0.002106
-0.003222
0.061549
0.043744
0.001711
0.062957
-0.011132
0.065387
-0.010810
0.066154
-0.010171
-0.011454
0.066160
0.062075
-0.010262
0.063723
-0.008905
0.063914
-0.007345
-0.006689
0.027642
0.015315
-0.006248
-0.005017
0.012901
-0.004709
0.011268
0.061805
0.010285
-0.006149
0.052105
-0.005601
0.009341
0.050625
0.000064
0.053904
-0.008758
0.049087
0.000157
-0.000171
0.062213
0.029671
0.007656
0.056269
-0.000327
0.047540
0.000253
-0.006990
-0.000524
0.058999
0.041938
0.006483
-0.000866
0.042861
0.005199
0.060601
0.062435
0.045950
0.000387
0.062826
0.063355
0.044492
0.000638
0.042963
0.003614
-0.011337
0.063424
0.063126
-0.010669
-0.011151
0.001951
0.001919
0.064095
-0.011242
0.061303
-0.010083
0.001691
0.001754
0.001718
0.013184
-0.006111
-0.004271
0.060520
-0.009716
0.050304
0.047205
-0.009494
0.000314
0.006830
0.065331
0.043028
0.045696
0.064550
0.004349
0.043511
0.000837
0.062837
-0.011008
0.061028
0.010977
-0.003720
0.010222
-0.004180
0.053567
0.037726
0.058576
-0.001219
-0.001742
0.043669
0.060327
0.061947
-0.011160
0.063104
-0.010622
0.062002
0.062003
-0.010338
0.061128
-0.008229
-0.010889
0.065585
0.065030
-0.005372
0.063497
-0.009605
-0.009795
-0.010352
0.020659
0.032305
-0.006617
0.008577
-0.000382
-0.000253
-0.008604
0.009416
0.009180
0.000116
0.000000
-0.006964
0.060651
0.054324
0.048749
0.055964
0.003730
0.015549
0.061029
0.061468
0.060908
0.051831
-0.008172
-0.000668
0.057673
-0.006394
-0.001000
0.005636
0.000527
-0.007653
-0.004556
-0.002568
0.062465
0.044380
0.001278
0.002709
-0.009170
0.002126
0.002808
0.062796
-0.010964
-0.011233
0.063592
-0.011416
0.063466
0.001749
0.002462
0.001786
0.001702
0.002743
-0.000381
0.008336
0.022506
-0.005929
0.053318
0.014510
-0.008542
0.059775
0.064213
-0.001073
0.055883
-0.007509
-0.006483
-0.002751
-0.010774
0.062412
0.059966
0.002305
-0.009122
0.008136
-0.000042
0.059897
-0.001690
0.057456
0.060347
0.038547
0.044312
0.002034
0.001994
-0.009742
0.064972
-0.009080
-0.010475
-0.004752
-0.008562
-0.006226
-0.005750
0.007472
0.015227
0.061447
0.011899
-0.003978
0.010580
0.057158
-0.003532
0.060630
0.065357
-0.006215
0.052657
-0.000503
0.049607
0.042478
0.009789
0.000216
0.048001
-0.007941
0.054157
0.007739
-0.003580
0.000416
0.046533
0.061309
0.006239
-0.005740
-0.003813
0.005018
0.061097
0.059448
-0.001392
0.043432
0.000660
0.051141
0.045000
0.043592
0.061386
0.003595
0.001033
-0.009646
0.060545
-0.009931
0.001865
-0.010956
0.002363
0.003095
0.063243
-0.010709
0.062194
0.001824
0.003152
0.062791
-0.011079
-0.010889
0.063259
0.062562
0.001648
0.002274
0.001933
-0.010886
-0.010194
0.002618
0.002746
0.010706
-0.004661
-0.005262
-0.008420
0.059729
0.053046
-0.008333
-0.009476
0.048629
0.064608
0.043605
0.000479
0.005992
-0.007312
-0.010040
0.046415
-0.002927
0.001031
0.004194
0.009047
-0.000540
0.061654
0.051683
-0.001389
0.004575
0.060199
-0.005841
-0.002354
0.002807
0.044908
0.032080
-0.010355
0.060705
0.059809
-0.009128
-0.005300
-0.006557
-0.005557
-0.000777
0.013454
0.007179
-0.004060
0.008541
0.052651
-0.000221
-0.009312
0.060198
0.059850
-0.007637
0.064925
0.061481
0.054999
0.008897
0.060098
-0.008332
0.041683
0.047808
-0.001311
0.008002
-0.007115
0.056545
-0.002042
0.016939
0.000641
0.050124
0.058256
0.060087
0.028852
0.005400
-0.004882
0.060780
-0.003236
0.000146
0.043936
0.044184
0.001281
0.001594
-0.009167
0.003005
0.002158
0.002071
-0.010752
-0.010748
0.062488
0.062546
0.001775
-0.010713
0.002039
0.062718
-0.010092
0.003498
0.061297
0.064513
0.059824
0.046999
-0.009777
-0.010592
0.002133
0.002142
0.062018
0.001988
0.003847
0.007425
0.011442
0.012396
-0.000309
0.059057
-0.008970
0.058994
0.060044
0.064060
0.055576
0.042313
0.048478
-0.001481
-0.010055
0.059169
0.000650
0.005363
0.061536
0.057203
0.044206
0.044719
0.002840
-0.007603
0.006504
0.059284
0.017473
-0.002752
0.001410
-0.006520
-0.004251
0.002203
0.002486
0.060815
-0.004975
0.009744
0.002518
-0.008057
-0.000817
-0.005000
0.008790
0.011117
0.052157
0.059503
-0.003355
0.002575
-0.002646
-0.000051
0.000207
0.059066
0.054569
-0.007807
0.064534
0.059188
-0.009265
0.038397
0.000311
0.063575
-0.005535
-0.006975
-0.009017
0.028152
0.006868
-0.005127
0.050811
0.059788
0.047070
0.004806
-0.001885
0.059084
0.000817
0.043296
0.053938
-0.003198
0.059323
0.049479
0.003535
0.044079
0.045616
0.006583
0.062331
-0.010536
0.003059
-0.009771
-0.010275
0.003676
0.002519
0.001745
0.001894
0.001819
0.002300
-0.009381
0.002459
0.004031
0.005197
-0.004673
-0.008727
-0.007036
-0.010508
0.059143
0.010132
0.062525
0.065378
0.054964
-0.010522
-0.010806
0.062600
0.001580
0.061977
-0.010753
-0.008748
0.062931
0.062511
0.002400
0.002980
0.003203
-0.002886
-0.004575
0.058886
0.052158
0.026670
-0.007570
-0.000321
-0.007857
0.005692
-0.008917
0.060093
-0.001862
0.062808
-0.006815
0.058148
0.054642
-0.009988
-0.009697
0.046901
0.061650
0.009368
0.058622
0.007945
0.050559
0.002818
0.058371
-0.001781
-0.005840
0.049178
0.000414
-0.003437
0.058848
0.003967
-0.008600
0.001126
0.043909
0.002822
0.044593
0.001716
0.005341
-0.004413
-0.007030
-0.005885
-0.008459
0.008880
0.009836
-0.004218
-0.008702
0.006131
0.062417
-0.000560
-0.009600
0.014108
0.003185
0.000177
-0.001189
-0.010359
0.039585
0.049501
0.059103
0.062282
0.053675
-0.002187
-0.004529
0.058018
0.024333
0.007766
0.056304
0.000871
0.043192
0.004553
0.059533
0.007128
0.044467
0.062142
0.051342
0.047702
0.001753
-0.003682
0.062704
0.045496
-0.010253
0.063876
0.062075
0.061153
0.002098
0.006054
-0.010218
-0.010623
0.058979
-0.009585
0.003726
0.063904
0.003184
0.002566
0.001704
0.001893
0.002585
0.002067
-0.004563
0.004350
0.062313
0.002789
0.002331
0.062932
-0.010729
-0.008203
-0.010630
0.062208
0.002484
-0.010406
0.058804
-0.007938
0.001341
0.002945
0.057965
0.003646
0.008316
0.013139
-0.003862
-0.008130
0.053434
-0.009150
0.000527
0.054217
0.048895
0.043804
0.003886
0.001471
0.003181
0.001128
-0.009991
-0.010220
-0.004279
-0.006999
0.005004
-0.007669
0.009233
0.056115
0.006971
0.026492
-0.002838
0.057848
0.058163
0.045106
0.047486
0.001715
-0.004109
-0.003737
0.005203
-0.002063
-0.007553
-0.000837
-0.001516
0.063183
0.008310
-0.009206
-0.008748
0.061729
0.002696
-0.010688
0.051196
0.003261
-0.008447
0.010023
-0.009439
0.049915
0.007859
-0.006439
-0.006354
0.058117
-0.002387
0.040243
0.058492
-0.010282
-0.010087
-0.004846
0.062991
0.062898
-0.003967
-0.008039
0.052918
-0.005247
0.044056
0.055328
0.006568
0.006011
0.045373
0.058653
0.002257
0.003441
0.061971
0.046227
0.044438
0.001439
-0.000146
0.058336
0.063580
-0.000046
0.003624
0.061149
0.060204
0.007039
-0.010452
0.059352
0.058296
0.061938
-0.010216
0.002977
0.002181
0.001765
0.001851
-0.007164
0.008756
0.002301
-0.009686
0.002962
0.062457
0.060599
-0.010543
0.004481
0.009400
0.058145
-0.002368
0.003299
-0.000590
0.061899
0.001917
0.062076
0.003163
-0.010138
0.057327
0.022474
0.006061
0.003603
-0.007919
-0.004141
-0.000641
-0.007146
0.004938
0.061167
-0.008699
0.062744
0.057266
-0.002805
0.044701
-0.006269
-0.003227
0.051706
-0.009720
-0.009739
0.061598
-0.010078
0.057411
-0.000068
-0.006016
0.001387
0.003445
0.049544
-0.003665
0.057643
-0.005178
0.003361
0.045712
0.007837
0.001825
-0.009248
0.061218
0.062084
-0.010100
0.005225
0.004410
-0.007944
-0.008672
0.015597
0.054817
0.002705
0.007073
0.059876
0.050206
-0.008034
-0.005765
-0.004081
0.011708
-0.001153
0.038512
0.040140
0.008954
0.000219
0.002822
0.057004
-0.005283
0.000824
0.046686
-0.002405
0.053473
0.001800
0.048226
-0.010438
-0.004685
0.006281
-0.007311
0.059655
-0.003847
-0.003985
-0.001821
0.044927
0.045950
0.044722
0.058103
-0.008437
0.043007
0.059393
0.008376
-0.004142
0.064250
0.057797
0.003616
0.003506
0.002008
0.006350
0.003085
0.001646
0.002700
0.060223
0.008863
0.060696
0.001922
0.061869
0.061838
0.003752
0.002585
0.062926
-0.000351
-0.008975
0.002247
0.011298
-0.010215
-0.010903
-0.004140
0.063542
0.003826
-0.001129
0.004354
-0.010065
-0.010433
-0.007436
0.058483
0.002294
-0.010012
0.003299
-0.009348
0.061616
0.062257
0.003422
0.002000
0.003820
0.004246
0.008111
-0.002900
-0.003503
0.040172
-0.000834
0.039129
0.059605
0.062416
-0.009388
0.053369
-0.008609
0.049440
0.045689
0.048016
0.006238
0.011503
-0.009795
-0.005623
0.055425
-0.000076
-0.006419
0.007022
0.005197
0.008135
0.003636
0.004719
-0.003640
-0.004667
0.000325
0.002719
0.046458
0.045478
0.001029
0.044354
0.062841
0.007356
-0.001424
-0.007097
0.061594
0.020097
0.056897
0.057785
0.007573
0.062028
0.061954
0.004412
-0.009827
0.052825
0.010273
-0.006450
-0.009366
-0.003561
-0.007910
-0.008332
0.062252
-0.003679
-0.010314
-0.004471
-0.000024
0.057487
-0.005592
0.001762
0.057365
-0.009873
0.045196
-0.007445
0.063898
-0.003510
0.004318
0.051010
0.043659
0.005764
0.005197
0.053964
-0.003273
-0.002343
-0.007680
-0.007185
0.057226
0.002229
0.057531
0.002990
0.002771
0.059046
-0.001510
0.058637
-0.010248
-0.010048
0.001990
0.001658
0.057621
0.006329
0.008703
0.002237
-0.000924
0.061243
0.060300
0.011261
-0.010043
0.060777
0.001715
-0.008827
0.004047
-0.003722
0.002930
0.061658
0.003595
0.057801
0.004262
-0.008948
0.004255
-0.009946
0.063906
0.061792
0.002305
0.017078
-0.008195
-0.010945
0.001639
0.062531
-0.007444
0.002308
0.056638
0.003342
-0.007213
0.004839
0.004230
-0.002921
-0.007687
-0.006317
0.053280
0.059012
0.004428
0.060627
-0.009112
0.061084
0.056570
0.003115
-0.003092
-0.002088
0.063103
0.005060
0.001626
0.002209
-0.007540
0.050893
-0.003084
-0.009887
0.021653
0.005024
0.001252
0.000014
0.002226
-0.005959
-0.010250
-0.003440
0.003764
0.006352
0.056554
-0.002240
0.062346
-0.003741
-0.005283
-0.008181
0.061330
-0.009569
0.008951
0.047248
-0.007517
-0.004852
0.050291
0.056667
-0.005126
-0.006961
-0.003820
0.058342
0.057944
-0.000460
0.003076
0.046235
0.005307
0.060864
0.013786
0.047335
0.045507
0.063195
0.000673
0.054752
0.048717
0.059857
0.007015
0.005471
-0.006858
-0.002682
0.004149
0.057033
0.045910
0.052466
0.007600
0.043672
0.057444
-0.009840
0.001630
-0.003433
-0.001232
-0.010650
0.002050
0.006401
0.004638
0.008165
0.011775
0.002517
-0.009866
-0.009847
0.001844
0.063757
-0.001284
0.004101
0.019657
-0.008596
0.001783
0.004647
0.056986
0.062043
0.056105
-0.006914
-0.009725
0.003392
0.064410
0.028959
0.008175
0.061566
0.005109
0.004585
0.002710
0.061736
-0.004081
-0.003093
0.004839
0.005917
0.056713
-0.009469
-0.009075
0.061800
0.002394
0.018294
-0.006745
0.008146
0.004772
0.005193
0.056349
0.017413
-0.002576
0.048485
0.015035
0.058425
-0.008716
-0.000403
0.046539
0.003684
0.062855
0.056037
0.003491
0.061559
-0.002432
-0.005406
-0.003057
-0.008806
0.006633
0.062561
0.059719
-0.009184
-0.003225
0.005547
0.052582
-0.009702
0.048716
0.047091
0.004708
0.000850
-0.002976
-0.006523
0.063274
0.043557
0.006827
0.055877
-0.004514
0.060936
0.002461
0.061072
0.057587
-0.006801
-0.005680
-0.009228
0.003728
0.004768
0.051569
-0.010318
-0.004152
0.061000
-0.009621
0.002688
-0.002518
0.049564
0.001672
0.057278
-0.000919
0.005492
0.002838
0.012748
0.064232
0.056616
0.046008
0.030687
0.059228
0.045005
-0.007885
-0.003126
0.053871
0.005012
0.000432
-0.002719
0.007527
0.050248
-0.002713
-0.000331
0.046682
0.056647
-0.005031
0.010628
-0.007491
0.056494
-0.001671
0.055430
-0.006760
0.003041
0.004124
0.005074
0.056876
0.003452
0.006550
0.060399
0.006345
0.002106
0.002196
0.001699
0.001809
0.001591
-0.010001
0.061541
0.061498
0.002846
0.008218
0.011673
-0.007028
0.004977
-0.008156
0.020963
0.001976
0.056086
0.061950
-0.009562
0.003951
-0.004399
-0.009767
0.060919
0.025689
0.037722
0.061296
0.004734
-0.007123
0.007334
-0.009684
-0.008363
-0.009661
0.006398
-0.010533
0.008937
0.006908
0.009607
0.003202
0.008169
-0.006564
-0.002659
0.005029
-0.002017
0.015243
-0.007663
0.057805
-0.006291
0.059227
-0.000893
-0.007774
0.060222
0.052517
0.060943
0.047548
-0.008349
-0.002667
0.050109
0.062639
-0.004801
0.060533
0.001017
0.055990
0.061260
0.002059
0.046856
-0.009267
0.003151
0.046386
-0.009683
0.010526
-0.001488
0.001929
0.004011
0.006143
0.005533
0.055127
-0.009622
0.005782
-0.003720
0.035340
0.002983
0.004522
0.058075
0.063697
0.049276
-0.008325
-0.003593
0.046790
-0.003541
-0.002961
0.058708
0.056545
0.045939
0.047877
0.041352
0.006973
0.053289
0.003977
0.004616
-0.002552
-0.002378
-0.007056
0.062313
0.050786
0.013999
-0.001857
-0.002087
-0.003048
0.007556
0.037167
-0.006520
-0.005578
0.011909
0.003411
0.055885
-0.009419
-0.009553
0.000742
0.003814
0.056373
-0.007449
-0.007098
0.055923
0.006369
-0.006207
0.000078
-0.006305
-0.002566
0.001584
0.003357
0.059878
0.004549
0.002351
0.046558
-0.004077
0.017877
0.006091
0.054564
0.005498
0.009594
0.008300
0.001849
0.061791
0.001799
0.011320
0.002738
0.017076
0.063766
0.063475
0.005465
0.002157
0.060176
0.061277
-0.009825
0.060959
0.003773
0.051943
-0.010025
-0.007296
0.002981
0.003707
0.018201
0.029164
0.061490
0.006563
0.061838
0.003490
-0.008925
0.001629
-0.009563
-0.004655
-0.009534
0.055897
-0.004888
-0.008930
-0.009382
0.056885
0.009884
0.005754
0.004263
0.007564
0.056217
-0.002168
0.005491
-0.007249
0.041626
0.058051
0.013784
0.052960
-0.007075
0.003264
0.060110
0.059411
0.050725
0.061474
-0.005105
0.002809
-0.004187
0.001523
0.003321
-0.001924
0.002500
0.062647
-0.006647
-0.001840
-0.002020
0.001654
0.009577
-0.008649
0.042889
-0.005696
-0.009003
0.055628
0.004237
0.005016
0.003077
0.051802
0.063158
0.006159
0.054429
0.055171
0.003045
-0.002634
0.060263
-0.003014
-0.007882
0.062218
-0.002517
-0.001456
-0.003774
0.005797
0.047674
0.048400
-0.008028
0.049956
0.055282
0.001493
0.028741
-0.009311
0.047403
0.007011
0.008764
0.055193
-0.002175
-0.001967
0.060249
-0.004362
0.057131
0.059871
0.028632
0.004312
0.012213
0.017950
0.057644
0.004821
0.000537
0.006076
0.046481
0.002972
-0.002716
-0.006244
-0.006299
0.062146
0.055368
0.047513
-0.005251
-0.000384
0.055851
-0.006055
0.025231
0.056120
0.003726
0.059466
0.043780
0.001923
0.004392
0.005727
0.053928
0.008347
0.001658
0.008088
-0.009848
-0.009474
-0.006721
0.001673
0.002348
0.011338
0.051614
0.017141
0.003556
0.063019
0.001924
0.059746
0.060675
0.005784
0.003450
-0.006860
0.002373
-0.008582
-0.008636
0.051537
0.006186
-0.009112
0.061237
0.061584
0.061043
0.061313
-0.009325
0.004071
-0.009289
0.002823
0.036027
-0.009422
-0.009481
0.060892
0.005530
-0.006439
0.056523
0.048574
-0.007414
0.011390
0.026747
-0.005593
0.058631
0.050576
0.059734
-0.002070
0.002550
0.048215
-0.008010
0.060228
0.060756
0.054639
0.062472
0.060980
-0.002129
-0.000989
-0.004446
0.022804
0.055923
0.003861
-0.000932
0.061074
0.000652
0.001884
-0.009059
0.004614
0.006350
-0.008498
-0.004398
-0.004084
0.001515
0.008708
0.005419
0.004842
0.007047
-0.009085
0.047355
0.047577
0.057430
0.054694
0.053378
-0.007407
0.059247
-0.003216
0.062058
-0.009315
-0.001880
0.003650
0.047626
0.058348
0.003588
0.008129
0.057439
-0.001458
0.061598
-0.002055
0.058900
0.000126
0.060614
0.010515
0.059588
0.049406
0.025115
-0.006865
0.012676
-0.005995
0.048342
-0.005873
-0.005137
0.002775
-0.006228
-0.009359
0.055232
0.055684
-0.006146
-0.003160
0.020588
0.006482
0.062214
0.052380
0.005968
0.004058
0.003162
0.062324
0.055962
0.006086
0.001544
0.002118
0.002966
0.005358
0.048668
-0.006665
0.040318
0.007644
-0.008281
0.004793
0.059503
0.002930
0.005261
0.001739
0.001676
0.060275
-0.002229
-0.009672
0.011358
0.007721
0.051280
0.017174
-0.001954
0.061863
0.002080
-0.005507
-0.008876
0.002624
-0.002362
0.002356
0.050782
-0.008790
0.006687
-0.009144
-0.009310
0.061013
0.061216
0.054554
-0.005889
0.003936
0.003344
0.029210
0.003809
0.039770
-0.002703
0.056663
0.055528
-0.009279
-0.005775
0.007070
0.003599
-0.006943
0.056811
-0.001314
-0.006682
0.057239
0.000221
0.058657
-0.008158
0.052890
0.041663
0.058991
0.059874
0.048980
0.004025
-0.004664
-0.008839
0.060202
-0.003876
0.054050
0.009294
0.003336
-0.009046
0.015144
0.032538
0.006073
0.051117
0.002227
0.054992
-0.002649
0.048307
0.005004
0.007980
0.048886
-0.005037