# vtk DataFile Version 2.0
Test
ASCII
DATASET POLYDATA
POINTS 4677 float
0.000000 0.000000 0.000000
0.080000 0.000000 0.000000
0.080000 0.160000 0.000000
0.000000 0.160000 0.000000
0.036000 0.073072 0.000000
0.044000 0.086928 0.000000
0.024500 0.065566 0.000000
0.055500 0.093560 0.000000
0.001000 0.050000 0.000000
0.079000 0.110000 0.000000
0.002963 0.000000 0.000000
0.005926 0.000000 0.000000
0.008889 0.000000 0.000000
0.011852 0.000000 0.000000
0.014815 0.000000 0.000000
0.017778 0.000000 0.000000
0.020741 0.000000 0.000000
0.023704 0.000000 0.000000
0.026667 0.000000 0.000000
0.029630 0.000000 0.000000
0.032593 0.000000 0.000000
0.035556 0.000000 0.000000
0.038519 0.000000 0.000000
0.041481 0.000000 0.000000
0.044444 0.000000 0.000000
0.047407 0.000000 0.000000
0.050370 0.000000 0.000000
0.053333 0.000000 0.000000
0.056296 0.000000 0.000000
0.059259 0.000000 0.000000
0.062222 0.000000 0.000000
0.065185 0.000000 0.000000
0.068148 0.000000 0.000000
0.071111 0.000000 0.000000
0.074074 0.000000 0.000000
0.077037 0.000000 0.000000
0.080000 0.002963 0.000000
0.080000 0.005926 0.000000
0.080000 0.008889 0.000000
0.080000 0.011852 0.000000
0.080000 0.014815 0.000000
0.080000 0.017778 0.000000
0.080000 0.020741 0.000000
0.080000 0.023704 0.000000
0.080000 0.026667 0.000000
0.080000 0.029630 0.000000
0.080000 0.032593 0.000000
0.080000 0.035556 0.000000
0.080000 0.038519 0.000000
0.080000 0.041481 0.000000
0.080000 0.044444 0.000000
0.080000 0.047407 0.000000
0.080000 0.050370 0.000000
0.080000 0.053333 0.000000
0.080000 0.056296 0.000000
0.080000 0.059259 0.000000
0.080000 0.062222 0.000000
0.080000 0.065185 0.000000
0.080000 0.068148 0.000000
0.080000 0.071111 0.000000
0.080000 0.074074 0.000000
0.080000 0.077037 0.000000
0.080000 0.080000 0.000000
0.080000 0.082963 0.000000
0.080000 0.085926 0.000000
0.080000 0.088889 0.000000
0.080000 0.091852 0.000000
0.080000 0.094815 0.000000
0.080000 0.097778 0.000000
0.080000 0.100741 0.000000
0.080000 0.103704 0.000000
0.080000 0.106667 0.000000
0.080000 0.109630 0.000000
0.080000 0.112593 0.000000
0.080000 0.115556 0.000000
0.080000 0.118519 0.000000
0.080000 0.121481 0.000000
0.080000 0.124444 0.000000
0.080000 0.127407 0.000000
0.080000 0.130370 0.000000
0.080000 0.133333 0.000000
0.080000 0.136296 0.000000
0.080000 0.139259 0.000000
0.080000 0.142222 0.000000
0.080000 0.145185 0.000000
0.080000 0.148148 0.000000
0.080000 0.151111 0.000000
0.080000 0.154074 0.000000
0.080000 0.157037 0.000000
0.077037 0.160000 0.000000
0.074074 0.160000 0.000000
0.071111 0.160000 0.000000
0.068148 0.160000 0.000000
0.065185 0.160000 0.000000
0.062222 0.160000 0.000000
0.059259 0.160000 0.000000
0.056296 0.160000 0.000000
0.053333 0.160000 0.000000
0.050370 0.160000 0.000000
0.047407 0.160000 0.000000
0.044444 0.160000 0.000000
0.041481 0.160000 0.000000
0.038519 0.160000 0.000000
0.035556 0.160000 0.000000
0.032593 0.160000 0.000000
0.029630 0.160000 0.000000
0.026667 0.160000 0.000000
0.023704 0.160000 0.000000
0.020741 0.160000 0.000000
0.017778 0.160000 0.000000
0.014815 0.160000 0.000000
0.011852 0.160000 0.000000
0.008889 0.160000 0.000000
0.005926 0.160000 0.000000
0.002963 0.160000 0.000000
0.000000 0.157037 0.000000
0.000000 0.154074 0.000000
0.000000 0.151111 0.000000
0.000000 0.148148 0.000000
0.000000 0.145185 0.000000
0.000000 0.142222 0.000000
0.000000 0.139259 0.000000
0.000000 0.136296 0.000000
0.000000 0.133333 0.000000
0.000000 0.130370 0.000000
0.000000 0.127407 0.000000
0.000000 0.124444 0.000000
0.000000 0.121481 0.000000
0.000000 0.118519 0.000000
0.000000 0.115556 0.000000
0.000000 0.112593 0.000000
0.000000 0.109630 0.000000
0.000000 0.106667 0.000000
0.000000 0.103704 0.000000
0.000000 0.100741 0.000000
0.000000 0.097778 0.000000
0.000000 0.094815 0.000000
0.000000 0.091852 0.000000
0.000000 0.088889 0.000000
0.000000 0.085926 0.000000
0.000000 0.082963 0.000000
0.000000 0.080000 0.000000
0.000000 0.077037 0.000000
0.000000 0.074074 0.000000
0.000000 0.071111 0.000000
0.000000 0.068148 0.000000
0.000000 0.065185 0.000000
0.000000 0.062222 0.000000
0.000000 0.059259 0.000000
0.000000 0.056296 0.000000
0.000000 0.053333 0.000000
0.000000 0.050370 0.000000
0.000000 0.047407 0.000000
0.000000 0.044444 0.000000
0.000000 0.041481 0.000000
0.000000 0.038519 0.000000
0.000000 0.035556 0.000000
0.000000 0.032593 0.000000
0.000000 0.029630 0.000000
0.000000 0.026667 0.000000
0.000000 0.023704 0.000000
0.000000 0.020741 0.000000
0.000000 0.017778 0.000000
0.000000 0.014815 0.000000
0.000000 0.011852 0.000000
0.000000 0.008889 0.000000
0.000000 0.005926 0.000000
0.000000 0.002963 0.000000
0.035500 0.072746 0.000000
0.035000 0.072419 0.000000
0.034500 0.072093 0.000000
0.034000 0.071767 0.000000
0.033500 0.071440 0.000000
0.033000 0.071114 0.000000
0.032500 0.070788 0.000000
0.032000 0.070461 0.000000
0.031500 0.070135 0.000000
0.031000 0.069809 0.000000
0.030500 0.069482 0.000000
0.030000 0.069156 0.000000
0.029500 0.068829 0.000000
0.029000 0.068503 0.000000
0.028500 0.068177 0.000000
0.028000 0.067850 0.000000
0.027500 0.067524 0.000000
0.027000 0.067198 0.000000
0.026500 0.066871 0.000000
0.026000 0.066545 0.000000
0.025500 0.066219 0.000000
0.025000 0.065892 0.000000
0.044500 0.087216 0.000000
0.045000 0.087505 0.000000
0.045500 0.087793 0.000000
0.046000 0.088081 0.000000
0.046500 0.088370 0.000000
0.047000 0.088658 0.000000
0.047500 0.088946 0.000000
0.048000 0.089235 0.000000
0.048500 0.089523 0.000000
0.049000 0.089811 0.000000
0.049500 0.090100 0.000000
0.050000 0.090388 0.000000
0.050500 0.090677 0.000000
0.051000 0.090965 0.000000
0.051500 0.091253 0.000000
0.052000 0.091542 0.000000
0.052500 0.091830 0.000000
0.053000 0.092118 0.000000
0.053500 0.092407 0.000000
0.054000 0.092695 0.000000
0.054500 0.092983 0.000000
0.055000 0.093272 0.000000
0.043704 0.086415 0.000000
0.043407 0.085902 0.000000
0.043111 0.085388 0.000000
0.042815 0.084875 0.000000
0.042519 0.084362 0.000000
0.042222 0.083849 0.000000
0.041926 0.083336 0.000000
0.041630 0.082823 0.000000
0.041333 0.082309 0.000000
0.041037 0.081796 0.000000
0.040741 0.081283 0.000000
0.040444 0.080770 0.000000
0.040148 0.080257 0.000000
0.039852 0.079743 0.000000
0.039556 0.079230 0.000000
0.039259 0.078717 0.000000
0.038963 0.078204 0.000000
0.038667 0.077691 0.000000
0.038370 0.077177 0.000000
0.038074 0.076664 0.000000
0.037778 0.076151 0.000000
0.037481 0.075638 0.000000
0.037185 0.075125 0.000000
0.036889 0.074612 0.000000
0.036593 0.074098 0.000000
0.036296 0.073585 0.000000
0.024000 0.065235 0.000000
0.023500 0.064904 0.000000
0.023000 0.064572 0.000000
0.022500 0.064241 0.000000
0.022000 0.063910 0.000000
0.021500 0.063579 0.000000
0.021000 0.063248 0.000000
0.020500 0.062916 0.000000
0.020000 0.062585 0.000000
0.019500 0.062254 0.000000
0.019000 0.061923 0.000000
0.018500 0.061592 0.000000
0.018000 0.061261 0.000000
0.017500 0.060929 0.000000
0.017000 0.060598 0.000000
0.016500 0.060267 0.000000
0.016000 0.059936 0.000000
0.015500 0.059605 0.000000
0.015000 0.059273 0.000000
0.014500 0.058942 0.000000
0.014000 0.058611 0.000000
0.013500 0.058280 0.000000
0.013000 0.057949 0.000000
0.012500 0.057617 0.000000
0.012000 0.057286 0.000000
0.011500 0.056955 0.000000
0.011000 0.056624 0.000000
0.010500 0.056293 0.000000
0.010000 0.055961 0.000000
0.009500 0.055630 0.000000
0.009000 0.055299 0.000000
0.008500 0.054968 0.000000
0.008000 0.054637 0.000000
0.007500 0.054305 0.000000
0.007000 0.053974 0.000000
0.006500 0.053643 0.000000
0.006000 0.053312 0.000000
0.005500 0.052981 0.000000
0.005000 0.052650 0.000000
0.004500 0.052318 0.000000
0.004000 0.051987 0.000000
0.003500 0.051656 0.000000
0.003000 0.051325 0.000000
0.002500 0.050994 0.000000
0.002000 0.050662 0.000000
0.001500 0.050331 0.000000
0.055990 0.093902 0.000000
0.056479 0.094245 0.000000
0.056969 0.094587 0.000000
0.057458 0.094930 0.000000
0.057948 0.095272 0.000000
0.058437 0.095615 0.000000
0.058927 0.095957 0.000000
0.059417 0.096300 0.000000
0.059906 0.096642 0.000000
0.060396 0.096985 0.000000
0.060885 0.097327 0.000000
0.061375 0.097670 0.000000
0.061865 0.098012 0.000000
0.062354 0.098355 0.000000
0.062844 0.098697 0.000000
0.063333 0.099040 0.000000
0.063823 0.099382 0.000000
0.064312 0.099725 0.000000
0.064802 0.100067 0.000000
0.065292 0.100410 0.000000
0.065781 0.100752 0.000000
0.066271 0.101095 0.000000
0.066760 0.101437 0.000000
0.067250 0.101780 0.000000
0.067740 0.102122 0.000000
0.068229 0.102465 0.000000
0.068719 0.102807 0.000000
0.069208 0.103150 0.000000
0.069698 0.103492 0.000000
0.070187 0.103835 0.000000
0.070677 0.104177 0.000000
0.071167 0.104520 0.000000
0.071656 0.104862 0.000000
0.072146 0.105205 0.000000
0.072635 0.105547 0.000000
0.073125 0.105890 0.000000
0.073615 0.106232 0.000000
0.074104 0.106575 0.000000
0.074594 0.106917 0.000000
0.075083 0.107260 0.000000
0.075573 0.107602 0.000000
0.076062 0.107945 0.000000
0.076552 0.108287 0.000000
0.077042 0.108630 0.000000
0.077531 0.108972 0.000000
0.078021 0.109315 0.000000
0.078510 0.109658 0.000000
0.043942 0.087469 0.000000
0.035556 0.157037 0.000000
0.044420 0.002920 0.000000
0.077037 0.038519 0.000000
0.002963 0.121481 0.000000
0.077037 0.059259 0.000000
0.002963 0.109630 0.000000
0.002923 0.098139 0.000000
0.077153 0.126913 0.000000
0.002808 0.032596 0.000000
0.077140 0.071061 0.000000
0.002963 0.085926 0.000000
0.002963 0.136296 0.000000
0.077041 0.023701 0.000000
0.056296 0.157037 0.000000
0.032593 0.002963 0.000000
0.077037 0.080000 0.000000
0.002813 0.077135 0.000000
0.077037 0.142222 0.000000
0.017778 0.157037 0.000000
0.062222 0.002963 0.000000
0.076992 0.088722 0.000000
0.002945 0.020743 0.000000
0.017777 0.002962 0.000000
0.002801 0.068434 0.000000
0.002959 0.011851 0.000000
0.065186 0.157038 0.000000
0.002963 0.148148 0.000000
0.077037 0.011852 0.000000
0.076887 0.094740 0.000000
0.077092 0.115875 0.000000
0.002677 0.044265 0.000000
0.077038 0.148148 0.000000
0.002985 0.062165 0.000000
0.077037 0.047407 0.000000
0.011852 0.002963 0.000000
[...]
POINT_DATA 4677
SCALARS UX float 1
LOOKUP_TABLE default
-0.000001
0.000001
0.044427
-0.115098
-0.046554
-0.074570
-0.073757
-0.018132
-0.088710
-0.013217
-0.000000
-0.000000
-0.000000
-0.000000
-0.000000
-0.000000
-0.000000
-0.000000
-0.000000
-0.000000
-0.000000
-0.000000
-0.000000
0.000000
0.000000
0.000000
0.000000
0.000000
0.000000
0.000000
0.000000
0.000000
0.000000
0.000000
0.000000
-0.000000
0.002356
0.004106
0.005627
0.007047
0.008438
0.009906
0.011363
0.012765
0.014133
0.015573
0.016990
0.018586
0.020465
0.022740
0.024965
0.028333
0.030422
0.031118
0.031454
0.030700
0.031010
0.030608
0.028968
0.027317
0.030900
0.039842
0.036842
0.033399
0.022291
0.016580
0.006433
0.000743
-0.004294
-0.009422
-0.012768
-0.013577
-0.011484
-0.012098
-0.009329
-0.016598
-0.011221
-0.012231
-0.009451
-0.013978
-0.013369
-0.013454
-0.011455
-0.003903
0.003683
0.007098
0.018791
0.026610
0.032590
0.035012
0.025598
0.025505
0.006858
-0.002245
-0.010632
-0.018579
-0.026583
-0.034590
-0.042356
-0.047074
-0.050153
-0.057778
-0.069683
-0.078029
-0.082334
-0.087116
-0.091619
-0.093826
-0.096401
-0.098203
-0.100891
-0.101269
-0.104741
-0.108268
-0.111881
-0.118231
-0.121008
-0.124976
-0.128904
-0.132930
-0.136971
-0.140046
-0.142530
-0.143987
-0.146532
-0.152678
-0.154001
-0.156740
-0.156438
-0.154041
-0.151852
-0.149087
-0.141837
-0.138794
-0.134016
-0.126764
-0.124921
-0.117786
-0.113112
-0.112730
-0.112064
-0.106988
-0.105211
-0.104957
-0.102934
-0.100876
-0.098994
-0.097122
-0.095116
-0.092624
-0.090076
-0.089786
-0.088440
-0.090481
-0.090828
-0.090946
-0.079787
-0.076583
-0.073334
-0.070237
-0.069794
-0.069127
-0.068094
-0.055757
-0.043582
-0.030262
-0.015323
-0.002790
-0.048534
-0.048450
-0.047544
-0.048899
-0.050235
-0.051127
-0.051975
-0.054789
-0.053616
-0.053629
-0.053114
-0.057101
-0.057176
-0.058888
-0.062516
-0.065322
-0.065102
-0.066571
-0.068761
-0.068601
-0.070728
-0.072146
-0.070025
-0.066871
-0.063993
-0.062234
-0.061179
-0.056740
-0.056048
-0.051582
-0.052164
-0.050105
-0.047592
-0.045740
-0.043588
-0.040195
-0.037664
-0.034555
-0.030635
-0.034013
-0.030181
-0.024775
-0.022793
-0.020790
-0.075219
-0.073661
-0.074635
-0.076193
-0.077777
-0.079914
-0.074827
-0.071020
-0.068163
-0.066906
-0.064760
-0.063034
-0.061928
-0.060907
-0.059783
-0.057749
-0.056339
-0.054942
-0.054253
-0.053217
-0.051784
-0.051162
-0.050606
-0.049761
-0.048808
-0.047539
-0.074326
-0.074653
-0.074920
-0.075101
-0.075330
-0.075595
-0.075930
-0.076362
-0.076803
-0.077163
-0.077711
-0.078323
-0.078634
-0.079176
-0.079271
-0.079603
-0.079847
-0.080088
-0.080433
-0.080778
-0.081118
-0.081491
-0.081804
-0.081989
-0.082233
-0.082552
-0.082870
-0.083225
-0.083558
-0.083874
-0.084194
-0.084528
-0.084844
-0.085166
-0.085450
-0.085744
-0.085908
-0.086131
-0.086292
-0.086480
-0.086754
-0.087043
-0.087336
-0.087599
-0.087962
-0.088358
-0.016101
-0.019100
-0.020486
-0.021671
-0.022545
-0.023225
-0.023895
-0.024488
-0.025101
-0.025654
-0.026155
-0.026650
-0.027149
-0.027556
-0.027844
-0.028341
-0.028662
-0.028755
-0.028682
-0.028771
-0.028850
-0.028849
-0.028979
-0.028924
-0.028933
-0.028926
-0.028947
-0.028895
-0.028840
-0.028776
-0.028538
-0.028250
-0.027885
-0.027488
-0.026972
-0.026325
-0.025542
-0.024648
-0.023628
-0.022534
-0.021470
-0.020306
-0.019117
-0.017834
-0.016593
-0.015363
-0.014256
-0.072407
-0.079788
0.000262
0.019176
-0.152652
0.026990
-0.146768
-0.124270
-0.022729
-0.070586
0.022220
-0.108414
-0.138308
0.010953
-0.034325
0.000117
0.034806
-0.103025
-0.009976
-0.099968
0.000190
0.014159
-0.062294
-0.003069
-0.097905
-0.037371
-0.009275
-0.125359
0.005002
-0.004653
-0.017180
-0.086613
0.001943
-0.094047
0.026934
-0.003334
0.015454
-0.111639
0.000291
-0.091945
-0.014420
-0.019249
-0.063963
-0.050981
-0.000523
-0.143828
0.013856
-0.095370
0.000202
0.025832
-0.021933
-0.085801
-0.069611
-0.022288
-0.085685
-0.090715
-0.102244
0.029026
-0.114351
-0.107574
0.025812
0.024348
0.029793
-0.135699
-0.017904
-0.152228
-0.067354
-0.065713
0.021493
-0.088982
-0.019408
0.000219
0.000316
-0.147337
0.015402
0.000342
-0.060635
-0.000867
-0.026360
-0.049925
-0.133366
0.007934
-0.022592
-0.000791
-0.007307
-0.105271
0.000191
0.010705
-0.000819
0.000687
-0.118313
0.001872
-0.115029
0.000457
-0.016008
-0.075383
-0.087373
-0.088527
-0.016421
-0.073070
0.000435
0.017973
0.016491
-0.064133
-0.103093
-0.027274
-0.056069
-0.138730
-0.024191
-0.001904
-0.081523
-0.055548
-0.090836
0.026640
-0.020975
-0.042386
-0.030421
-0.003023
-0.006245
-0.004119
-0.114744
0.000622
-0.014989
-0.086936
-0.009007
-0.096408
0.002721
-0.099814
-0.088578
0.021201
-0.021358
-0.077101
-0.014090
-0.104413
0.033481
-0.108679
-0.122313
0.024687
0.026439
-0.131923
-0.139908
0.030234
-0.149992
0.029174
-0.020472
0.024162
-0.152899
-0.073619
-0.150860
0.017109
-0.086004
0.000233
-0.059853
-0.062726
-0.092535
0.000206
0.000284
-0.014999
-0.140502
0.012427
-0.042156
-0.000254
-0.098002
0.000200
-0.049809
-0.002429
-0.018424
-0.135365
0.009454
-0.003835
-0.129388
0.006434
0.003620
-0.001978
-0.102862
0.000176
0.016386
0.019622
-0.108091
0.000235
-0.121499
0.003444
-0.088055
-0.014478
-0.017023
-0.088684
-0.087193
-0.068690
-0.074126
-0.016631
-0.089619
-0.028046
-0.081372
-0.063840
-0.067265
-0.062287
0.023072
-0.115601
-0.137402
-0.032497
-0.077838
-0.085252
-0.099641
-0.097825
0.000445
0.010594
-0.000413
-0.131316
-0.105575
-0.010956
0.004482
-0.125700
0.000405
-0.017887
-0.086452
-0.029943
0.026341
-0.146902
0.027391
-0.148794
-0.064628
-0.135259
-0.026046
-0.004413
-0.007822
-0.118022
-0.004527
0.004239
-0.087059
-0.016164
-0.084176
-0.020574
0.030079
-0.093383
-0.029648
-0.100155
-0.088270
0.016211
0.024040
-0.128768
-0.019974
-0.070799
-0.079056
-0.082983
0.020136
0.016956
-0.104612
0.015927
0.000243
0.000393
-0.061335
0.023359
0.020533
0.000452
0.000463
-0.104817
-0.029076
-0.055005
-0.093861
-0.049405
-0.144805
-0.142664
-0.020537
-0.008529
-0.026874
-0.076496
-0.058559
-0.000511
-0.034291
-0.045456
-0.002839
0.007457
0.000443
-0.056745
-0.016462
-0.002110
0.012406
-0.111346
0.000426
0.001640
-0.067099
-0.075903
-0.069815
-0.018827
-0.086398
-0.087919
-0.012670
-0.088481
-0.016541
-0.074833
-0.065759
-0.070833
-0.067856
-0.070380
0.000300
0.018840
0.010188
-0.102611
-0.067585
-0.138646
-0.063401
-0.035405
0.019436
-0.001553
-0.048812
-0.052770
-0.049342
-0.007300
-0.085445
-0.020249
-0.037097
-0.061447
-0.098805
0.014216
0.000579
-0.029008
-0.004586
-0.037099
-0.015791
-0.131901
-0.114549
0.000784
-0.071167
-0.095609
-0.005927
-0.066100
-0.092097
-0.133528
-0.099581
-0.109826
-0.119276
0.012322
0.022217
-0.025140
0.024593
-0.144329
0.027793
0.017329
-0.148669
-0.030405
0.008968
-0.100912
-0.069602
-0.000061
-0.090245
-0.133460
0.025269
0.000442
-0.097170
-0.053911
-0.058894
0.014506
-0.147306
0.000457
-0.102226
-0.015010
0.009012
-0.040608
-0.006935
0.005959
-0.003228
-0.015697
-0.006777
-0.129723
0.000417
-0.079540
-0.107843
-0.121808
0.002001
0.002980
0.000397
-0.077100
-0.033618
-0.079983
-0.074796
-0.087671
-0.073326
-0.067223
-0.019703
-0.084768
-0.019976
-0.074625
-0.064220
-0.019965
-0.087480
-0.085759
-0.018449
-0.018409
-0.058378
-0.059276
-0.060238
-0.086505
-0.082483
-0.071621
-0.057685
0.020107
-0.124786
-0.099372
-0.061744
-0.039578
-0.070324
-0.096201
-0.076488
-0.095145
-0.001215
-0.128562
0.000712
0.008629
-0.048609
-0.090329
-0.104734
-0.141116
0.000657
0.004127
0.024798
0.000109
-0.023376
-0.076804
-0.143729
-0.141094
-0.020546
-0.036775
-0.007364
0.001592
-0.111161
0.008096
-0.082993
-0.031281
-0.037157
-0.095180
-0.112616
-0.098776
-0.105860
-0.000382
0.013910
0.012152
-0.132647
0.020793
-0.071475
0.000459
-0.074192
-0.036163
-0.032590
-0.097404
0.013511
0.020390
-0.054142
0.025468
-0.024004
-0.059015
-0.132079
-0.099069
-0.002904
0.016293
-0.051093
-0.043072
-0.006254
0.011896
0.000717
-0.086086
-0.031517
-0.010366
-0.135305
0.007009
-0.022667
-0.010353
-0.003747
0.000661
-0.126090
-0.118092
0.000636
0.000634
-0.073179
-0.067845
-0.065800
-0.060417
-0.085541
-0.086087
-0.020927
-0.021744
-0.074831
-0.086781
-0.075031
-0.022558
-0.094519
-0.065416
-0.026441
0.016080
-0.038594
0.011020
-0.079499
-0.084344
-0.073994
-0.057184
-0.021687
-0.076535
-0.064522
0.016400
0.009463
-0.135594
0.000451
0.012514
-0.072496
-0.039099
-0.037224
0.008545
-0.052119
-0.127817
-0.097029
-0.002497
-0.081306
-0.031005
0.001027
0.007154
-0.025014
-0.044383
-0.124894
-0.114507
-0.060438
-0.049116
0.011399
-0.042427
0.003338
-0.006867
0.000911
-0.045632
-0.007454
0.000979
-0.070436
-0.031516
-0.102377
0.023380
-0.076048
-0.060827
-0.000498
-0.119222
0.023402
0.017411
-0.074261
-0.040678
-0.137336
-0.056719
-0.143728
0.000761
-0.142946
-0.036974
-0.058878
-0.096701
0.005183
-0.043964
-0.093668
0.004301
0.000676
0.012442
-0.096976
-0.047305
-0.071274
-0.133355
0.011692
-0.030644
-0.084407
-0.017063
-0.102183
0.005501
-0.004707
-0.021401
0.000683
-0.130503
-0.064137
-0.010073
-0.026659
-0.090929
0.002811
-0.122009
-0.107963
0.010322
-0.024107
-0.085681
-0.069522
-0.091006
-0.083000
-0.066964
-0.056707
-0.074327
-0.075415
-0.074828
-0.073765
-0.076674
-0.073748
-0.065506
-0.062234
-0.107073
-0.095516
-0.096709
-0.086501
-0.041258
0.021921
-0.021459
0.020226
0.024493
-0.084327
-0.086836
-0.023706
-0.059323
-0.022768
-0.085801
-0.066832
-0.021086
-0.022969
-0.055419
-0.070701
-0.056696
-0.134327
-0.096557
-0.045056
-0.075821
-0.133357
-0.093965
0.000579
-0.057847
0.009883
-0.073239
-0.037174
-0.005716
0.005449
-0.045187
-0.043484
-0.060749
-0.081541
-0.088545
-0.104633
-0.025864
0.015244
-0.047238
0.023076
-0.082779
-0.069187
-0.035700
-0.139443
-0.042645
-0.092209
0.000965
-0.013684
-0.026844
0.003776
-0.092773
0.000938
-0.126794
0.001662
-0.119155
-0.073331
-0.064326
-0.118932
-0.095369
-0.094905
-0.065964
0.019476
0.009633
-0.101163
-0.069281
0.009420
0.014303
0.000050
-0.093042
0.005612
-0.138949
0.000904
-0.001574
-0.086337
-0.130771
0.007289
-0.034233
-0.023100
-0.066202
-0.006021
-0.022827
-0.034997
0.000566
0.019196
-0.049793
0.000965
-0.128294
0.005110
-0.023073
0.014079
-0.122211
-0.026172
-0.078433
-0.101125
0.000890
-0.012768
-0.023787
-0.111054
-0.085125
-0.002812
-0.024721
-0.028138
-0.074900
-0.059476
-0.083037
-0.085217
-0.043433
-0.079228
-0.068067
0.002585
-0.055007
-0.065320
-0.074411
-0.056563
-0.072776
-0.075022
-0.113800
-0.065885
-0.023323
-0.067298
-0.054970
-0.022193
-0.087383
-0.062340
-0.085784
-0.025329
-0.055837
-0.085345
-0.046593
-0.057065
-0.059125
-0.072073
-0.050968
-0.054444
0.006906
0.001783
-0.094953
-0.065157
0.003703
-0.076249
0.001282
-0.061817
-0.094081
-0.124117
0.003940
-0.052465
-0.062482
0.001260
-0.082336
-0.084530
-0.123122
-0.047392
0.006666
-0.058713
-0.133568
-0.050826
0.018525
-0.003810
-0.009705
-0.033318
-0.038645
-0.118397
-0.103364
-0.074800
-0.110831
-0.130678
-0.065372
-0.138803
-0.058960
-0.000476
-0.003603
-0.021917
0.020695
-0.090422
-0.091063
0.006901
-0.073437
-0.087821
-0.080340
-0.059291
-0.068547
0.004931
-0.089124
-0.086985
0.021377
-0.044166
-0.093951
-0.041426
-0.008225
-0.129648
-0.031454
-0.083927
-0.088931
-0.093728
-0.004217
0.000357
-0.022707
-0.092885
-0.071148
-0.032835
-0.124072
-0.055655
0.015034
0.012026
-0.115173
-0.027687
0.001200
0.002763
-0.025126
-0.108165
-0.122806
0.001224
-0.138915
-0.048162
-0.006821
0.000926
-0.068616
-0.028966
-0.036452
-0.062273
-0.084960
-0.042682
-0.044214
-0.026020
-0.085882
-0.053590
-0.072633
-0.074249
-0.075138
-0.094248
-0.055856
-0.074638
-0.080498
-0.063514
-0.025119
-0.031810
-0.087053
-0.067063
0.018598
-0.049906
-0.137059
-0.053510
0.000117
-0.027025
-0.054838
-0.026887
-0.054344
-0.084915
-0.054744
-0.127502
0.015748
-0.052387
-0.065147
-0.091552
0.000221
-0.091254
0.008161
0.001909
-0.088209
-0.008972
-0.047599
-0.011666
-0.120721
-0.040184
-0.129524
-0.079742
-0.087534
-0.081363
-0.028295
-0.084314
-0.043700
-0.135345
-0.091470
0.001558
-0.059029
-0.089771
-0.098918
-0.036184
-0.091771
0.002810
-0.113576
0.016115
-0.075600
-0.086971
-0.029613
-0.005783
-0.083294
-0.065797
0.005124
-0.062203
-0.072982
-0.004458
-0.056994
-0.134398
0.020628
0.007319
-0.085393
-0.089778
-0.038319
-0.023025
0.003898
-0.001623
-0.001684
-0.128237
0.005160
0.001150
0.001805
-0.046058
-0.034439
0.001326
-0.106769
-0.132482
-0.067027
0.001186
-0.099461
-0.086862
-0.028953
0.011949
-0.056703
-0.041346
-0.122318
-0.116099
-0.005664
-0.119841
-0.111042
-0.120502
-0.047186
-0.069967
-0.127352
-0.043368
0.015251
-0.105715
-0.005866
-0.051714
-0.056423
-0.069861
-0.075628
-0.063363
-0.063060
-0.073790
-0.068662
-0.036431
-0.060831
-0.032340
-0.072877
-0.027783
-0.028105
-0.051937
-0.074189
-0.023053
0.000647
-0.087487
-0.070134
-0.055271
-0.084141
-0.089176
-0.126224
-0.020117
-0.052449
-0.136061
-0.067142
-0.085395
-0.090716
-0.052192
-0.047676
-0.051079
-0.084684
-0.050780
-0.078719
-0.027353
-0.026153
-0.071459
-0.076314
-0.055171
-0.050408
0.004129
-0.127840
-0.089759
-0.005895
-0.000227
-0.122308
-0.041178
-0.013020
-0.079862
-0.068407
-0.086457
-0.090984
-0.117996
-0.101215
0.018007
-0.003809
-0.086825
-0.035022
-0.052957
-0.132173
-0.042662
0.021739
-0.066523
-0.128413
0.003726
-0.051100
-0.108904
-0.024712
0.001326
0.001982
-0.109514
-0.115950
0.001645
-0.123051
-0.023171
0.009208
-0.002473
-0.055570
-0.029383
-0.009273
-0.043136
0.002910
0.018740
-0.009177
-0.000981
0.005962
-0.082471
-0.073040
0.000995
-0.091276
-0.086439
-0.016862
-0.066439
-0.088938
-0.026295
-0.103166
-0.088570
-0.089028
0.001082
-0.040346
-0.090591
0.001508
-0.045466
-0.084338
-0.118605
-0.089383
-0.009870
-0.115652
-0.050375
-0.081952
-0.125231
0.013156
0.010340
-0.063407
-0.093231
-0.008180
-0.062357
-0.056371
-0.055284
0.001423
-0.051760
-0.061983
-0.065530
-0.046063
-0.134727
-0.047682
-0.086393
-0.085634
-0.072067
-0.074091
-0.048020
-0.064313
-0.061964
-0.075762
-0.000622
-0.030462
-0.036174
-0.057413
-0.083572
-0.031946
-0.075061
-0.085330
-0.053490
-0.126775
-0.073759
-0.028698
-0.050442
-0.051792
-0.067968
-0.076277
-0.051750
-0.084126
-0.018528
-0.028383
-0.067906
-0.052695
-0.069458
-0.090071
-0.050403
-0.024939
-0.059051
-0.129478
-0.059175
-0.073344
-0.059924
-0.047846
-0.052841
-0.087538
-0.066115
-0.088206
-0.069649
-0.045951
0.008235
-0.003082
-0.078455
-0.009785
-0.051997
-0.058312
-0.108950
-0.006737
-0.021377
-0.048205
-0.127450
-0.076890
-0.087665
-0.084263
-0.097711
-0.086402
-0.122974
-0.067679
0.001800
0.001075
0.001685
-0.040618
-0.086849
-0.120704
-0.056052
0.019726
-0.048301
-0.129765
-0.025433
-0.016903
-0.087787
-0.086785
-0.030853
-0.081494
0.002956
-0.002825
-0.062857
-0.087205
-0.086350
-0.044728
-0.029206
-0.056368
-0.087195
-0.049901
-0.051915
0.000641
0.002546
-0.111545
0.013121
-0.032300
-0.008480
-0.105433
-0.119444
-0.010709
0.001583
-0.058571
-0.096115
-0.039496
0.012803
0.010182
-0.053590
-0.009967
0.006480
-0.054936
-0.115205
-0.074133
0.005612
-0.123254
-0.050670
-0.083246
-0.074472
-0.124897
-0.001463
-0.089479
-0.070461
-0.065119
-0.049540
-0.062962
-0.060604
-0.075725
-0.083983
-0.084945
-0.076125
-0.019313
-0.131070
-0.069385
-0.054801
-0.073666
-0.071729
-0.049847
-0.057249
-0.026896
-0.049176
-0.049905
-0.083768
-0.056576
-0.009575
-0.008171
0.022720
-0.029668
-0.049817
-0.050195
-0.065319
-0.028570
-0.021577
-0.103507
-0.048804
-0.124344
-0.052590
-0.085914
-0.085179
-0.012638
-0.065809
-0.049036
-0.056737
0.000148
-0.049476
-0.047074
-0.061454
-0.119962
-0.105957
-0.009787
-0.012078
-0.049247
-0.076245
0.000263
-0.115564
0.005873
-0.014248
-0.056115
-0.054698
-0.015692
-0.008007
-0.032689
-0.122480
-0.083974
0.006896
-0.023668
-0.001363
-0.084856
-0.085276
-0.046919
-0.074275
-0.083434
-0.096747
-0.106796
0.008058
0.001903
-0.113751
-0.050345
-0.019530
-0.117773
0.015721
-0.052272
-0.084860
-0.032590
-0.077262
-0.007099
-0.053950
-0.088229
-0.087818
-0.079835
0.004633
-0.069264
-0.079653
-0.087740
-0.084636
-0.013108
-0.082256
0.002135
-0.100020
-0.092224
0.001784
-0.055282
-0.000496
0.015464
-0.062061
-0.045924
-0.014318
-0.050495
-0.113849
-0.010950
-0.043708
-0.121200
-0.087191
-0.013684
-0.064821
0.010371
0.001562
-0.091879
0.001747
-0.088101
-0.125491
-0.127873
-0.114132
-0.054353
-0.027256
-0.008693
-0.064158
-0.058608
-0.004049
-0.053651
-0.053719
-0.060265
-0.053439
-0.047744
-0.054638
-0.058762
0.016485
-0.034868
-0.066101
-0.067913
-0.065263
-0.075529
-0.071137
-0.074112
-0.085742
-0.029746
-0.029720
-0.075651
-0.063838
-0.061732
-0.060433
-0.047678
-0.070728
-0.057311
-0.077123
-0.048874
-0.027044
-0.085358
-0.071186
-0.023172
-0.083376
-0.005437
-0.053930
-0.052203
-0.031322
-0.121956
-0.087551
0.020248
-0.083805
-0.086220
-0.084371
-0.048077
-0.087651
-0.002175
-0.047974
-0.046981
-0.075625
-0.006084
-0.057508
-0.083794
-0.047859
-0.103409
-0.117968
-0.068060
-0.052680
-0.085564
-0.005586
-0.001027
-0.085312
-0.011122
-0.075644
-0.016081
-0.111834
-0.084901
-0.120490
-0.090498
-0.021940
-0.027713
-0.034616
0.001708
-0.057755
-0.031396
0.001693
-0.112707
-0.084483
-0.058914
-0.116895
-0.085207
-0.045396
-0.002763
-0.068449
-0.052139
0.013086
0.017100
-0.056784
-0.084498
-0.045243
-0.081636
-0.054840
0.002621
-0.071260
-0.002830
-0.014514
-0.095637
-0.073495
-0.015628
-0.110882
-0.083364
-0.012148
-0.047347
-0.060290
-0.118462
-0.102460
-0.009129
0.004256
-0.069961
0.005627
0.010612
-0.095604
-0.086143
-0.061881
-0.015610
-0.085406
-0.044635
-0.005195
-0.127488
-0.118056
-0.003293
-0.118264
-0.053850
-0.039765
-0.011205
0.004680
-0.056172
-0.083203
-0.083203
-0.123554
-0.052998
-0.057958
-0.085464
-0.085769
-0.062795
0.010810
-0.046058
0.001226
-0.049948
-0.110509
-0.074686
-0.056676
-0.038704
-0.050597
-0.063493
-0.046759
-0.020634
-0.011209
-0.067290
-0.060893
-0.045394
-0.005976
-0.064858
-0.070180
-0.027336
-0.076742
-0.062404
-0.077583
-0.060387
-0.015683
-0.013640
-0.045910
-0.078042
-0.008560
-0.031403
-0.085194
-0.032932
-0.073412
-0.078465
-0.086288
-0.064896
-0.059343
-0.054731
-0.043763
-0.055969
-0.029513
-0.045906
-0.003616
0.002689
-0.083737
-0.072930
-0.083501
-0.024621
-0.082591
-0.053991
-0.084432
-0.078548
-0.081538
-0.058085
-0.046493
0.009482
-0.073597
-0.008901
-0.062420
-0.083108
-0.045508
-0.065823
-0.014307
-0.050909
-0.015287
-0.073003
-0.084037
0.005323
-0.037392
-0.012154
-0.087457
-0.018285
-0.033088
-0.119375
-0.081982
-0.073858
-0.056217
-0.107568
0.001915
-0.017304
-0.059955
-0.124290
-0.006215
-0.070878
-0.012153
-0.082869
-0.114466
-0.085008
-0.083510
-0.065047
-0.050635
-0.048153
0.003874
-0.079880
-0.018426
-0.043729
-0.061789
-0.059375
-0.077844
-0.117037
-0.016288
-0.080733
-0.070813
-0.024473
-0.123025
-0.003185
-0.016848
0.013237
-0.105794
-0.100187
-0.084932
-0.094104
-0.061246
0.001893
-0.056343
-0.081767
-0.114209
-0.000295
-0.009297
-0.058145
-0.090532
-0.098823
-0.013702
-0.023691
-0.056556
-0.006955
-0.116216
0.007967
-0.015026
-0.041726
-0.005527
0.013470
0.001802
0.004772
-0.114158
0.004901
-0.010230
-0.050750
-0.054126
-0.025705
-0.060471
-0.110360
-0.084457
0.000340
-0.061519
-0.047075
-0.014461
-0.057775
-0.053208
-0.041716
-0.052666
-0.066888
-0.050234
-0.069016
-0.065334
-0.044789
-0.075872
-0.065590
-0.085653
-0.083983
-0.085597
-0.071909
-0.062291
-0.063553
-0.042880
-0.060629
-0.075819
-0.017265
-0.078040
0.002489
-0.033895
-0.044634
-0.056189
-0.062599
-0.078784
-0.076844
-0.085695
-0.081032
-0.044613
-0.080818
-0.031122
-0.027782
-0.032706
-0.030289
-0.084077
0.004580
-0.082960
-0.059850
-0.042913
-0.082934
-0.082693
-0.018442
0.003319
-0.060689
-0.059654
-0.111405
-0.067983
-0.018873
-0.018474
-0.083071
-0.009089
-0.090506
-0.040126
-0.007325
0.005378
-0.111324
-0.083616
-0.018760
-0.020608
-0.065308
-0.021214
-0.032387
-0.118197
-0.121800
-0.081507
-0.114758
-0.006189
0.008298
-0.001468
-0.030256
0.001180
0.001645
-0.081453
-0.048571
-0.042690
-0.084222
-0.027801
-0.022955
-0.072677
-0.015039
0.011222
0.014318
-0.006142
-0.083217
-0.114693
-0.108346
-0.054085
-0.063675
-0.070022
-0.083890
-0.009866
-0.079783
-0.018405
-0.083640
-0.086249
-0.053228
-0.011494
-0.049081
0.007537
-0.012100
-0.008938
-0.102533
-0.026900
-0.094988
-0.045159
0.001213
-0.033814
-0.015394
-0.017010
-0.098387
-0.059197
-0.064459
-0.042611