# vtk DataFile Version 2.0
Test
ASCII
DATASET POLYDATA
POINTS 4677 float
0.000000 0.000000 0.000000
0.080000 0.000000 0.000000
0.080000 0.160000 0.000000
0.000000 0.160000 0.000000
0.036000 0.073072 0.000000
0.044000 0.086928 0.000000
0.024500 0.065566 0.000000
0.055500 0.093560 0.000000
0.001000 0.050000 0.000000
0.079000 0.110000 0.000000
0.002963 0.000000 0.000000
0.005926 0.000000 0.000000
0.008889 0.000000 0.000000
0.011852 0.000000 0.000000
0.014815 0.000000 0.000000
0.017778 0.000000 0.000000
0.020741 0.000000 0.000000
0.023704 0.000000 0.000000
0.026667 0.000000 0.000000
0.029630 0.000000 0.000000
0.032593 0.000000 0.000000
0.035556 0.000000 0.000000
0.038519 0.000000 0.000000
0.041481 0.000000 0.000000
0.044444 0.000000 0.000000
0.047407 0.000000 0.000000
0.050370 0.000000 0.000000
0.053333 0.000000 0.000000
0.056296 0.000000 0.000000
0.059259 0.000000 0.000000
0.062222 0.000000 0.000000
0.065185 0.000000 0.000000
0.068148 0.000000 0.000000
0.071111 0.000000 0.000000
0.074074 0.000000 0.000000
0.077037 0.000000 0.000000
0.080000 0.002963 0.000000
0.080000 0.005926 0.000000
0.080000 0.008889 0.000000
0.080000 0.011852 0.000000
0.080000 0.014815 0.000000
0.080000 0.017778 0.000000
0.080000 0.020741 0.000000
0.080000 0.023704 0.000000
0.080000 0.026667 0.000000
0.080000 0.029630 0.000000
0.080000 0.032593 0.000000
0.080000 0.035556 0.000000
0.080000 0.038519 0.000000
0.080000 0.041481 0.000000
0.080000 0.044444 0.000000
0.080000 0.047407 0.000000
0.080000 0.050370 0.000000
0.080000 0.053333 0.000000
0.080000 0.056296 0.000000
0.080000 0.059259 0.000000
0.080000 0.062222 0.000000
0.080000 0.065185 0.000000
0.080000 0.068148 0.000000
0.080000 0.071111 0.000000
0.080000 0.074074 0.000000
0.080000 0.077037 0.000000
0.080000 0.080000 0.000000
0.080000 0.082963 0.000000
0.080000 0.085926 0.000000
0.080000 0.088889 0.000000
0.080000 0.091852 0.000000
0.080000 0.094815 0.000000
0.080000 0.097778 0.000000
0.080000 0.100741 0.000000
0.080000 0.103704 0.000000
0.080000 0.106667 0.000000
0.080000 0.109630 0.000000
0.080000 0.112593 0.000000
0.080000 0.115556 0.000000
0.080000 0.118519 0.000000
0.080000 0.121481 0.000000
0.080000 0.124444 0.000000
0.080000 0.127407 0.000000
0.080000 0.130370 0.000000
0.080000 0.133333 0.000000
0.080000 0.136296 0.000000
0.080000 0.139259 0.000000
0.080000 0.142222 0.000000
0.080000 0.145185 0.000000
0.080000 0.148148 0.000000
0.080000 0.151111 0.000000
0.080000 0.154074 0.000000
0.080000 0.157037 0.000000
0.077037 0.160000 0.000000
0.074074 0.160000 0.000000
0.071111 0.160000 0.000000
0.068148 0.160000 0.000000
0.065185 0.160000 0.000000
0.062222 0.160000 0.000000
0.059259 0.160000 0.000000
0.056296 0.160000 0.000000
0.053333 0.160000 0.000000
0.050370 0.160000 0.000000
0.047407 0.160000 0.000000
0.044444 0.160000 0.000000
0.041481 0.160000 0.000000
0.038519 0.160000 0.000000
0.035556 0.160000 0.000000
0.032593 0.160000 0.000000
0.029630 0.160000 0.000000
0.026667 0.160000 0.000000
0.023704 0.160000 0.000000
0.020741 0.160000 0.000000
0.017778 0.160000 0.000000
0.014815 0.160000 0.000000
0.011852 0.160000 0.000000
0.008889 0.160000 0.000000
0.005926 0.160000 0.000000
0.002963 0.160000 0.000000
0.000000 0.157037 0.000000
0.000000 0.154074 0.000000
0.000000 0.151111 0.000000
0.000000 0.148148 0.000000
0.000000 0.145185 0.000000
0.000000 0.142222 0.000000
0.000000 0.139259 0.000000
0.000000 0.136296 0.000000
0.000000 0.133333 0.000000
0.000000 0.130370 0.000000
0.000000 0.127407 0.000000
0.000000 0.124444 0.000000
0.000000 0.121481 0.000000
0.000000 0.118519 0.000000
0.000000 0.115556 0.000000
0.000000 0.112593 0.000000
0.000000 0.109630 0.000000
0.000000 0.106667 0.000000
0.000000 0.103704 0.000000
0.000000 0.100741 0.000000
0.000000 0.097778 0.000000
0.000000 0.094815 0.000000
0.000000 0.091852 0.000000
0.000000 0.088889 0.000000
0.000000 0.085926 0.000000
0.000000 0.082963 0.000000
0.000000 0.080000 0.000000
0.000000 0.077037 0.000000
0.000000 0.074074 0.000000
0.000000 0.071111 0.000000
0.000000 0.068148 0.000000
0.000000 0.065185 0.000000
0.000000 0.062222 0.000000
0.000000 0.059259 0.000000
0.000000 0.056296 0.000000
0.000000 0.053333 0.000000
0.000000 0.050370 0.000000
0.000000 0.047407 0.000000
0.000000 0.044444 0.000000
0.000000 0.041481 0.000000
0.000000 0.038519 0.000000
0.000000 0.035556 0.000000
0.000000 0.032593 0.000000
0.000000 0.029630 0.000000
0.000000 0.026667 0.000000
0.000000 0.023704 0.000000
0.000000 0.020741 0.000000
0.000000 0.017778 0.000000
0.000000 0.014815 0.000000
0.000000 0.011852 0.000000
0.000000 0.008889 0.000000
0.000000 0.005926 0.000000
0.000000 0.002963 0.000000
0.035500 0.072746 0.000000
0.035000 0.072419 0.000000
0.034500 0.072093 0.000000
0.034000 0.071767 0.000000
0.033500 0.071440 0.000000
0.033000 0.071114 0.000000
0.032500 0.070788 0.000000
0.032000 0.070461 0.000000
0.031500 0.070135 0.000000
0.031000 0.069809 0.000000
0.030500 0.069482 0.000000
0.030000 0.069156 0.000000
0.029500 0.068829 0.000000
0.029000 0.068503 0.000000
0.028500 0.068177 0.000000
0.028000 0.067850 0.000000
0.027500 0.067524 0.000000
0.027000 0.067198 0.000000
0.026500 0.066871 0.000000
0.026000 0.066545 0.000000
0.025500 0.066219 0.000000
0.025000 0.065892 0.000000
0.044500 0.087216 0.000000
0.045000 0.087505 0.000000
0.045500 0.087793 0.000000
0.046000 0.088081 0.000000
0.046500 0.088370 0.000000
0.047000 0.088658 0.000000
0.047500 0.088946 0.000000
0.048000 0.089235 0.000000
0.048500 0.089523 0.000000
0.049000 0.089811 0.000000
0.049500 0.090100 0.000000
0.050000 0.090388 0.000000
0.050500 0.090677 0.000000
0.051000 0.090965 0.000000
0.051500 0.091253 0.000000
0.052000 0.091542 0.000000
0.052500 0.091830 0.000000
0.053000 0.092118 0.000000
0.053500 0.092407 0.000000
0.054000 0.092695 0.000000
0.054500 0.092983 0.000000
0.055000 0.093272 0.000000
0.043704 0.086415 0.000000
0.043407 0.085902 0.000000
0.043111 0.085388 0.000000
0.042815 0.084875 0.000000
0.042519 0.084362 0.000000
0.042222 0.083849 0.000000
0.041926 0.083336 0.000000
0.041630 0.082823 0.000000
0.041333 0.082309 0.000000
0.041037 0.081796 0.000000
0.040741 0.081283 0.000000
0.040444 0.080770 0.000000
0.040148 0.080257 0.000000
0.039852 0.079743 0.000000
0.039556 0.079230 0.000000
0.039259 0.078717 0.000000
0.038963 0.078204 0.000000
0.038667 0.077691 0.000000
0.038370 0.077177 0.000000
0.038074 0.076664 0.000000
0.037778 0.076151 0.000000
0.037481 0.075638 0.000000
0.037185 0.075125 0.000000
0.036889 0.074612 0.000000
0.036593 0.074098 0.000000
0.036296 0.073585 0.000000
0.024000 0.065235 0.000000
0.023500 0.064904 0.000000
0.023000 0.064572 0.000000
0.022500 0.064241 0.000000
0.022000 0.063910 0.000000
0.021500 0.063579 0.000000
0.021000 0.063248 0.000000
0.020500 0.062916 0.000000
0.020000 0.062585 0.000000
0.019500 0.062254 0.000000
0.019000 0.061923 0.000000
0.018500 0.061592 0.000000
0.018000 0.061261 0.000000
0.017500 0.060929 0.000000
0.017000 0.060598 0.000000
0.016500 0.060267 0.000000
0.016000 0.059936 0.000000
0.015500 0.059605 0.000000
0.015000 0.059273 0.000000
0.014500 0.058942 0.000000
0.014000 0.058611 0.000000
0.013500 0.058280 0.000000
0.013000 0.057949 0.000000
0.012500 0.057617 0.000000
0.012000 0.057286 0.000000
0.011500 0.056955 0.000000
0.011000 0.056624 0.000000
0.010500 0.056293 0.000000
0.010000 0.055961 0.000000
0.009500 0.055630 0.000000
0.009000 0.055299 0.000000
0.008500 0.054968 0.000000
0.008000 0.054637 0.000000
0.007500 0.054305 0.000000
0.007000 0.053974 0.000000
0.006500 0.053643 0.000000
0.006000 0.053312 0.000000
0.005500 0.052981 0.000000
0.005000 0.052650 0.000000
0.004500 0.052318 0.000000
0.004000 0.051987 0.000000
0.003500 0.051656 0.000000
0.003000 0.051325 0.000000
0.002500 0.050994 0.000000
0.002000 0.050662 0.000000
0.001500 0.050331 0.000000
0.055990 0.093902 0.000000
0.056479 0.094245 0.000000
0.056969 0.094587 0.000000
0.057458 0.094930 0.000000
0.057948 0.095272 0.000000
0.058437 0.095615 0.000000
0.058927 0.095957 0.000000
0.059417 0.096300 0.000000
0.059906 0.096642 0.000000
0.060396 0.096985 0.000000
0.060885 0.097327 0.000000
0.061375 0.097670 0.000000
0.061865 0.098012 0.000000
0.062354 0.098355 0.000000
0.062844 0.098697 0.000000
0.063333 0.099040 0.000000
0.063823 0.099382 0.000000
0.064312 0.099725 0.000000
0.064802 0.100067 0.000000
0.065292 0.100410 0.000000
0.065781 0.100752 0.000000
0.066271 0.101095 0.000000
0.066760 0.101437 0.000000
0.067250 0.101780 0.000000
0.067740 0.102122 0.000000
0.068229 0.102465 0.000000
0.068719 0.102807 0.000000
0.069208 0.103150 0.000000
0.069698 0.103492 0.000000
0.070187 0.103835 0.000000
0.070677 0.104177 0.000000
0.071167 0.104520 0.000000
0.071656 0.104862 0.000000
0.072146 0.105205 0.000000
0.072635 0.105547 0.000000
0.073125 0.105890 0.000000
0.073615 0.106232 0.000000
0.074104 0.106575 0.000000
0.074594 0.106917 0.000000
0.075083 0.107260 0.000000
0.075573 0.107602 0.000000
0.076062 0.107945 0.000000
0.076552 0.108287 0.000000
0.077042 0.108630 0.000000
0.077531 0.108972 0.000000
0.078021 0.109315 0.000000
0.078510 0.109658 0.000000
0.043942 0.087469 0.000000
0.035556 0.157037 0.000000
0.044420 0.002920 0.000000
0.077037 0.038519 0.000000
0.002963 0.121481 0.000000
0.077037 0.059259 0.000000
0.002963 0.109630 0.000000
0.002923 0.098139 0.000000
0.077153 0.126913 0.000000
0.002808 0.032596 0.000000
0.077140 0.071061 0.000000
0.002963 0.085926 0.000000
0.002963 0.136296 0.000000
0.077041 0.023701 0.000000
0.056296 0.157037 0.000000
0.032593 0.002963 0.000000
0.077037 0.080000 0.000000
0.002813 0.077135 0.000000
0.077037 0.142222 0.000000
0.017778 0.157037 0.000000
0.062222 0.002963 0.000000
0.076992 0.088722 0.000000
0.002945 0.020743 0.000000
0.017777 0.002962 0.000000
0.002801 0.068434 0.000000
0.002959 0.011851 0.000000
0.065186 0.157038 0.000000
0.002963 0.148148 0.000000
0.077037 0.011852 0.000000
0.076887 0.094740 0.000000
0.077092 0.115875 0.000000
0.002677 0.044265 0.000000
0.077038 0.148148 0.000000
0.002985 0.062165 0.000000
0.077037 0.047407 0.000000
0.011852 0.002963 0.000000
[...]
POINT_DATA 4677
SCALARS UX float 1
LOOKUP_TABLE default
-0.000000
0.000001
0.044070
-0.055595
-0.011927
-0.033008
-0.048138
-0.000639
-0.058828
0.011911
-0.000000
-0.000000
-0.000000
-0.000000
-0.000000
-0.000000
-0.000000
-0.000000
-0.000000
-0.000000
-0.000000
-0.000000
-0.000000
0.000000
0.000000
0.000000
0.000000
0.000000
0.000000
0.000000
0.000000
0.000000
0.000000
0.000000
0.000000
-0.000000
0.005431
0.008339
0.010441
0.012410
0.014332
0.016264
0.018172
0.020091
0.022100
0.024299
0.026635
0.029134
0.031807
0.034554
0.037009
0.039404
0.040503
0.040963
0.040494
0.040243
0.039785
0.040152
0.037361
0.035546
0.034501
0.036148
0.035745
0.034562
0.031315
0.027368
0.024031
0.020788
0.017348
0.014982
0.012420
0.012414
0.012905
0.013660
0.013277
0.014600
0.014773
0.013710
0.014994
0.015747
0.017560
0.017300
0.021291
0.025380
0.027714
0.030883
0.036469
0.041581
0.042247
0.041595
0.036687
0.031809
0.026672
0.021146
0.016596
0.012069
0.007322
0.001737
-0.002995
-0.007913
-0.010622
-0.013239
-0.016880
-0.020066
-0.023809
-0.027708
-0.030280
-0.033947
-0.037513
-0.040134
-0.043842
-0.046776
-0.049252
-0.051466
-0.054064
-0.057266
-0.058481
-0.059458
-0.060156
-0.061533
-0.063596
-0.066254
-0.069110
-0.072360
-0.075566
-0.078495
-0.081219
-0.083744
-0.084706
-0.083776
-0.081775
-0.078828
-0.077048
-0.074745
-0.073651
-0.072844
-0.072600
-0.072390
-0.071265
-0.071542
-0.075469
-0.075628
-0.075485
-0.075533
-0.073374
-0.069161
-0.065961
-0.063976
-0.061871
-0.061049
-0.060058
-0.059296
-0.059264
-0.058505
-0.057983
-0.056823
-0.049581
-0.046759
-0.045934
-0.044194
-0.041553
-0.039859
-0.037804
-0.034845
-0.030535
-0.018885
-0.013610
-0.005803
-0.011358
-0.012438
-0.014335
-0.015422
-0.016427
-0.017995
-0.018256
-0.021693
-0.023570
-0.018235
-0.024400
-0.025465
-0.025121
-0.027157
-0.028271
-0.022707
-0.029690
-0.032053
-0.035546
-0.039013
-0.042292
-0.045260
-0.032081
-0.033691
-0.032338
-0.027966
-0.024976
-0.023614
-0.022312
-0.022068
-0.022140
-0.016055
-0.012590
-0.012965
-0.017643
-0.020674
-0.015285
-0.008860
-0.007005
-0.001920
0.004673
0.007316
0.007362
0.007259
-0.033478
-0.032995
-0.032173
-0.031237
-0.030205
-0.028939
-0.028012
-0.026783
-0.025495
-0.024220
-0.023289
-0.022260
-0.021472
-0.020658
-0.019967
-0.019270
-0.018711
-0.017799
-0.017309
-0.016216
-0.015661
-0.014787
-0.014044
-0.013272
-0.012732
-0.012210
-0.047901
-0.047549
-0.046797
-0.046399
-0.046333
-0.046341
-0.046451
-0.046624
-0.046857
-0.047071
-0.047307
-0.047521
-0.047697
-0.047832
-0.047991
-0.048165
-0.048725
-0.048923
-0.049034
-0.049257
-0.049413
-0.049679
-0.049999
-0.050309
-0.050599
-0.050884
-0.051179
-0.051532
-0.051844
-0.052299
-0.052718
-0.053131
-0.053554
-0.053925
-0.054290
-0.054677
-0.055120
-0.055496
-0.055963
-0.056293
-0.056592
-0.056938
-0.057298
-0.057704
-0.058125
-0.058539
-0.002953
-0.002615
-0.002490
-0.002534
-0.002300
-0.002082
-0.002064
-0.002087
-0.002162
-0.002138
-0.002053
-0.001929
-0.001803
-0.001645
-0.001465
-0.001376
-0.001399
-0.001425
-0.000717
-0.000393
0.000028
0.000334
0.000552
0.000685
0.000770
0.000882
0.000910
0.000959
0.001046
0.001134
0.001336
0.001628
0.001940
0.002279
0.002655
0.003101
0.003744
0.004573
0.004961
0.005606
0.006468
0.007148
0.007844
0.008764
0.009665
0.010111
0.011020
-0.034626
-0.022850
-0.000051
0.031108
-0.081206
0.037803
-0.076513
-0.070125
0.009521
-0.043872
0.032056
-0.066837
-0.066440
0.018425
0.003146
-0.001464
0.032577
-0.071940
0.020615
-0.043112
0.000520
0.025091
-0.034741
-0.002052
-0.066961
-0.027365
0.017388
-0.058475
0.010069
0.017891
0.007214
-0.055589
0.026797
-0.060735
0.038597
-0.002706
0.027493
-0.053417
0.001085
-0.059019
0.011706
0.012051
-0.015694
-0.009988
-0.002036
-0.072802
0.022884
-0.036908
0.000548
0.038234
0.006063
-0.053901
-0.032912
0.006752
-0.050305
-0.059048
-0.071186
0.030530
-0.068131
-0.068448
0.037001
0.030732
0.039787
-0.073030
0.009654
-0.081772
-0.041679
-0.039227
0.033749
-0.029560
0.014038
0.000442
-0.000355
-0.075882
0.025439
-0.000818
-0.034057
-0.002522
0.007182
-0.006545
-0.062117
0.014262
-0.011660
-0.000763
-0.001707
-0.049307
0.000640
0.031145
0.000290
-0.000829
-0.056622
0.004969
-0.055392
0.001764
0.009298
-0.035199
-0.057630
-0.058358
0.009918
-0.035914
-0.000829
0.030462
0.026561
-0.037587
-0.061112
0.002049
-0.009229
-0.068436
0.010324
-0.002740
-0.050349
-0.029648
-0.058283
0.027966
0.007038
-0.000773
-0.019585
-0.006109
-0.001495
0.021345
-0.054769
0.002539
0.009792
-0.056939
0.015305
-0.063658
0.021895
-0.070973
-0.058652
0.028329
0.007849
-0.047147
0.011226
-0.071290
0.032361
-0.068278
-0.068962
0.034551
0.037950
-0.072110
-0.074767
0.038956
-0.079797
0.039626
0.010549
0.036230
-0.082481
-0.018456
-0.078745
0.028134
-0.026185
0.000250
-0.012820
-0.037188
-0.032791
0.000526
-0.001278
0.017367
-0.069382
0.020601
-0.002578
-0.001612
-0.040430
0.000532
-0.030726
-0.002578
0.012478
-0.064035
0.016357
-0.002322
-0.060080
0.012194
0.022542
0.024652
-0.045903
0.000527
0.032030
0.034146
-0.051123
0.000843
-0.057626
0.007799
-0.058160
0.010355
0.008991
-0.056657
-0.057375
-0.032624
-0.035162
0.010207
-0.058632
0.001371
-0.048707
-0.030749
-0.030647
-0.030123
0.035303
-0.066378
-0.072809
-0.002472
-0.046156
-0.028462
-0.043017
-0.068075
0.000868
0.018904
0.019490
-0.061693
-0.047898
0.012721
0.009875
-0.058245
0.001254
0.007695
-0.056858
0.003740
0.037197
-0.077586
0.037777
-0.078995
-0.015674
-0.066322
0.009279
-0.003005
-0.003329
-0.056146
0.018483
0.023764
-0.057304
0.009278
-0.054391
0.003732
0.030113
-0.061444
0.001461
-0.064644
-0.057086
0.024965
0.026034
-0.069273
0.007728
-0.042216
-0.044316
-0.052317
0.031051
0.027963
-0.063934
0.027469
-0.002074
-0.001455
-0.036164
0.035269
0.033040
0.000349
-0.000144
-0.062373
0.007014
-0.012384
-0.035812
-0.005027
-0.074947
-0.072154
0.013318
0.017713
0.008308
-0.020769
-0.032401
-0.002642
0.005490
-0.025270
-0.003208
0.014234
0.001027
-0.031566
-0.003472
-0.004397
0.027665
-0.053248
0.001738
0.004991
-0.039275
-0.036404
-0.034528
0.007541
-0.056665
-0.057883
0.011592
-0.058625
0.009853
-0.034393
-0.030506
-0.031314
-0.031038
-0.036033
-0.001859
0.031698
0.025158
-0.059717
-0.017734
-0.071279
-0.035245
0.003531
0.023122
-0.003086
-0.007771
-0.029053
-0.023516
-0.006461
-0.056231
0.005876
-0.000579
-0.027877
-0.068721
0.024817
-0.000427
0.006812
-0.003671
0.001382
0.012723
-0.065167
-0.054180
0.003182
-0.030112
-0.065262
0.016937
-0.038888
-0.059622
-0.071350
-0.067182
-0.065438
-0.066968
0.021600
0.033512
0.000649
0.036446
-0.075196
0.038050
0.024964
-0.079346
0.005514
0.022022
-0.058310
-0.018130
-0.002336
-0.031731
-0.064337
0.036752
0.000673
-0.039231
-0.031589
-0.014911
0.026361
-0.077143
0.000970
-0.046052
0.015506
0.016519
-0.022657
-0.002914
0.012064
0.019621
0.014017
-0.003032
-0.059866
0.001097
-0.024859
-0.050632
-0.057085
0.022897
0.007582
0.001442
-0.044040
-0.002204
-0.049048
-0.036167
-0.057215
-0.037024
-0.031946
0.008152
-0.055534
0.005244
-0.033383
-0.029545
0.006821
-0.057341
-0.056347
0.008348
0.007173
-0.030089
-0.027274
-0.028438
-0.056460
-0.051619
-0.037125
-0.025233
0.032801
-0.067092
-0.057214
-0.034937
-0.005463
-0.020096
-0.064859
-0.044902
-0.037291
0.018288
-0.059641
0.001130
0.016904
-0.026993
-0.058318
-0.047245
-0.072840
0.001746
0.009769
0.036296
-0.002398
0.001981
-0.022526
-0.077545
-0.073173
0.010395
-0.019887
-0.003240
0.005198
-0.051931
0.021463
-0.053245
-0.002305
0.002698
-0.065126
-0.063563
-0.056983
-0.060851
-0.003061
0.029676
0.022530
-0.068996
0.033542
-0.019857
-0.001243
-0.040934
-0.001968
0.005182
-0.061273
0.022746
0.024246
-0.010771
0.036168
0.008563
-0.033934
-0.063263
-0.041487
-0.003707
0.029319
-0.027013
-0.002779
-0.003114
0.027456
0.001359
-0.030713
0.005633
0.014508
-0.067881
0.014372
-0.013860
0.016176
-0.005131
0.000268
-0.057625
-0.055088
0.002020
0.002423
-0.041452
-0.034713
-0.028939
-0.026664
-0.056061
-0.056206
0.005731
0.005838
-0.035373
-0.056192
-0.037287
0.005849
-0.063089
-0.030157
-0.000101
0.022832
0.000861
0.023750
-0.048749
-0.055122
-0.029918
-0.028972
0.004109
-0.031781
-0.025865
0.030160
0.027067
-0.071064
-0.001733
0.020671
-0.040733
0.001343
-0.005083
0.020194
-0.009868
-0.061471
-0.039442
-0.003816
-0.051195
0.003896
0.001364
0.015432
0.001404
-0.001240
-0.057469
-0.053051
-0.025497
-0.029350
0.022013
-0.004668
0.021151
-0.008531
0.002483
-0.021779
-0.010154
0.003736
-0.027682
-0.002254
-0.056916
0.035743
-0.027139
-0.032597
-0.003315
-0.065613
0.035043
0.031826
-0.023108
-0.005278
-0.071257
-0.026697
-0.075352
-0.000749
-0.075885
0.001991
-0.014076
-0.061849
0.019944
-0.003415
-0.063297
0.019500
0.000767
0.020293
-0.056129
-0.024787
-0.039629
-0.067659
0.025391
-0.016651
-0.026247
0.011663
-0.044426
0.012010
-0.005274
0.010313
0.001536
-0.061780
-0.017367
-0.008148
0.006645
-0.033232
0.007521
-0.056042
-0.049455
0.019665
0.004605
-0.055456
-0.036242
-0.059720
-0.053333
-0.033217
-0.025504
-0.034320
-0.032677
-0.036911
-0.037964
-0.044959
-0.027896
-0.028010
-0.024739
-0.057663
-0.065263
-0.058165
-0.055527
0.000353
0.034163
0.005738
0.025773
0.028980
-0.054856
-0.056542
0.005100
-0.026730
0.003764
-0.056121
-0.036942
0.006761
0.005191
-0.024691
-0.037352
-0.023728
-0.068527
-0.055121
-0.008391
-0.025435
-0.066466
-0.059998
-0.002158
-0.031777
0.020441
-0.041144
-0.005458
-0.005108
0.018385
-0.023781
-0.001627
-0.015515
-0.051497
-0.057389
-0.045758
0.001896
0.030754
-0.007433
0.034119
-0.028207
-0.025448
0.000923
-0.072264
-0.019361
-0.036531
0.000775
-0.008671
0.006892
0.009572
-0.063067
0.002109
-0.058707
0.005465
-0.054112
-0.034862
-0.030058
-0.064017
-0.057009
-0.054824
-0.035977
0.033304
0.028856
-0.055519
-0.038124
0.019423
0.020695
-0.002603
-0.062296
0.023853
-0.073900
0.000048
-0.003849
-0.055093
-0.064183
0.020119
0.002603
0.004548
-0.020011
-0.006863
-0.012603
0.002785
0.017780
0.032154
-0.005101
0.001760
-0.059939
0.012007
0.009375
0.027832
-0.055806
0.003240
-0.025539
-0.042587
0.002967
-0.008681
0.005119
-0.050860
-0.054221
0.016673
0.003797
-0.000759
-0.030632
-0.023058
-0.053511
-0.055808
-0.002053
-0.048184
-0.035055
0.018187
-0.023814
-0.027145
-0.036131
-0.024632
-0.038236
-0.037948
-0.062429
-0.031706
0.004933
-0.025767
-0.025051
0.006345
-0.056304
-0.034297
-0.055801
0.003909
-0.025193
-0.054911
-0.007940
-0.031790
-0.026129
-0.038376
-0.010576
-0.022390
0.028140
0.020547
-0.053024
-0.034530
0.016868
-0.043912
0.000667
-0.018366
-0.037775
-0.058238
0.010167
-0.024837
-0.023309
0.002240
-0.052276
-0.053966
-0.065526
-0.024927
0.015972
-0.030847
-0.068739
-0.007733
0.031024
0.015938
-0.008183
0.000132
-0.000527
-0.053606
-0.043991
-0.036463
-0.059465
-0.067275
-0.032813
-0.071137
-0.029020
-0.003450
-0.004811
0.006583
0.033828
-0.060014
-0.061033
0.018141
-0.025502
-0.056265
-0.028053
-0.023527
-0.037050
0.024689
-0.058533
-0.032257
0.033562
-0.021063
-0.054355
-0.000665
-0.006560
-0.063005
0.002786
-0.054173
-0.057033
-0.053964
0.015283
0.016591
-0.009042
-0.061625
-0.022681
-0.016427
-0.056769
-0.011185
0.028863
0.023143
-0.052603
0.005043
0.004176
0.007580
0.003147
-0.048675
-0.055626
0.002781
-0.074532
-0.006427
0.015017
-0.001280
-0.036375
-0.000799
-0.004879
-0.027978
-0.054886
-0.007812
-0.002572
0.002823
-0.054565
-0.024257
-0.029278
-0.033889
-0.037427
-0.057765
-0.022012
-0.038700
-0.049880
-0.024800
0.004075
-0.003015
-0.055733
-0.033961
0.032247
-0.011343
-0.069518
-0.023655
-0.002902
0.002468
-0.025459
0.002624
-0.024728
-0.053850
-0.012800
-0.064515
0.027902
-0.023492
-0.033792
-0.051765
-0.003475
-0.056229
0.017973
0.015472
-0.058663
0.013502
-0.004842
-0.008762
-0.055181
-0.020431
-0.066273
-0.028533
-0.056162
-0.050464
0.001445
-0.053471
-0.003582
-0.068856
-0.052040
0.002830
-0.022264
-0.034325
-0.054157
-0.001401
-0.052817
0.007952
-0.050863
0.031285
-0.037849
-0.056508
-0.000463
0.014089
-0.053097
-0.034531
0.012617
-0.032731
-0.039969
0.015625
-0.015087
-0.070975
0.031649
0.018136
-0.030946
-0.059669
-0.018964
-0.009869
0.022527
-0.004220
0.017001
-0.061231
0.026101
-0.000380
0.005866
-0.004127
-0.016592
0.001562
-0.046885
-0.067255
-0.022125
0.003371
-0.041095
-0.055472
-0.012662
0.025806
-0.027781
-0.007153
-0.064011
-0.061275
-0.006141
-0.053821
-0.049994
-0.054565
-0.004994
-0.037716
-0.060520
-0.008469
0.030511
-0.056870
0.016036
-0.009830
-0.022132
-0.037591
-0.038478
-0.031610
-0.023333
-0.035387
-0.024764
-0.004845
-0.024856
-0.002765
-0.032084
0.002045
0.001720
-0.022725
-0.039156
0.005676
-0.002699
-0.057527
-0.028121
-0.021671
-0.054026
-0.057180
-0.066437
0.007886
-0.022405
-0.069014
-0.035464
-0.054057
-0.058191
-0.028439
-0.010149
-0.024382
-0.053510
-0.023740
-0.046889
0.001447
0.003313
-0.038603
-0.038955
-0.020867
-0.021574
0.024623
-0.064644
-0.049679
0.012701
-0.004536
-0.059211
-0.007118
0.011542
-0.048744
-0.023715
-0.056960
-0.035282
-0.051324
-0.041990
0.029084
0.016829
-0.055331
-0.018578
-0.011717
-0.066662
-0.021177
0.031680
-0.035947
-0.066815
0.010358
-0.021774
-0.058479
-0.013879
-0.000701
0.006093
-0.048056
-0.051691
0.001799
-0.056699
0.005417
0.028155
-0.005264
-0.025504
0.000757
0.013055
-0.006501
0.015688
0.032549
0.012690
0.015489
0.014740
-0.051726
-0.024762
0.020021
-0.052918
-0.055576
-0.009133
-0.034165
-0.059186
0.003261
-0.055233
-0.056469
-0.050574
-0.001841
-0.002849
-0.050528
0.003632
-0.004996
-0.053084
-0.052892
-0.057440
0.013458
-0.060088
-0.021883
-0.029976
-0.058273
0.026014
0.020928
-0.020983
-0.051285
-0.007062
-0.031505
-0.027277
-0.012219
0.004505
-0.008829
-0.023113
-0.023447
-0.009741
-0.068053
-0.010325
-0.054952
-0.054155
-0.030893
-0.034662
-0.004658
-0.033515
-0.030371
-0.039285
-0.004210
-0.000379
-0.004008
-0.023048
-0.053029
-0.002030
-0.036996
-0.055376
-0.020942
-0.065604
-0.039402
0.001290
-0.022713
-0.012675
-0.036695
-0.042934
-0.020881
-0.052956
0.008983
0.001562
-0.026627
-0.019499
-0.036259
-0.057837
-0.021531
0.004211
-0.029505
-0.066465
-0.015089
-0.039554
-0.028339
-0.020809
-0.019689
-0.047904
-0.033095
-0.052443
-0.024389
-0.009576
0.018294
0.013318
-0.045402
0.011606
-0.010688
-0.021463
-0.057437
-0.007703
0.006487
-0.020757
-0.063468
-0.039848
-0.057033
-0.031535
-0.053247
-0.054682
-0.060549
-0.037119
0.002087
-0.002403
0.004956
-0.019342
-0.055223
-0.062205
-0.020143
0.029830
-0.007884
-0.065281
0.003670
-0.010974
-0.049266
-0.057254
-0.000077
-0.050045
0.022402
0.013309
-0.030977
-0.048646
-0.031860
-0.006066
-0.016505
-0.026020
-0.048314
-0.012050
-0.012725
-0.003685
0.007591
-0.048916
0.025108
-0.001504
0.013134
-0.044914
-0.052568
0.012940
0.000556
-0.016440
-0.038575
-0.005742
0.029600
0.024407
-0.024290
-0.008558
0.015118
-0.012003
-0.050151
-0.027055
0.026384
-0.056393
-0.007512
-0.051991
-0.036051
-0.063983
-0.005464
-0.057198
-0.029404
-0.034987
-0.021509
-0.032429
-0.028391
-0.039871
-0.052745
-0.053456
-0.038336
0.008610
-0.065814
-0.037838
-0.023120
-0.039492
-0.032966
-0.020402
-0.014776
0.002609
-0.009379
-0.023998
-0.052354
-0.020817
0.013759
0.012774
0.034655
0.000557
-0.021017
-0.019437
-0.022950
0.001457
-0.011110
-0.055067
-0.017657
-0.062004
-0.007535
-0.054729
-0.054749
0.011131
-0.024574
-0.018181
-0.025217
0.020471
-0.017980
-0.019692
-0.016832
-0.058454
-0.055476
0.011489
0.010369
-0.011816
-0.041556
-0.004488
-0.049135
0.014312
0.011004
-0.011844
-0.019450
0.009643
-0.009386
-0.017642
-0.061865
-0.053956
0.026489
0.004884
0.013137
-0.054148
-0.046268
-0.020516
-0.027025
-0.052108
-0.038415
-0.046159
0.020534
0.000505
-0.058703
-0.022023
0.007494
-0.054505
0.031267
-0.011474
-0.045880
-0.001701
-0.040538
0.012829
-0.014311
-0.053755
-0.049564
-0.047819
0.012287
-0.038218
-0.029791
-0.055882
-0.046574
0.010308
-0.050965
0.006807
-0.053450
-0.035090
0.003579
-0.014773
-0.005543
0.026661
-0.021424
-0.013415
0.010427
-0.008045
-0.050146
0.008803
-0.008484
-0.053814
-0.057523
-0.010154
-0.021776
0.023164
-0.001031
-0.049939
0.022627
-0.033253
-0.062726
-0.063417
-0.047868
-0.009908
-0.016565
0.013710
-0.031274
-0.014540
-0.006521
-0.014374
-0.024067
-0.020812
-0.018992
-0.020863
-0.010597
-0.021328
0.030895
-0.002981
-0.036220
-0.027915
-0.025556
-0.037503
-0.032084
-0.035413
-0.054209
0.000612
0.000624
-0.040285
-0.033947
-0.031395
-0.027641
-0.019070
-0.036545
-0.027321
-0.039470
-0.010401
0.002442
-0.054005
-0.038935
-0.013016
-0.052017
0.013068
-0.022617
-0.022437
-0.000390
-0.060003
-0.055426
0.032652
-0.052301
-0.056939
-0.052827
-0.019235
-0.055988
0.018256
-0.018324
-0.015886
-0.040555
0.016515
-0.024293
-0.044882
-0.017960
-0.054229
-0.057006
-0.033344
-0.013785
-0.051213
0.011482
-0.006424
-0.055781
0.010347
-0.027979
0.009023
-0.047059
-0.055731
-0.060083
-0.034474
0.005909
-0.015645
-0.002700
0.000403
-0.012259
-0.000224
0.004575
-0.047074
-0.053543
-0.019447
-0.051023
-0.053729
-0.016250
-0.006923
-0.028733
-0.018354
0.029199
0.027779
-0.014894
-0.052931
-0.019737
-0.043229
-0.025351
0.008340
-0.039241
0.013313
0.010575
-0.037114
-0.038129
-0.011879
-0.047357
-0.045034
-0.009844
-0.010562
-0.016628
-0.052867
-0.042718
0.010277
0.024852
-0.025082
0.016933
0.022236
-0.051972
-0.046744
-0.028255
0.009984
-0.032302
-0.013691
-0.008129
-0.063319
-0.060441
0.018623
-0.056023
-0.022953
-0.018149
0.010898
0.011765
-0.013036
-0.051452
-0.051589
-0.060373
-0.018144
-0.013986
-0.055163
-0.054310
-0.017117
0.028561
-0.019546
-0.002971
-0.021140
-0.057116
-0.036620
-0.019337
-0.005478
-0.017738
-0.023799
-0.016536
-0.013692
0.010559
-0.037337
-0.018373
-0.018315
0.015778
-0.035239
-0.030748
0.002141
-0.038836
-0.033003
-0.041049
-0.029824
0.009692
0.011180
-0.019941
-0.040419
0.011416
-0.000328
-0.053562
-0.001758
-0.039917
-0.029103
-0.054676
-0.030455
-0.019659
-0.019565
-0.011094
-0.026060
0.000681
-0.019299
0.014391
0.010547
-0.053188
-0.034090
-0.051904
-0.015826
-0.051061
-0.011035
-0.045711
-0.044853
-0.049698
-0.016192
-0.015800
0.026537
-0.040213
0.015264
-0.017822
-0.044247
-0.017126
-0.030894
0.007888
-0.012678
0.007567
-0.026890
-0.053611
0.012942
-0.004517
0.009233
-0.033607
0.008300
-0.016983
-0.058077
-0.042810
-0.035636
-0.017614
-0.055484
0.005995
0.009185
-0.025520
-0.060954
-0.009889
-0.031722
0.011309
-0.052462
-0.052189
-0.048521
-0.052555
-0.018680
-0.016604
-0.016295
0.009254
-0.030235
0.008131
-0.018885
-0.019644
-0.016849
-0.041401
-0.059074
0.008257
-0.042775
-0.035225
0.004366
-0.060956
-0.008024
-0.012093
0.028379
-0.043467
-0.040614
-0.055762
-0.035692
-0.015699
0.002364
-0.028597
-0.049904
-0.048673
0.021270
0.014108
-0.015758
-0.049184
-0.052701
0.009312
-0.015300
-0.015736
0.011458
-0.054977
0.019907
0.007895
-0.011977
0.011244
0.024003
-0.001364
0.025347
-0.050743
0.010077
-0.010645
-0.021214
-0.022092
0.003422
-0.016531
-0.044778
-0.046208
-0.005232
-0.016071
-0.018480
0.006766
-0.012668
-0.017372
-0.006967
-0.024856
-0.027516
-0.017200
-0.038360
-0.022173
-0.017629
-0.037997
-0.036390
-0.054099
-0.052385
-0.053180
-0.032858
-0.022839
-0.034274
-0.020418
-0.032217
-0.040798
0.009040
-0.039997
0.015858
-0.002488
-0.018844
-0.018010
-0.027550
-0.041171
-0.041448
-0.056087
-0.030535
-0.019313
-0.048022
-0.000069
0.001684
-0.001304
0.000300
-0.052885
0.012828
-0.051175
-0.019939
-0.009996
-0.051219
-0.051084
0.007751
0.023521
-0.024793
-0.017331
-0.049191
-0.032662
0.004840
0.004354
-0.047801
0.010268
-0.034743
-0.006394
-0.010329
0.009246
-0.045757
-0.054584
0.006799
0.006765
-0.020005
0.006588
-0.001076
-0.058294
-0.059141
-0.042512
-0.054669
0.010800
0.018940
-0.007153
0.000007
-0.001606
0.003223
-0.048202
-0.015492
-0.017827
-0.054907
-0.014812
-0.014115
-0.033986
0.010156
0.026652
0.024690
0.017029
-0.052019
-0.049586
-0.044095
-0.014987
-0.020009
-0.025229
-0.054261
0.010077
-0.041437
0.008550
-0.052180
-0.046383
-0.016058
0.008112
-0.011777
0.016277
0.012813
0.010103
-0.053596
0.002242
-0.051508
-0.009488
-0.003589
-0.002321
0.007957
0.007231
-0.037356
-0.031272
-0.028339
-0.014381
-0.020194
-0.044126
-0.017672
-0.017253
0.008278
-0.022714
-0.050216
-0.019008
-0.015568
-0.021493
-0.011509
0.006930
0.023503
0.004825
-0.029071
-0.016480
-0.016372
-0.017650
0.007354
-0.018371
-0.017373
-0.037059
-0.025216
-0.018476
-0.039341
-0.019207