# vtk DataFile Version 2.0
Test
ASCII
DATASET POLYDATA
POINTS 4677 float
0.000000 0.000000 0.000000
0.080000 0.000000 0.000000
0.080000 0.160000 0.000000
0.000000 0.160000 0.000000
0.036000 0.073072 0.000000
0.044000 0.086928 0.000000
0.024500 0.065566 0.000000
0.055500 0.093560 0.000000
0.001000 0.050000 0.000000
0.079000 0.110000 0.000000
0.002963 0.000000 0.000000
0.005926 0.000000 0.000000
0.008889 0.000000 0.000000
0.011852 0.000000 0.000000
0.014815 0.000000 0.000000
0.017778 0.000000 0.000000
0.020741 0.000000 0.000000
0.023704 0.000000 0.000000
0.026667 0.000000 0.000000
0.029630 0.000000 0.000000
0.032593 0.000000 0.000000
0.035556 0.000000 0.000000
0.038519 0.000000 0.000000
0.041481 0.000000 0.000000
0.044444 0.000000 0.000000
0.047407 0.000000 0.000000
0.050370 0.000000 0.000000
0.053333 0.000000 0.000000
0.056296 0.000000 0.000000
0.059259 0.000000 0.000000
0.062222 0.000000 0.000000
0.065185 0.000000 0.000000
0.068148 0.000000 0.000000
0.071111 0.000000 0.000000
0.074074 0.000000 0.000000
0.077037 0.000000 0.000000
0.080000 0.002963 0.000000
0.080000 0.005926 0.000000
0.080000 0.008889 0.000000
0.080000 0.011852 0.000000
0.080000 0.014815 0.000000
0.080000 0.017778 0.000000
0.080000 0.020741 0.000000
0.080000 0.023704 0.000000
0.080000 0.026667 0.000000
0.080000 0.029630 0.000000
0.080000 0.032593 0.000000
0.080000 0.035556 0.000000
0.080000 0.038519 0.000000
0.080000 0.041481 0.000000
0.080000 0.044444 0.000000
0.080000 0.047407 0.000000
0.080000 0.050370 0.000000
0.080000 0.053333 0.000000
0.080000 0.056296 0.000000
0.080000 0.059259 0.000000
0.080000 0.062222 0.000000
0.080000 0.065185 0.000000
0.080000 0.068148 0.000000
0.080000 0.071111 0.000000
0.080000 0.074074 0.000000
0.080000 0.077037 0.000000
0.080000 0.080000 0.000000
0.080000 0.082963 0.000000
0.080000 0.085926 0.000000
0.080000 0.088889 0.000000
0.080000 0.091852 0.000000
0.080000 0.094815 0.000000
0.080000 0.097778 0.000000
0.080000 0.100741 0.000000
0.080000 0.103704 0.000000
0.080000 0.106667 0.000000
0.080000 0.109630 0.000000
0.080000 0.112593 0.000000
0.080000 0.115556 0.000000
0.080000 0.118519 0.000000
0.080000 0.121481 0.000000
0.080000 0.124444 0.000000
0.080000 0.127407 0.000000
0.080000 0.130370 0.000000
0.080000 0.133333 0.000000
0.080000 0.136296 0.000000
0.080000 0.139259 0.000000
0.080000 0.142222 0.000000
0.080000 0.145185 0.000000
0.080000 0.148148 0.000000
0.080000 0.151111 0.000000
0.080000 0.154074 0.000000
0.080000 0.157037 0.000000
0.077037 0.160000 0.000000
0.074074 0.160000 0.000000
0.071111 0.160000 0.000000
0.068148 0.160000 0.000000
0.065185 0.160000 0.000000
0.062222 0.160000 0.000000
0.059259 0.160000 0.000000
0.056296 0.160000 0.000000
0.053333 0.160000 0.000000
0.050370 0.160000 0.000000
0.047407 0.160000 0.000000
0.044444 0.160000 0.000000
0.041481 0.160000 0.000000
0.038519 0.160000 0.000000
0.035556 0.160000 0.000000
0.032593 0.160000 0.000000
0.029630 0.160000 0.000000
0.026667 0.160000 0.000000
0.023704 0.160000 0.000000
0.020741 0.160000 0.000000
0.017778 0.160000 0.000000
0.014815 0.160000 0.000000
0.011852 0.160000 0.000000
0.008889 0.160000 0.000000
0.005926 0.160000 0.000000
0.002963 0.160000 0.000000
0.000000 0.157037 0.000000
0.000000 0.154074 0.000000
0.000000 0.151111 0.000000
0.000000 0.148148 0.000000
0.000000 0.145185 0.000000
0.000000 0.142222 0.000000
0.000000 0.139259 0.000000
0.000000 0.136296 0.000000
0.000000 0.133333 0.000000
0.000000 0.130370 0.000000
0.000000 0.127407 0.000000
0.000000 0.124444 0.000000
0.000000 0.121481 0.000000
0.000000 0.118519 0.000000
0.000000 0.115556 0.000000
0.000000 0.112593 0.000000
0.000000 0.109630 0.000000
0.000000 0.106667 0.000000
0.000000 0.103704 0.000000
0.000000 0.100741 0.000000
0.000000 0.097778 0.000000
0.000000 0.094815 0.000000
0.000000 0.091852 0.000000
0.000000 0.088889 0.000000
0.000000 0.085926 0.000000
0.000000 0.082963 0.000000
0.000000 0.080000 0.000000
0.000000 0.077037 0.000000
0.000000 0.074074 0.000000
0.000000 0.071111 0.000000
0.000000 0.068148 0.000000
0.000000 0.065185 0.000000
0.000000 0.062222 0.000000
0.000000 0.059259 0.000000
0.000000 0.056296 0.000000
0.000000 0.053333 0.000000
0.000000 0.050370 0.000000
0.000000 0.047407 0.000000
0.000000 0.044444 0.000000
0.000000 0.041481 0.000000
0.000000 0.038519 0.000000
0.000000 0.035556 0.000000
0.000000 0.032593 0.000000
0.000000 0.029630 0.000000
0.000000 0.026667 0.000000
0.000000 0.023704 0.000000
0.000000 0.020741 0.000000
0.000000 0.017778 0.000000
0.000000 0.014815 0.000000
0.000000 0.011852 0.000000
0.000000 0.008889 0.000000
0.000000 0.005926 0.000000
0.000000 0.002963 0.000000
0.035500 0.072746 0.000000
0.035000 0.072419 0.000000
0.034500 0.072093 0.000000
0.034000 0.071767 0.000000
0.033500 0.071440 0.000000
0.033000 0.071114 0.000000
0.032500 0.070788 0.000000
0.032000 0.070461 0.000000
0.031500 0.070135 0.000000
0.031000 0.069809 0.000000
0.030500 0.069482 0.000000
0.030000 0.069156 0.000000
0.029500 0.068829 0.000000
0.029000 0.068503 0.000000
0.028500 0.068177 0.000000
0.028000 0.067850 0.000000
0.027500 0.067524 0.000000
0.027000 0.067198 0.000000
0.026500 0.066871 0.000000
0.026000 0.066545 0.000000
0.025500 0.066219 0.000000
0.025000 0.065892 0.000000
0.044500 0.087216 0.000000
0.045000 0.087505 0.000000
0.045500 0.087793 0.000000
0.046000 0.088081 0.000000
0.046500 0.088370 0.000000
0.047000 0.088658 0.000000
0.047500 0.088946 0.000000
0.048000 0.089235 0.000000
0.048500 0.089523 0.000000
0.049000 0.089811 0.000000
0.049500 0.090100 0.000000
0.050000 0.090388 0.000000
0.050500 0.090677 0.000000
0.051000 0.090965 0.000000
0.051500 0.091253 0.000000
0.052000 0.091542 0.000000
0.052500 0.091830 0.000000
0.053000 0.092118 0.000000
0.053500 0.092407 0.000000
0.054000 0.092695 0.000000
0.054500 0.092983 0.000000
0.055000 0.093272 0.000000
0.043704 0.086415 0.000000
0.043407 0.085902 0.000000
0.043111 0.085388 0.000000
0.042815 0.084875 0.000000
0.042519 0.084362 0.000000
0.042222 0.083849 0.000000
0.041926 0.083336 0.000000
0.041630 0.082823 0.000000
0.041333 0.082309 0.000000
0.041037 0.081796 0.000000
0.040741 0.081283 0.000000
0.040444 0.080770 0.000000
0.040148 0.080257 0.000000
0.039852 0.079743 0.000000
0.039556 0.079230 0.000000
0.039259 0.078717 0.000000
0.038963 0.078204 0.000000
0.038667 0.077691 0.000000
0.038370 0.077177 0.000000
0.038074 0.076664 0.000000
0.037778 0.076151 0.000000
0.037481 0.075638 0.000000
0.037185 0.075125 0.000000
0.036889 0.074612 0.000000
0.036593 0.074098 0.000000
0.036296 0.073585 0.000000
0.024000 0.065235 0.000000
0.023500 0.064904 0.000000
0.023000 0.064572 0.000000
0.022500 0.064241 0.000000
0.022000 0.063910 0.000000
0.021500 0.063579 0.000000
0.021000 0.063248 0.000000
0.020500 0.062916 0.000000
0.020000 0.062585 0.000000
0.019500 0.062254 0.000000
0.019000 0.061923 0.000000
0.018500 0.061592 0.000000
0.018000 0.061261 0.000000
0.017500 0.060929 0.000000
0.017000 0.060598 0.000000
0.016500 0.060267 0.000000
0.016000 0.059936 0.000000
0.015500 0.059605 0.000000
0.015000 0.059273 0.000000
0.014500 0.058942 0.000000
0.014000 0.058611 0.000000
0.013500 0.058280 0.000000
0.013000 0.057949 0.000000
0.012500 0.057617 0.000000
0.012000 0.057286 0.000000
0.011500 0.056955 0.000000
0.011000 0.056624 0.000000
0.010500 0.056293 0.000000
0.010000 0.055961 0.000000
0.009500 0.055630 0.000000
0.009000 0.055299 0.000000
0.008500 0.054968 0.000000
0.008000 0.054637 0.000000
0.007500 0.054305 0.000000
0.007000 0.053974 0.000000
0.006500 0.053643 0.000000
0.006000 0.053312 0.000000
0.005500 0.052981 0.000000
0.005000 0.052650 0.000000
0.004500 0.052318 0.000000
0.004000 0.051987 0.000000
0.003500 0.051656 0.000000
0.003000 0.051325 0.000000
0.002500 0.050994 0.000000
0.002000 0.050662 0.000000
0.001500 0.050331 0.000000
0.055990 0.093902 0.000000
0.056479 0.094245 0.000000
0.056969 0.094587 0.000000
0.057458 0.094930 0.000000
0.057948 0.095272 0.000000
0.058437 0.095615 0.000000
0.058927 0.095957 0.000000
0.059417 0.096300 0.000000
0.059906 0.096642 0.000000
0.060396 0.096985 0.000000
0.060885 0.097327 0.000000
0.061375 0.097670 0.000000
0.061865 0.098012 0.000000
0.062354 0.098355 0.000000
0.062844 0.098697 0.000000
0.063333 0.099040 0.000000
0.063823 0.099382 0.000000
0.064312 0.099725 0.000000
0.064802 0.100067 0.000000
0.065292 0.100410 0.000000
0.065781 0.100752 0.000000
0.066271 0.101095 0.000000
0.066760 0.101437 0.000000
0.067250 0.101780 0.000000
0.067740 0.102122 0.000000
0.068229 0.102465 0.000000
0.068719 0.102807 0.000000
0.069208 0.103150 0.000000
0.069698 0.103492 0.000000
0.070187 0.103835 0.000000
0.070677 0.104177 0.000000
0.071167 0.104520 0.000000
0.071656 0.104862 0.000000
0.072146 0.105205 0.000000
0.072635 0.105547 0.000000
0.073125 0.105890 0.000000
0.073615 0.106232 0.000000
0.074104 0.106575 0.000000
0.074594 0.106917 0.000000
0.075083 0.107260 0.000000
0.075573 0.107602 0.000000
0.076062 0.107945 0.000000
0.076552 0.108287 0.000000
0.077042 0.108630 0.000000
0.077531 0.108972 0.000000
0.078021 0.109315 0.000000
0.078510 0.109658 0.000000
0.043942 0.087469 0.000000
0.035556 0.157037 0.000000
0.044420 0.002920 0.000000
0.077037 0.038519 0.000000
0.002963 0.121481 0.000000
0.077037 0.059259 0.000000
0.002963 0.109630 0.000000
0.002923 0.098139 0.000000
0.077153 0.126913 0.000000
0.002808 0.032596 0.000000
0.077140 0.071061 0.000000
0.002963 0.085926 0.000000
0.002963 0.136296 0.000000
0.077041 0.023701 0.000000
0.056296 0.157037 0.000000
0.032593 0.002963 0.000000
0.077037 0.080000 0.000000
0.002813 0.077135 0.000000
0.077037 0.142222 0.000000
0.017778 0.157037 0.000000
0.062222 0.002963 0.000000
0.076992 0.088722 0.000000
0.002945 0.020743 0.000000
0.017777 0.002962 0.000000
0.002801 0.068434 0.000000
0.002959 0.011851 0.000000
0.065186 0.157038 0.000000
0.002963 0.148148 0.000000
0.077037 0.011852 0.000000
0.076887 0.094740 0.000000
0.077092 0.115875 0.000000
0.002677 0.044265 0.000000
0.077038 0.148148 0.000000
0.002985 0.062165 0.000000
0.077037 0.047407 0.000000
0.011852 0.002963 0.000000
[...]
POINT_DATA 4677
SCALARS UX float 1
LOOKUP_TABLE default
-0.000000
0.000001
0.044548
-0.014859
-0.002433
-0.002016
-0.031003
0.038214
-0.049290
0.047467
-0.000000
-0.000000
-0.000000
-0.000000
-0.000000
-0.000000
-0.000000
-0.000000
-0.000000
-0.000000
-0.000000
-0.000000
-0.000000
0.000000
0.000000
0.000000
0.000000
0.000000
0.000000
0.000000
0.000000
0.000000
0.000000
0.000000
0.000000
-0.000000
0.003719
0.005778
0.007244
0.008475
0.009562
0.010571
0.011525
0.012459
0.013426
0.014460
0.015465
0.016715
0.018158
0.019713
0.021232
0.022971
0.025269
0.026268
0.027291
0.028548
0.030376
0.033906
0.038908
0.044499
0.049586
0.050496
0.050659
0.050252
0.049142
0.049099
0.048832
0.048499
0.047897
0.047144
0.046946
0.047270
0.047842
0.048814
0.050297
0.051985
0.052939
0.053118
0.052667
0.050860
0.047182
0.041774
0.040934
0.041368
0.038401
0.038848
0.040126
0.041248
0.042915
0.041865
0.039872
0.037218
0.035166
0.032173
0.029901
0.027439
0.025409
0.023512
0.021504
0.019147
0.016643
0.014163
0.012441
0.009310
0.006289
0.003626
0.001271
-0.000838
-0.002781
-0.004718
-0.006572
-0.008427
-0.010280
-0.011924
-0.013521
-0.014647
-0.014624
-0.014569
-0.014278
-0.014039
-0.013998
-0.014695
-0.016267
-0.018059
-0.020866
-0.025588
-0.028856
-0.031270
-0.032661
-0.032701
-0.032759
-0.032465
-0.032686
-0.032732
-0.032925
-0.033247
-0.033809
-0.034739
-0.035871
-0.036859
-0.038444
-0.039882
-0.041414
-0.043009
-0.044230
-0.045493
-0.046887
-0.048209
-0.049071
-0.049307
-0.049602
-0.049713
-0.049116
-0.047247
-0.044251
-0.040598
-0.037229
-0.031230
-0.028054
-0.025286
-0.022670
-0.019603
-0.016151
-0.013731
-0.012181
-0.010254
-0.008058
-0.005246
-0.003367
-0.005279
-0.006901
-0.007678
-0.008453
-0.008800
-0.008987
-0.014900
-0.010590
-0.006710
-0.013153
-0.011972
-0.014518
-0.019909
-0.020189
-0.021114
-0.021237
-0.022121
-0.020700
-0.022844
-0.027034
-0.028926
0.000552
0.001728
0.004846
0.002302
0.001959
0.004910
0.008836
0.013134
0.013856
0.014889
0.016596
0.010580
0.011697
0.016731
0.021720
0.022754
0.028891
0.030815
0.031924
0.033460
0.036652
0.036015
-0.001982
-0.002141
-0.001781
-0.001589
-0.001379
-0.001056
-0.001045
-0.001046
-0.001129
-0.001283
-0.001457
-0.001660
-0.001781
-0.001820
-0.001814
-0.001824
-0.001879
-0.001994
-0.002185
-0.002303
-0.002430
-0.002409
-0.002344
-0.002255
-0.002172
-0.002128
-0.030937
-0.032772
-0.033232
-0.033686
-0.034034
-0.034572
-0.035250
-0.035570
-0.036276
-0.036974
-0.037481
-0.037868
-0.038263
-0.038607
-0.039008
-0.039382
-0.039778
-0.040209
-0.040517
-0.040881
-0.041249
-0.041642
-0.041921
-0.042224
-0.042540
-0.042868
-0.043199
-0.043529
-0.043860
-0.044186
-0.044511
-0.044832
-0.045142
-0.045453
-0.045763
-0.046064
-0.046365
-0.046628
-0.046951
-0.047286
-0.047623
-0.047965
-0.048277
-0.048560
-0.048841
-0.049071
0.039473
0.039947
0.040291
0.040444
0.040490
0.040611
0.040692
0.040732
0.040766
0.040804
0.040843
0.040890
0.040939
0.041000
0.041080
0.041172
0.041282
0.041403
0.041534
0.041667
0.041794
0.041913
0.042030
0.042153
0.042280
0.042409
0.042536
0.042650
0.042788
0.042907
0.043120
0.043324
0.043521
0.043738
0.043907
0.044098
0.044289
0.044539
0.044861
0.045130
0.045400
0.045687
0.045996
0.046287
0.046585
0.046858
0.047150
-0.003536
0.007882
0.000044
0.016737
-0.028442
0.026596
-0.030381
-0.031591
0.049205
-0.027754
0.038443
-0.035225
-0.012894
0.010831
0.024634
-0.000080
0.048696
-0.040289
0.036493
-0.004690
0.000464
0.047456
-0.016177
-0.000430
-0.044091
-0.010224
0.031237
-0.012907
0.006806
0.046865
0.048680
-0.045769
0.036241
-0.046641
0.021881
-0.000770
0.035506
-0.011993
0.001130
-0.047348
0.045965
0.042258
0.013454
0.017848
-0.000136
-0.017904
0.012807
-0.000882
0.000279
0.040584
0.049630
-0.041688
-0.000516
0.049475
-0.037482
-0.048121
-0.041731
0.048093
-0.032937
-0.036934
0.030647
0.044991
0.025019
-0.031247
0.045754
-0.030382
-0.024603
-0.021708
0.018283
0.003340
0.038169
0.000143
0.000010
-0.021828
0.013956
-0.000022
-0.014140
-0.000221
0.026394
0.020426
-0.012237
0.008958
-0.008052
-0.000812
-0.004869
-0.008420
0.000736
0.038037
-0.001254
-0.002282
-0.013382
0.003688
-0.013399
0.001534
0.046921
-0.005835
-0.048608
-0.048730
0.046439
-0.007193
-0.000047
0.015510
0.039349
-0.021218
-0.035301
0.048238
0.019479
-0.014023
0.033452
-0.000494
-0.040600
-0.012290
-0.046342
0.046119
0.044750
0.023284
-0.007832
-0.001865
-0.003449
0.033699
-0.011840
0.002286
0.047798
-0.047989
0.046589
-0.045330
0.047424
-0.042922
-0.049138
0.047742
0.050547
-0.035178
0.047147
-0.038590
0.048105
-0.033813
-0.032134
0.034052
0.027732
-0.031423
-0.030997
0.025884
-0.030775
0.024164
0.046570
0.020077
-0.030020
0.010852
-0.025085
0.015261
0.005772
0.000088
0.015731
-0.019606
0.001144
0.000204
-0.000050
0.036408
-0.015440
0.011789
0.022417
-0.000114
-0.002807
0.000362
-0.011882
-0.000296
0.028984
-0.012504
0.009902
-0.000610
-0.012542
0.007943
0.033653
0.035031
-0.006597
0.000583
0.038439
0.038979
-0.010242
0.000916
-0.013229
0.005449
-0.048946
0.047204
0.046615
-0.046470
-0.048444
-0.001283
-0.005430
0.046178
-0.048399
0.047645
-0.037189
0.000865
0.000065
0.000815
0.025514
-0.030993
-0.029435
0.045238
-0.039746
0.005551
-0.002929
-0.041600
0.000401
0.010242
0.045956
-0.010444
-0.006593
0.045729
0.006332
-0.010993
0.001166
0.046617
-0.048129
0.043574
0.024523
-0.028608
0.022720
-0.027519
0.014995
-0.011867
0.027459
-0.000823
-0.001506
-0.011670
0.032280
0.035067
-0.048444
0.047127
-0.046205
0.046977
0.045529
-0.044353
0.046103
-0.037694
-0.047345
0.046461
0.046457
-0.029914
0.045378
-0.029454
-0.033104
-0.044186
0.029516
0.033330
-0.032535
0.014075
-0.000198
-0.000122
-0.019127
0.019137
0.017166
0.000151
0.000047
-0.033733
0.037270
0.017260
0.000972
0.021379
-0.020602
-0.017242
0.032153
0.032432
0.035118
0.010259
-0.016248
-0.000347
0.025549
-0.010235
-0.000630
0.008309
0.000724
-0.014198
-0.006132
-0.002259
0.036424
-0.010113
0.001752
0.003764
-0.023958
-0.008194
-0.005307
0.046236
-0.048007
-0.048563
0.047700
-0.049082
0.046504
-0.004992
0.001078
-0.000632
0.001278
-0.007990
-0.000253
0.016007
0.027485
-0.031284
0.014067
-0.017265
-0.020623
0.029588
0.044537
-0.000743
0.020295
-0.013601
-0.010178
-0.002663
-0.047474
0.046147
0.038581
0.001431
-0.040583
0.012849
-0.000001
0.027851
-0.001288
0.024166
0.030027
-0.011002
-0.009967
0.002703
-0.000042
-0.042706
0.045725
-0.025915
-0.045258
-0.029840
-0.039208
-0.031438
-0.030391
0.011379
0.027853
0.046833
0.025048
-0.028812
0.023501
0.040358
-0.028202
0.040646
0.045838
-0.032579
0.012337
-0.000262
0.003287
-0.010788
0.021030
0.000266
-0.001008
-0.015259
0.015975
0.012780
-0.024675
0.000554
-0.004754
0.031983
0.009257
-0.008318
-0.004288
0.007357
0.032916
0.029864
-0.001157
-0.010596
0.000921
0.007678
-0.008436
-0.011377
0.034284
0.005155
0.001434
-0.034598
0.044262
-0.043370
-0.009415
-0.047712
-0.009889
-0.001983
0.045715
-0.047077
0.046619
-0.004225
0.002703
0.045896
-0.048174
-0.047765
0.046067
0.046677
0.002243
0.002065
0.001856
-0.047744
-0.044909
-0.010589
0.003014
0.024211
-0.028319
-0.030194
-0.021320
0.040806
0.012986
-0.039114
-0.040628
0.000970
0.044761
-0.008785
0.000594
0.008768
-0.013490
-0.044324
-0.004956
-0.027378
0.001388
0.005892
0.021674
-0.000361
0.046005
0.009492
-0.025460
-0.020825
0.028863
-0.008518
-0.002165
0.003789
-0.008415
0.029632
-0.045918
0.044979
0.031394
-0.041181
-0.029518
-0.033885
-0.030173
-0.000512
0.025798
0.011138
-0.028362
0.017407
0.012262
-0.000140
-0.030336
0.040925
0.028896
-0.036985
0.044952
0.043257
0.018278
0.020854
0.027999
-0.017864
-0.009517
-0.001266
-0.000985
0.014166
-0.011916
0.022089
-0.001697
0.026653
0.000830
0.004892
0.026318
0.030160
-0.013664
0.007756
-0.006214
0.031146
-0.003296
0.000174
-0.009070
-0.009709
0.001724
0.002131
-0.034878
-0.006645
0.000827
0.003196
-0.047387
-0.047341
0.045815
0.045456
-0.008727
-0.047072
-0.011092
0.044977
-0.043733
0.001358
0.045899
0.044568
0.034732
0.036675
-0.043998
-0.046902
-0.000394
0.005290
0.046066
-0.003174
0.001272
0.014119
0.023977
-0.017035
-0.000252
0.040156
-0.036130
0.024696
0.042878
0.043617
0.018983
-0.008761
0.000203
-0.001239
-0.044848
0.025439
0.000782
0.007712
0.045460
0.022706
-0.007276
-0.008150
0.002854
-0.014980
0.010264
0.035029
0.025017
-0.002717
0.001853
-0.010229
-0.004846
0.002899
0.001231
0.044636
-0.029089
0.023236
0.000532
-0.018334
-0.000674
-0.028839
0.019183
0.024796
0.010651
0.038219
-0.027869
0.003699
-0.026954
-0.000051
-0.023789
0.024187
0.016596
-0.037501
0.044432
0.031775
-0.041626
0.030995
0.000367
0.042656
-0.031215
-0.011906
-0.030146
-0.013218
0.011418
-0.006888
0.006864
0.028695
-0.003150
0.006824
-0.001624
0.028514
0.001087
-0.008829
0.014849
-0.003308
0.026616
0.002874
0.004890
-0.009441
-0.006710
0.009861
0.044827
-0.046690
-0.008779
-0.043325
-0.045956
-0.002926
0.003615
-0.006664
-0.005630
-0.011191
-0.012054
-0.041519
0.000593
0.002228
0.003436
-0.028224
-0.040286
-0.035395
-0.046525
0.025743
0.023404
0.045578
0.046332
0.041892
-0.046789
-0.047369
0.044685
0.004275
0.045618
-0.047325
-0.025309
0.045311
0.045087
0.003985
-0.011075
0.005037
-0.026694
-0.028960
0.036080
0.010369
-0.012427
-0.037758
-0.000324
-0.018583
0.008960
-0.037651
0.042861
-0.001876
0.042411
-0.012161
0.021282
0.015849
-0.045000
-0.043300
-0.003394
0.044989
0.022789
0.029104
0.018673
0.006269
0.002045
0.023195
-0.025411
-0.008667
0.001931
0.000455
-0.003884
0.027207
0.005450
-0.040081
0.001466
-0.007303
0.003747
-0.007920
-0.009279
0.000621
-0.027547
-0.035552
-0.032349
-0.025821
0.021502
0.023661
-0.027625
-0.030189
0.009293
0.041887
-0.000471
-0.042550
0.024490
-0.021101
0.000174
-0.000938
-0.046176
-0.010288
0.034481
0.024702
0.045308
0.013882
-0.002085
-0.005567
0.024890
0.026173
0.015677
0.021064
0.001104
-0.007698
0.006366
0.027828
0.012578
-0.007598
0.044325
0.008540
-0.001585
0.002306
-0.003975
0.044605
-0.006651
-0.045971
0.043878
0.044819
0.045197
-0.003857
0.006817
-0.045910
-0.046942
0.026312
-0.043783
-0.007100
0.043637
0.004800
0.001779
-0.011144
0.005577
-0.012570
-0.013160
-0.027874
-0.000740
0.045075
0.002102
0.005612
0.044986
-0.047019
-0.021656
-0.046996
0.044525
0.005686
-0.046356
0.032492
-0.016681
0.007603
-0.012492
0.026836
0.006541
0.021122
0.023062
-0.027222
-0.026212
0.035339
-0.041122
0.000535
0.014350
0.001781
-0.006850
0.005368
0.006183
0.003655
0.001409
-0.045159
-0.045905
-0.027402
-0.013132
0.007397
-0.019359
-0.016677
0.019706
0.014113
0.024821
-0.003129
0.023986
0.022330
-0.006109
-0.001728
-0.012262
-0.026915
-0.027095
-0.002180
-0.025888
-0.016374
-0.000756
-0.001377
0.044889
0.020442
-0.041869
-0.040669
0.039687
0.001078
-0.046797
0.008030
0.004599
-0.030536
0.022581
-0.042530
0.004070
0.016955
-0.010665
-0.033574
0.021493
-0.002449
-0.009512
0.024327
-0.046119
-0.044597
-0.029805
0.043321
0.042976
-0.004629
-0.038724
0.012137
-0.007109
-0.006197
0.017926
0.012379
0.010051
-0.006464
0.025697
0.002952
0.004665
0.044885
-0.005066
-0.005932
0.001852
-0.023685
0.024938
0.044014
-0.000092
-0.009826
0.044623
0.042931
0.004062
-0.046504
0.039381
0.021722
0.044565
-0.045757
0.006811
-0.003646
-0.008984
-0.013219
-0.036461
0.011533
-0.013760
-0.044071
0.002981
0.044290
0.044236
-0.046602
-0.006272
0.022442
0.030410
-0.026331
0.006199
-0.000569
0.044280
0.007114
0.044056
0.007568
-0.045638
0.024591
-0.012296
0.011715
0.006750
-0.026762
-0.028276
-0.000663
-0.036743
0.007686
0.039793
-0.040558
0.043632
0.018608
-0.003393
-0.005270
-0.010866
-0.025999
0.009136
-0.043812
-0.044397
0.044177
-0.045502
0.020329
-0.023099
-0.033634
0.001714
0.005030
0.003265
-0.026414
0.022987
-0.030790
0.004528
-0.004743
0.019565
-0.014102
-0.042434
0.044245
0.042948
-0.045512
-0.005995
0.006231
-0.022427
-0.037423
0.022890
0.015832
-0.020569
0.015354
0.038482
0.005862
-0.039024
-0.009077
-0.005032
0.023135
-0.001060
0.028013
-0.008740
0.021779
0.000157
0.003722
0.021683
-0.007531
0.000962
-0.003388
-0.025271
0.012769
0.002342
0.000079
-0.046275
-0.005955
0.011145
-0.016825
0.041275
-0.026383
-0.026537
-0.002018
-0.004759
-0.005014
-0.005822
0.022726
-0.032354
-0.007912
0.040116
0.020946
-0.027166
0.044723
0.023437
0.006335
-0.011501
-0.014131
-0.001063
0.002924
-0.010973
0.000582
0.042770
0.007624
0.043831
-0.006614
0.044034
0.043833
0.006948
-0.013914
0.044576
-0.000399
-0.041462
-0.003507
0.013019
-0.045940
-0.047304
-0.027233
0.045080
0.007156
-0.024530
-0.009670
-0.045377
-0.045489
-0.014978
0.035161
0.005899
-0.045325
0.011249
-0.042984
0.044512
0.044031
-0.012334
-0.014963
0.006806
0.008179
0.020166
-0.024858
-0.026893
0.024832
-0.001043
-0.008226
0.041320
0.043885
-0.043454
0.011853
-0.040655
0.003278
-0.003711
-0.000062
0.012852
0.021338
-0.044277
-0.009408
0.017326
-0.022951
-0.012047
0.016036
-0.008342
-0.016443
0.005065
0.005624
-0.025935
-0.006382
0.000199
0.003596
-0.003267
-0.004386
0.001166
-0.006053
0.044341
0.019081
-0.001500
-0.015164
0.043702
0.021440
0.020902
0.035627
0.018509
0.043251
0.041723
0.006432
-0.044829
0.011524
0.021280
-0.034981
-0.043020
-0.004285
-0.027585
-0.039695
0.043909
-0.026401
-0.045357
-0.029177
-0.000137
0.021510
-0.031964
0.002263
0.019363
-0.044941
-0.004482
-0.037701
0.044699
-0.025492
0.007825
0.007530
-0.007253
0.010453
0.008549
0.013330
-0.026076
-0.002661
-0.023263
-0.017544
0.021853
0.002910
0.021081
0.002137
0.000546
0.038788
-0.024902
0.036568
-0.045820
-0.045279
-0.006413
-0.011472
0.019724
-0.002440
0.002817
-0.014800
-0.001025
0.043927
0.042594
0.010464
-0.045389
0.043545
-0.013622
-0.041420
0.007547
-0.026354
-0.013656
0.043954
0.005453
0.029925
-0.010323
-0.040956
0.008251
-0.045156
0.045325
0.043641
-0.003523
0.014052
-0.032379
-0.047177
0.007431
0.044170
-0.020011
-0.020584
0.019323
-0.013029
-0.020525
0.009217
0.007872
-0.025655
-0.027238
-0.035210
0.011293
0.039117
0.006882
0.040776
-0.042302
0.043169
0.016788
0.002397
-0.024811
-0.002757
0.044439
0.004456
-0.020576
-0.015506
-0.038019
0.006686
-0.025330
-0.044697
-0.011957
-0.009448
0.001368
-0.000202
0.002907
-0.010849
-0.045681
-0.025392
0.006236
0.014096
0.018849
-0.024326
0.043879
-0.005115
-0.031744
-0.039537
0.043617
-0.044087
0.020735
0.030164
-0.023880
-0.030266
0.005713
0.020025
-0.007839
-0.018019
-0.027726
0.035458
0.032316
-0.000593
0.004140
-0.002909
0.009745
0.043343
0.020872
-0.001583
-0.004317
0.044187
0.000651
0.015174
0.001549
0.041512
0.018006
0.009417
-0.015735
-0.003530
0.006016
0.019582
-0.003212
0.010197
0.019453
-0.005897
0.019525
-0.044830
-0.012883
-0.025494
-0.001492
-0.046332
-0.006053
-0.005590
0.006809
0.000665
0.006182
-0.014794
-0.044913
-0.044816
-0.014925
0.045090
-0.023821
-0.011145
0.012406
-0.038240
-0.009566
0.009140
0.023933
0.043653
0.018860
-0.013566
-0.044513
0.003994
0.045394
0.022629
0.019874
0.043507
0.006970
0.008824
-0.000260
0.043455
-0.005504
-0.025129
0.007796
-0.017038
0.016928
-0.043381
-0.042095
0.043611
-0.003195
0.015747
-0.018505
0.018983
0.008973
0.010091
0.019032
-0.012872
-0.024021
0.029425
0.019468
0.036427
-0.040638
-0.000743
-0.002642
0.005353
0.044099
0.015203
0.004120
0.043701
-0.003523
-0.009804
-0.024269
-0.041530
0.017180
0.043996
0.038742
-0.042656
-0.026440
0.008999
0.009835
-0.044459
0.001706
-0.001490
0.007895
0.000747
-0.024473
-0.014028
0.044462
-0.005915
0.016766
0.017048
-0.029940
0.043095
-0.015340
0.042826
0.031075
-0.036383
-0.032902
-0.043267
0.005018
-0.010292
0.008099
-0.045626
-0.028690
0.043560
-0.044227
0.003532
-0.024200
0.003558
0.002033
0.027651
-0.001361
0.010918
0.000018
0.010806
0.045448
0.017547
-0.003086
0.021367
0.040183
-0.005072
-0.038782
-0.004338
0.012887
0.008846
0.000228
-0.024961
0.018541
0.005350
-0.023840
-0.022281
-0.002178
0.016975
-0.008408
0.019389
-0.024772
0.018121
-0.002065
0.016511
-0.016389
0.001543
0.007284
0.009118
0.017898
0.004628
0.015411
0.042619
-0.007238
-0.005947
-0.005621
-0.014566
-0.009268
-0.012968
-0.045108
0.043312
0.043142
-0.014427
-0.002032
0.002847
-0.021006
0.009824
-0.033783
0.009694
-0.015602
0.018278
0.043476
-0.043784
-0.011932
-0.006355
-0.044619
0.042146
0.014116
0.015858
0.043341
-0.018073
-0.037073
0.017354
-0.044401
-0.040032
-0.044393
0.003237
-0.046411
0.019342
0.006834
0.008226
-0.013787
0.017477
-0.018913
-0.025203
0.009712
-0.023025
-0.013104
-0.028757
0.033140
-0.035060
0.039298
-0.001721
-0.038650
0.043213
0.009153
0.043574
-0.001717
-0.040097
-0.023137
0.004407
0.043994
-0.008767
0.042526
0.000792
0.014772
0.042961
0.002514
-0.001797
-0.043041
0.001702
-0.003234
-0.044165
0.006245
-0.002034
-0.008514
0.006822
0.015326
0.011914
0.015264
-0.044251
0.010664
-0.028181
0.013835
0.003978
-0.010907
0.035743
0.044870
0.002759
-0.037933
-0.005333
-0.001690
-0.027297
-0.004490
0.038002
0.022279
-0.004108
0.000134
0.025273
0.017845
0.010797
0.006407
0.008166
-0.024463
-0.024448
-0.021901
0.043864
0.006133
0.008261
-0.002719
-0.023294
-0.024477
0.017219
-0.008175
-0.016775
-0.011141
0.019195
0.004519
0.015798
-0.043773
-0.044098
-0.020190
0.005744
0.016667
-0.037873
-0.037073
0.015662
0.016251
-0.012203
-0.000295
-0.014550
-0.023748
-0.014221
0.003135
0.041682
0.008251
-0.004319
0.018162
-0.006274
0.020303
-0.008114
0.014179
0.010613
0.019336
-0.004513
-0.008918
0.043210
-0.015531
0.000640
-0.014928
0.006024
0.044932
0.044597
0.010327
-0.015928
0.042558
0.043115
-0.044670
0.042854
-0.012428
0.008545
-0.045111
-0.024486
0.000448
0.005579
0.011150
0.012243
0.043041
0.007248
0.042607
0.004859
-0.042089
-0.012330
-0.044108
-0.007219
-0.044070
0.016379
-0.031109
-0.042032
-0.043552
0.026164
0.007474
0.014434
-0.011491
0.015610
0.021473
-0.024215
0.010525
-0.025486
0.024301
0.035161
0.017929
0.009602
-0.037045
0.004912
0.041858
0.043036
0.005028
0.043602
-0.010332
-0.016963
-0.029466
-0.013970
0.002126
-0.022689
0.002837
0.044026
-0.019681
-0.022013
-0.003427
-0.011332
0.017511
-0.041396
-0.005686
-0.033652
-0.042465
0.016028
0.007117
0.009240
0.003883
0.007484
0.044380
0.011442
0.013194
0.014584
-0.014292
-0.023372
0.043500
-0.026399
-0.032535
0.043665
-0.022741
-0.002455
-0.006127
0.013540
-0.000251
0.000642
-0.039301
0.002949
0.013675
0.001507
0.010194
-0.043551
-0.002276
0.016895
0.017592
0.014928
-0.023784
-0.023087
0.043529
-0.007344
0.029119
0.041299
-0.009345
0.007291
0.017330
0.011488
0.036556
0.009383
0.000215
0.015451
-0.004267
0.003991
-0.004425
-0.015338
-0.017103
0.043614
0.014285
-0.001246
-0.032383
-0.001150
0.016014
-0.012917
0.020702
0.015608
0.004765
0.040669
0.019130
-0.009173
0.007789
-0.008809
0.012319
0.005121
-0.015280
-0.005651
-0.044610
-0.043851
-0.036208
-0.011493
-0.004182
-0.001901
0.020068
0.002942
-0.012964
0.044333
-0.015985
0.037286
0.042472
0.011006
0.003237
-0.021488
-0.015598
-0.040569
-0.040836
0.007502
0.010718
-0.042840
0.042860
0.042921
0.042785
0.042782
-0.043264
0.005856
-0.043453
-0.000604
0.013489
-0.043787
-0.043963
0.043473
0.013539
-0.019234
0.024934
-0.003977
-0.028658
0.016102
0.020887
-0.033629
0.040651
0.003814
0.041070
-0.004018
0.003622
-0.001413
-0.039327
0.043342
0.043253
0.012418
0.043885
0.042510
-0.021969
-0.019928
-0.030577
-0.010662
0.033195
0.006510
-0.002177
0.042531
0.000064
0.001834
-0.042923
0.007897
0.011847
-0.040523
-0.008889
-0.007530
-0.013416
0.015753
0.013241
0.010445
0.015405
-0.042657
-0.002770
-0.001100
0.031878
0.013418
0.010598
-0.037811
0.042247
-0.027243
0.043757
-0.043315
-0.023344
0.003757
0.027665
0.036401
0.005767
0.015775
0.037812
-0.021944
0.043002
-0.023360
0.039325
-0.000574
0.042311
0.016623
0.043381
0.001809
0.006016
-0.022287
0.008913
-0.015661
-0.000998
-0.013527
-0.011273
0.003370
-0.018185
-0.043557
0.013775
0.014609
-0.017495
-0.005365
0.019590
0.016203
0.043641
0.008545
0.011226
0.006552
0.001134
0.043837
0.017902
0.011478
-0.015173
-0.007082
0.000027
-0.009429
0.021464
-0.036138
0.016081
-0.006344
-0.038754
0.008500
0.043388
0.003368
0.009873
-0.015963
-0.011083
0.041906
-0.022921
-0.044234
-0.003026
0.010180
0.006467
0.001565
-0.021151
0.043299
-0.016109
-0.011967
-0.041926
-0.015228
-0.024905
-0.004083
0.019997
-0.041862
0.011923
-0.043085
-0.043424
0.042617
0.042666
0.013052
-0.033934
-0.012100
-0.013438
0.014591
0.004732
0.015449
-0.023795
0.034115
0.013889
-0.043380
-0.016769
0.013710
-0.012667