# vtk DataFile Version 2.0
Test
ASCII
DATASET POLYDATA
POINTS 4677 float
0.000000 0.000000 0.000000
0.080000 0.000000 0.000000
0.080000 0.160000 0.000000
0.000000 0.160000 0.000000
0.036000 0.073072 0.000000
0.044000 0.086928 0.000000
0.024500 0.065566 0.000000
0.055500 0.093560 0.000000
0.001000 0.050000 0.000000
0.079000 0.110000 0.000000
0.002963 0.000000 0.000000
0.005926 0.000000 0.000000
0.008889 0.000000 0.000000
0.011852 0.000000 0.000000
0.014815 0.000000 0.000000
0.017778 0.000000 0.000000
0.020741 0.000000 0.000000
0.023704 0.000000 0.000000
0.026667 0.000000 0.000000
0.029630 0.000000 0.000000
0.032593 0.000000 0.000000
0.035556 0.000000 0.000000
0.038519 0.000000 0.000000
0.041481 0.000000 0.000000
0.044444 0.000000 0.000000
0.047407 0.000000 0.000000
0.050370 0.000000 0.000000
0.053333 0.000000 0.000000
0.056296 0.000000 0.000000
0.059259 0.000000 0.000000
0.062222 0.000000 0.000000
0.065185 0.000000 0.000000
0.068148 0.000000 0.000000
0.071111 0.000000 0.000000
0.074074 0.000000 0.000000
0.077037 0.000000 0.000000
0.080000 0.002963 0.000000
0.080000 0.005926 0.000000
0.080000 0.008889 0.000000
0.080000 0.011852 0.000000
0.080000 0.014815 0.000000
0.080000 0.017778 0.000000
0.080000 0.020741 0.000000
0.080000 0.023704 0.000000
0.080000 0.026667 0.000000
0.080000 0.029630 0.000000
0.080000 0.032593 0.000000
0.080000 0.035556 0.000000
0.080000 0.038519 0.000000
0.080000 0.041481 0.000000
0.080000 0.044444 0.000000
0.080000 0.047407 0.000000
0.080000 0.050370 0.000000
0.080000 0.053333 0.000000
0.080000 0.056296 0.000000
0.080000 0.059259 0.000000
0.080000 0.062222 0.000000
0.080000 0.065185 0.000000
0.080000 0.068148 0.000000
0.080000 0.071111 0.000000
0.080000 0.074074 0.000000
0.080000 0.077037 0.000000
0.080000 0.080000 0.000000
0.080000 0.082963 0.000000
0.080000 0.085926 0.000000
0.080000 0.088889 0.000000
0.080000 0.091852 0.000000
0.080000 0.094815 0.000000
0.080000 0.097778 0.000000
0.080000 0.100741 0.000000
0.080000 0.103704 0.000000
0.080000 0.106667 0.000000
0.080000 0.109630 0.000000
0.080000 0.112593 0.000000
0.080000 0.115556 0.000000
0.080000 0.118519 0.000000
0.080000 0.121481 0.000000
0.080000 0.124444 0.000000
0.080000 0.127407 0.000000
0.080000 0.130370 0.000000
0.080000 0.133333 0.000000
0.080000 0.136296 0.000000
0.080000 0.139259 0.000000
0.080000 0.142222 0.000000
0.080000 0.145185 0.000000
0.080000 0.148148 0.000000
0.080000 0.151111 0.000000
0.080000 0.154074 0.000000
0.080000 0.157037 0.000000
0.077037 0.160000 0.000000
0.074074 0.160000 0.000000
0.071111 0.160000 0.000000
0.068148 0.160000 0.000000
0.065185 0.160000 0.000000
0.062222 0.160000 0.000000
0.059259 0.160000 0.000000
0.056296 0.160000 0.000000
0.053333 0.160000 0.000000
0.050370 0.160000 0.000000
0.047407 0.160000 0.000000
0.044444 0.160000 0.000000
0.041481 0.160000 0.000000
0.038519 0.160000 0.000000
0.035556 0.160000 0.000000
0.032593 0.160000 0.000000
0.029630 0.160000 0.000000
0.026667 0.160000 0.000000
0.023704 0.160000 0.000000
0.020741 0.160000 0.000000
0.017778 0.160000 0.000000
0.014815 0.160000 0.000000
0.011852 0.160000 0.000000
0.008889 0.160000 0.000000
0.005926 0.160000 0.000000
0.002963 0.160000 0.000000
0.000000 0.157037 0.000000
0.000000 0.154074 0.000000
0.000000 0.151111 0.000000
0.000000 0.148148 0.000000
0.000000 0.145185 0.000000
0.000000 0.142222 0.000000
0.000000 0.139259 0.000000
0.000000 0.136296 0.000000
0.000000 0.133333 0.000000
0.000000 0.130370 0.000000
0.000000 0.127407 0.000000
0.000000 0.124444 0.000000
0.000000 0.121481 0.000000
0.000000 0.118519 0.000000
0.000000 0.115556 0.000000
0.000000 0.112593 0.000000
0.000000 0.109630 0.000000
0.000000 0.106667 0.000000
0.000000 0.103704 0.000000
0.000000 0.100741 0.000000
0.000000 0.097778 0.000000
0.000000 0.094815 0.000000
0.000000 0.091852 0.000000
0.000000 0.088889 0.000000
0.000000 0.085926 0.000000
0.000000 0.082963 0.000000
0.000000 0.080000 0.000000
0.000000 0.077037 0.000000
0.000000 0.074074 0.000000
0.000000 0.071111 0.000000
0.000000 0.068148 0.000000
0.000000 0.065185 0.000000
0.000000 0.062222 0.000000
0.000000 0.059259 0.000000
0.000000 0.056296 0.000000
0.000000 0.053333 0.000000
0.000000 0.050370 0.000000
0.000000 0.047407 0.000000
0.000000 0.044444 0.000000
0.000000 0.041481 0.000000
0.000000 0.038519 0.000000
0.000000 0.035556 0.000000
0.000000 0.032593 0.000000
0.000000 0.029630 0.000000
0.000000 0.026667 0.000000
0.000000 0.023704 0.000000
0.000000 0.020741 0.000000
0.000000 0.017778 0.000000
0.000000 0.014815 0.000000
0.000000 0.011852 0.000000
0.000000 0.008889 0.000000
0.000000 0.005926 0.000000
0.000000 0.002963 0.000000
0.035500 0.072746 0.000000
0.035000 0.072419 0.000000
0.034500 0.072093 0.000000
0.034000 0.071767 0.000000
0.033500 0.071440 0.000000
0.033000 0.071114 0.000000
0.032500 0.070788 0.000000
0.032000 0.070461 0.000000
0.031500 0.070135 0.000000
0.031000 0.069809 0.000000
0.030500 0.069482 0.000000
0.030000 0.069156 0.000000
0.029500 0.068829 0.000000
0.029000 0.068503 0.000000
0.028500 0.068177 0.000000
0.028000 0.067850 0.000000
0.027500 0.067524 0.000000
0.027000 0.067198 0.000000
0.026500 0.066871 0.000000
0.026000 0.066545 0.000000
0.025500 0.066219 0.000000
0.025000 0.065892 0.000000
0.044500 0.087216 0.000000
0.045000 0.087505 0.000000
0.045500 0.087793 0.000000
0.046000 0.088081 0.000000
0.046500 0.088370 0.000000
0.047000 0.088658 0.000000
0.047500 0.088946 0.000000
0.048000 0.089235 0.000000
0.048500 0.089523 0.000000
0.049000 0.089811 0.000000
0.049500 0.090100 0.000000
0.050000 0.090388 0.000000
0.050500 0.090677 0.000000
0.051000 0.090965 0.000000
0.051500 0.091253 0.000000
0.052000 0.091542 0.000000
0.052500 0.091830 0.000000
0.053000 0.092118 0.000000
0.053500 0.092407 0.000000
0.054000 0.092695 0.000000
0.054500 0.092983 0.000000
0.055000 0.093272 0.000000
0.043704 0.086415 0.000000
0.043407 0.085902 0.000000
0.043111 0.085388 0.000000
0.042815 0.084875 0.000000
0.042519 0.084362 0.000000
0.042222 0.083849 0.000000
0.041926 0.083336 0.000000
0.041630 0.082823 0.000000
0.041333 0.082309 0.000000
0.041037 0.081796 0.000000
0.040741 0.081283 0.000000
0.040444 0.080770 0.000000
0.040148 0.080257 0.000000
0.039852 0.079743 0.000000
0.039556 0.079230 0.000000
0.039259 0.078717 0.000000
0.038963 0.078204 0.000000
0.038667 0.077691 0.000000
0.038370 0.077177 0.000000
0.038074 0.076664 0.000000
0.037778 0.076151 0.000000
0.037481 0.075638 0.000000
0.037185 0.075125 0.000000
0.036889 0.074612 0.000000
0.036593 0.074098 0.000000
0.036296 0.073585 0.000000
0.024000 0.065235 0.000000
0.023500 0.064904 0.000000
0.023000 0.064572 0.000000
0.022500 0.064241 0.000000
0.022000 0.063910 0.000000
0.021500 0.063579 0.000000
0.021000 0.063248 0.000000
0.020500 0.062916 0.000000
0.020000 0.062585 0.000000
0.019500 0.062254 0.000000
0.019000 0.061923 0.000000
0.018500 0.061592 0.000000
0.018000 0.061261 0.000000
0.017500 0.060929 0.000000
0.017000 0.060598 0.000000
0.016500 0.060267 0.000000
0.016000 0.059936 0.000000
0.015500 0.059605 0.000000
0.015000 0.059273 0.000000
0.014500 0.058942 0.000000
0.014000 0.058611 0.000000
0.013500 0.058280 0.000000
0.013000 0.057949 0.000000
0.012500 0.057617 0.000000
0.012000 0.057286 0.000000
0.011500 0.056955 0.000000
0.011000 0.056624 0.000000
0.010500 0.056293 0.000000
0.010000 0.055961 0.000000
0.009500 0.055630 0.000000
0.009000 0.055299 0.000000
0.008500 0.054968 0.000000
0.008000 0.054637 0.000000
0.007500 0.054305 0.000000
0.007000 0.053974 0.000000
0.006500 0.053643 0.000000
0.006000 0.053312 0.000000
0.005500 0.052981 0.000000
0.005000 0.052650 0.000000
0.004500 0.052318 0.000000
0.004000 0.051987 0.000000
0.003500 0.051656 0.000000
0.003000 0.051325 0.000000
0.002500 0.050994 0.000000
0.002000 0.050662 0.000000
0.001500 0.050331 0.000000
0.055990 0.093902 0.000000
0.056479 0.094245 0.000000
0.056969 0.094587 0.000000
0.057458 0.094930 0.000000
0.057948 0.095272 0.000000
0.058437 0.095615 0.000000
0.058927 0.095957 0.000000
0.059417 0.096300 0.000000
0.059906 0.096642 0.000000
0.060396 0.096985 0.000000
0.060885 0.097327 0.000000
0.061375 0.097670 0.000000
0.061865 0.098012 0.000000
0.062354 0.098355 0.000000
0.062844 0.098697 0.000000
0.063333 0.099040 0.000000
0.063823 0.099382 0.000000
0.064312 0.099725 0.000000
0.064802 0.100067 0.000000
0.065292 0.100410 0.000000
0.065781 0.100752 0.000000
0.066271 0.101095 0.000000
0.066760 0.101437 0.000000
0.067250 0.101780 0.000000
0.067740 0.102122 0.000000
0.068229 0.102465 0.000000
0.068719 0.102807 0.000000
0.069208 0.103150 0.000000
0.069698 0.103492 0.000000
0.070187 0.103835 0.000000
0.070677 0.104177 0.000000
0.071167 0.104520 0.000000
0.071656 0.104862 0.000000
0.072146 0.105205 0.000000
0.072635 0.105547 0.000000
0.073125 0.105890 0.000000
0.073615 0.106232 0.000000
0.074104 0.106575 0.000000
0.074594 0.106917 0.000000
0.075083 0.107260 0.000000
0.075573 0.107602 0.000000
0.076062 0.107945 0.000000
0.076552 0.108287 0.000000
0.077042 0.108630 0.000000
0.077531 0.108972 0.000000
0.078021 0.109315 0.000000
0.078510 0.109658 0.000000
0.043942 0.087469 0.000000
0.035556 0.157037 0.000000
0.044420 0.002920 0.000000
0.077037 0.038519 0.000000
0.002963 0.121481 0.000000
0.077037 0.059259 0.000000
0.002963 0.109630 0.000000
0.002923 0.098139 0.000000
0.077153 0.126913 0.000000
0.002808 0.032596 0.000000
0.077140 0.071061 0.000000
0.002963 0.085926 0.000000
0.002963 0.136296 0.000000
0.077041 0.023701 0.000000
0.056296 0.157037 0.000000
0.032593 0.002963 0.000000
0.077037 0.080000 0.000000
0.002813 0.077135 0.000000
0.077037 0.142222 0.000000
0.017778 0.157037 0.000000
0.062222 0.002963 0.000000
0.076992 0.088722 0.000000
0.002945 0.020743 0.000000
0.017777 0.002962 0.000000
0.002801 0.068434 0.000000
0.002959 0.011851 0.000000
0.065186 0.157038 0.000000
0.002963 0.148148 0.000000
0.077037 0.011852 0.000000
0.076887 0.094740 0.000000
0.077092 0.115875 0.000000
0.002677 0.044265 0.000000
0.077038 0.148148 0.000000
0.002985 0.062165 0.000000
0.077037 0.047407 0.000000
0.011852 0.002963 0.000000
[...]
POINT_DATA 4677
SCALARS UX float 1
LOOKUP_TABLE default
-0.000000
0.000000
0.068384
0.027479
0.016667
0.021544
-0.016670
0.043665
-0.027297
0.062457
-0.000000
-0.000000
-0.000000
-0.000000
-0.000000
-0.000000
-0.000000
-0.000000
-0.000000
-0.000000
-0.000000
-0.000000
-0.000000
0.000000
0.000000
0.000000
0.000000
0.000000
0.000000
0.000000
0.000000
0.000000
0.000000
0.000000
0.000000
-0.000000
0.003585
0.005623
0.007266
0.008815
0.010353
0.012021
0.013853
0.015837
0.017947
0.020189
0.022465
0.025007
0.027769
0.030880
0.034046
0.037004
0.039023
0.040714
0.042177
0.043178
0.044352
0.045555
0.046539
0.050077
0.052424
0.056640
0.056533
0.058309
0.059391
0.060339
0.060869
0.060981
0.061017
0.060699
0.061043
0.061989
0.063105
0.063378
0.063404
0.063043
0.062517
0.062251
0.060823
0.060806
0.061178
0.061187
0.060949
0.061283
0.062254
0.063222
0.064750
0.066087
0.067214
0.066572
0.065285
0.063369
0.062027
0.060360
0.059161
0.057721
0.056773
0.054886
0.053078
0.051939
0.050133
0.049245
0.048032
0.045978
0.044744
0.043288
0.041238
0.039971
0.037954
0.036488
0.034841
0.033871
0.032450
0.030507
0.029265
0.026571
0.026018
0.024775
0.023463
0.022340
0.021444
0.019795
0.018098
0.016123
0.014156
0.012281
0.010818
0.008291
0.005474
0.003778
0.002821
0.002303
0.001639
0.001210
-0.000833
-0.003644
-0.006817
-0.010574
-0.015503
-0.021804
-0.027292
-0.029850
-0.029367
-0.028572
-0.028514
-0.028086
-0.027417
-0.027486
-0.027886
-0.028058
-0.028028
-0.027724
-0.027397
-0.026939
-0.025966
-0.025578
-0.023915
-0.022760
-0.021438
-0.019449
-0.016962
-0.015548
-0.013820
-0.012500
-0.011597
-0.010145
-0.007901
-0.004619
0.016629
0.015418
0.013927
0.013081
0.012239
0.011070
0.011424
0.010529
0.009495
0.003339
-0.000051
-0.000491
-0.002511
-0.004569
-0.007028
-0.007182
-0.008549
-0.010843
-0.013089
-0.016192
-0.016487
-0.016373
0.022361
0.020833
0.023540
0.024064
0.025957
0.029337
0.031627
0.028934
0.028847
0.027677
0.026842
0.023405
0.023669
0.028334
0.030032
0.033028
0.037364
0.037425
0.037857
0.039884
0.042945
0.044806
0.020893
0.020227
0.019934
0.019840
0.019848
0.019937
0.019838
0.019713
0.019661
0.019637
0.019626
0.019560
0.019314
0.019146
0.018977
0.018873
0.018619
0.018369
0.018095
0.017822
0.017608
0.017421
0.017174
0.017019
0.016822
0.016632
-0.016651
-0.016983
-0.017369
-0.017633
-0.017895
-0.018152
-0.018398
-0.018662
-0.018904
-0.019142
-0.019417
-0.019664
-0.019838
-0.020023
-0.020280
-0.020543
-0.020804
-0.021096
-0.021312
-0.021546
-0.021767
-0.022017
-0.022251
-0.022528
-0.022794
-0.023049
-0.023334
-0.023567
-0.023825
-0.024050
-0.024290
-0.024499
-0.024712
-0.024920
-0.025098
-0.025319
-0.025549
-0.025745
-0.025946
-0.026133
-0.026315
-0.026440
-0.026654
-0.026808
-0.026966
-0.027125
0.043357
0.044078
0.044750
0.044838
0.044637
0.044519
0.044129
0.044389
0.044706
0.045453
0.046029
0.046374
0.047109
0.047783
0.048457
0.049061
0.049751
0.050419
0.051023
0.051349
0.051726
0.052072
0.052242
0.052730
0.053248
0.053712
0.054045
0.054336
0.054592
0.054759
0.055183
0.055626
0.056040
0.056464
0.056860
0.057252
0.057659
0.058103
0.058574
0.059016
0.059400
0.059849
0.060349
0.060744
0.061212
0.061666
0.062074
0.020245
0.044930
0.000140
0.026353
0.010105
0.042059
0.004130
-0.000309
0.058641
-0.021230
0.047189
-0.018991
0.019693
0.013375
0.055616
-0.000064
0.054196
-0.026745
0.059551
0.035612
0.000272
0.058259
-0.013415
-0.000287
-0.026387
-0.010020
0.059287
0.025002
0.006747
0.058826
0.060352
-0.025674
0.061995
-0.026315
0.035987
-0.000630
0.062518
0.029425
0.000800
-0.026399
0.059003
0.058681
0.048088
0.051094
-0.000198
0.016118
0.017771
0.038875
0.000223
0.065730
0.060010
-0.024781
0.021186
0.059217
-0.024074
-0.027105
-0.026883
0.056157
-0.006128
-0.024003
0.043922
0.048979
0.039805
0.002902
0.059474
0.005609
-0.019438
-0.017322
0.029699
0.042114
0.058794
0.000196
0.000113
0.014488
0.020337
0.000060
-0.012322
-0.000317
0.056650
0.052198
0.022839
0.009814
-0.008103
-0.000860
-0.004392
0.033092
0.000437
0.063320
-0.000847
-0.002043
0.027318
0.003294
0.028146
0.001270
0.061511
0.019553
-0.026768
-0.026992
0.061052
0.019057
0.000166
0.024953
0.044119
-0.017676
-0.019638
0.057379
0.051156
0.018352
0.056950
-0.000465
-0.023741
-0.011016
-0.025612
0.051955
0.057608
0.054351
-0.007508
-0.001826
-0.003088
0.060504
0.028705
0.001770
0.061532
-0.026495
0.059139
-0.026261
0.058944
-0.026662
-0.027229
0.057543
0.059369
-0.022687
0.062074
-0.027523
0.053733
-0.010331
-0.002826
0.045014
0.042985
0.001410
0.003514
0.041231
0.004519
0.038008
0.058413
0.033165
0.007655
0.046760
0.012870
0.023189
0.043738
0.000172
0.049147
-0.015153
0.040248
0.000208
0.000003
0.058928
0.017907
0.015486
0.053801
-0.000139
0.037068
0.000240
-0.010848
-0.000374
0.058407
0.021111
0.011456
-0.000565
0.024007
0.008246
0.061095
0.060778
0.033989
0.000321
0.064312
0.064665
0.031294
0.000603
0.026132
0.005109
-0.026996
0.062029
0.061078
-0.025735
-0.026699
0.021377
0.018946
0.060516
-0.027058
0.057237
-0.023466
0.022018
0.022293
0.022287
0.041383
0.000011
0.004909
0.055299
-0.022765
0.042371
0.036318
-0.025150
0.000437
0.013144
0.056780
0.023047
0.033403
0.057694
0.006242
0.025522
0.000774
0.060789
-0.026460
0.056653
0.039599
0.006497
0.036751
0.010064
0.048213
0.019988
0.057219
-0.000921
-0.001609
0.027771
0.059835
0.061875
-0.026671
0.061381
-0.025427
0.059212
0.051144
-0.025016
0.056869
-0.024247
-0.026357
0.055987
0.053686
0.003683
0.059369
-0.020797
-0.022105
-0.024619
0.042672
0.043355
-0.007962
0.021670
-0.000050
0.000068
-0.015885
0.032034
0.028645
0.000338
0.000266
-0.013536
0.055836
0.050136
0.039387
0.052825
0.014366
0.016013
0.057150
0.059253
0.056432
0.045611
-0.013674
-0.000297
0.055656
-0.009395
-0.000703
0.009362
0.000539
-0.012078
-0.005876
-0.002483
0.063049
0.030382
0.001206
0.003216
-0.018797
0.018285
0.020469
0.060484
-0.026404
-0.026878
0.062514
-0.027152
0.061195
0.019029
0.022217
0.021380
0.022227
0.019037
0.000067
0.026312
0.040136
-0.004130
0.047635
0.016800
-0.016843
0.053958
0.050977
-0.000576
0.052032
-0.012288
-0.008996
-0.002333
-0.026068
0.059870
0.054107
0.023662
-0.024887
0.018899
0.000351
0.054860
-0.001067
0.054620
0.057702
0.020232
0.029327
0.002087
0.021335
-0.025066
0.057010
-0.019117
-0.025211
0.004515
-0.024534
-0.002950
0.001433
0.015627
0.042296
0.058002
0.040457
0.005460
0.038275
0.045923
0.007939
0.055681
0.055956
-0.010746
0.046712
-0.000163
0.041039
0.021610
0.034683
0.000391
0.037670
-0.013712
0.048616
0.019539
0.012402
0.000482
0.034589
0.058007
0.011104
-0.007042
-0.003402
0.007744
0.060554
0.058295
-0.001099
0.024401
0.000624
0.044022
0.031952
0.026573
0.061656
0.004712
0.000950
-0.022162
0.055359
-0.023682
0.017608
-0.026462
0.017929
0.021366
0.060016
-0.025811
0.059622
0.019105
0.023182
0.060091
-0.026612
-0.026201
0.060512
0.060374
0.022986
0.023653
0.023404
-0.026298
-0.024599
0.018104
0.024275
0.039484
0.005320
-0.000452
-0.017008
0.053346
0.046484
-0.023169
-0.022537
0.038667
0.054815
0.024755
0.000699
0.011034
-0.012010
-0.024385
0.033907
0.007122
0.001044
0.005918
0.036141
-0.000073
0.058218
0.044451
0.010482
0.014812
0.056612
-0.006953
-0.001929
0.003217
0.030686
0.041231
-0.025165
0.055890
0.053952
-0.024092
0.002786
-0.015595
0.000479
-0.000299
0.040217
0.015937
0.006240
0.029609
0.045967
0.000205
-0.020542
0.054622
0.054415
-0.021219
0.054051
0.048548
0.050448
0.034589
0.055693
-0.015645
0.021922
0.036634
-0.000775
0.022566
-0.010740
0.053012
-0.001297
0.039904
0.000788
0.041512
0.055833
0.058747
0.018550
0.009045
-0.005163
0.058945
-0.002797
0.000491
0.026140
0.028076
0.001250
0.001554
-0.021292
0.020372
0.022394
0.024279
-0.026064
-0.026083
0.059731
0.059429
0.017589
-0.026015
0.017282
0.058777
-0.025040
0.023633
0.057405
0.052401
0.053732
0.043602
-0.023679
-0.025713
0.020691
0.025265
0.059077
0.019255
0.025146
0.024177
0.037727
0.016799
0.000236
0.045034
-0.021222
0.052455
0.054165
0.051741
0.050859
0.022649
0.037697
-0.000791
-0.024553
0.054329
0.000996
0.009623
0.057688
0.053488
0.026501
0.029636
0.024119
-0.013330
0.014829
0.052681
0.038296
-0.001912
0.001524
-0.008807
-0.004117
0.002325
0.022008
0.055919
0.001969
0.037841
0.021112
-0.015373
-0.000250
0.003848
0.032290
0.039993
0.044513
0.053000
0.006661
0.027150
0.008175
0.000461
0.012991
0.052699
0.049012
-0.021257
0.053642
0.052223
-0.023798
0.040639
0.000598
0.049929
-0.004666
-0.010535
-0.020223
0.019226
0.017304
-0.005761
0.043111
0.057763
0.035388
0.007383
-0.001226
0.057320
0.000892
0.023387
0.047465
-0.002585
0.055314
0.040049
0.004537
0.027085
0.032222
0.013249
0.058485
-0.025748
0.019271
-0.024074
-0.025180
0.021649
0.024358
0.017542
0.017612
0.017004
0.017245
-0.022720
0.021308
0.025035
0.027279
0.004047
-0.023783
-0.018152
-0.025709
0.052512
0.038554
0.059518
0.054975
0.048021
-0.025696
-0.026226
0.058308
0.024871
0.058846
-0.026074
-0.018708
0.059276
0.058896
0.025623
0.018451
0.024655
0.008192
0.002271
0.051511
0.044274
0.019093
-0.021344
0.000315
-0.015270
0.012756
-0.021571
0.054254
-0.001112
0.049669
-0.010598
0.050756
0.048500
-0.024588
-0.023849
0.034149
0.057590
0.037716
0.050837
0.032233
0.042016
0.022319
0.053130
0.010220
-0.007392
0.038867
0.000827
-0.002761
0.055996
0.005668
-0.022866
0.001310
0.025306
0.003294
0.028764
0.016850
0.024062
0.005544
-0.018097
-0.009424
-0.018361
0.036495
0.037841
0.004778
-0.019752
0.012811
0.047721
-0.000012
-0.024098
0.038058
0.013961
0.000646
-0.000540
-0.025420
0.021137
0.042406
0.053406
0.058911
0.046595
-0.001544
-0.004712
0.054695
0.038734
0.027406
0.051963
0.001140
0.024039
0.007177
0.056610
0.020237
0.027654
0.057607
0.043207
0.035971
0.001830
-0.003375
0.058012
0.031324
-0.025259
0.052989
0.058273
0.056814
0.018362
0.029403
-0.025210
-0.025853
0.051851
-0.023555
0.020515
0.052219
0.024812
0.022802
0.016929
0.025893
0.017507
0.016781
0.005057
0.022861
0.058886
0.022584
0.026143
0.058689
-0.026027
-0.016890
-0.025896
0.057989
0.025018
-0.025514
0.051163
-0.014621
0.025180
0.017876
0.049454
0.025089
0.035551
0.036240
0.004412
-0.017978
0.041052
-0.022500
0.001078
0.047042
0.038018
0.024847
0.006049
0.025740
0.023586
0.001558
-0.024752
-0.025286
0.006166
-0.011397
0.009928
-0.015227
0.016661
0.050992
0.025348
0.037574
-0.002132
0.053719
0.052145
0.029065
0.035374
0.016456
0.006286
0.007335
0.022631
0.009300
-0.013985
-0.000164
-0.000787
0.058500
0.034816
-0.023343
-0.022808
0.046464
0.021438
-0.025943
0.042194
0.024286
-0.019535
0.036094
-0.023505
0.040654
0.029602
-0.009184
-0.013806
0.051336
-0.001685
0.021386
0.054035
-0.025393
-0.024458
-0.001049
0.051106
0.050182
-0.003452
-0.021990
0.045422
-0.005857
0.026200
0.049636
0.020755
0.014282
0.030358
0.054949
0.002550
0.004501
0.058042
0.032847
0.027298
0.001790
0.011968
0.050411
0.053453
0.000567
0.019617
0.056535
0.054440
0.025193
-0.025596
0.052464
0.050912
0.057726
-0.025097
0.025296
0.018289
0.016618
0.016547
-0.019363
0.030457
0.016804
-0.023957
0.023521
0.057534
0.055585
-0.025749
0.021612
0.037674
0.049591
0.008609
0.025034
0.000057
0.057345
0.025440
0.057146
0.026107
-0.025091
0.048054
0.019857
0.021192
0.025437
-0.017884
0.002211
0.000116
-0.019573
0.010485
0.046421
-0.022350
0.051774
0.049262
-0.002085
0.026875
-0.009221
0.008464
0.042898
-0.023890
-0.024199
0.056762
-0.025042
0.050883
0.012915
-0.013612
0.002028
0.024176
0.039630
0.005963
0.052616
-0.005282
0.004684
0.030881
0.034282
0.016260
-0.023214
0.056461
0.049724
-0.025104
0.021762
0.007573
-0.016655
-0.021347
0.036399
0.048034
0.014886
0.028139
0.044311
0.040719
-0.021727
-0.007633
-0.003622
0.036509
-0.000469
0.038787
0.022002
0.035600
0.000806
0.003491
0.052368
-0.006115
0.001323
0.033599
0.009493
0.045716
0.002091
0.036629
-0.025505
-0.004681
0.017152
-0.013746
0.053068
0.007314
0.006450
-0.001062
0.028300
0.031832
0.028074
0.050235
-0.019997
0.023428
0.052458
0.035758
0.005424
0.055229
0.049161
0.024828
0.018881
0.016409
0.023577
0.022936
0.016330
0.020914
0.054247
0.026801
0.055410
0.016809
0.056972
0.056623
0.025200
0.017037
0.057711
0.000371
-0.022809
0.018235
0.029586
-0.025302
-0.026299
0.006716
0.058353
0.025190
0.011249
0.020751
-0.024833
-0.025100
-0.013160
0.050604
0.026070
-0.024873
0.025993
-0.023248
0.057077
0.057057
0.018287
0.015986
0.024815
0.025517
0.033986
0.009700
0.004314
0.037094
-0.000058
0.022632
0.052731
0.052253
-0.023502
0.044847
-0.022154
0.038777
0.028278
0.035578
0.024860
0.034320
-0.024114
-0.007632
0.049142
0.012746
-0.010035
0.029680
0.021139
0.018272
0.006171
0.026029
0.007080
-0.004894
0.001022
0.003678
0.032716
0.030127
0.001703
0.024928
0.057053
0.033170
-0.000684
-0.012510
0.056326
0.035123
0.051417
0.042403
0.033127
0.050436
0.048421
0.008523
-0.024551
0.044458
0.034299
-0.016805
-0.023344
-0.002962
-0.018460
-0.021927
0.056739
0.006364
-0.024879
-0.000955
0.000678
0.051602
-0.010114
0.002350
0.050019
-0.024633
0.029278
-0.020573
0.055385
0.007814
0.025613
0.041285
0.023507
0.017575
0.011198
0.045842
0.005619
-0.001631
-0.016428
-0.013845
0.047875
0.002780
0.048873
0.022143
0.020896
0.051520
0.010615
0.050821
-0.025180
-0.024718
0.016685
0.015968
0.049504
0.022613
0.024717
0.016321
-0.000236
0.056169
0.054277
0.028346
-0.025028
0.055286
0.016102
-0.022366
0.025255
0.007820
0.017468
0.056651
0.025700
0.048794
0.020063
-0.022356
0.025399
-0.024882
0.058462
0.056284
0.018247
0.029422
-0.019780
-0.026171
0.026742
0.057125
-0.015044
0.015552
0.046475
0.017921
-0.014870
0.025943
0.025231
0.005682
-0.018216
-0.017052
0.044060
0.051323
0.008557
0.046578
-0.022844
0.049404
0.048048
0.022328
0.008035
-0.001360
0.056831
0.026127
0.015258
0.015892
-0.020643
0.040597
0.007031
-0.024425
0.020758
0.020505
0.002112
0.000814
0.003132
-0.008951
-0.025109
0.008391
0.024497
0.027190
0.049514
0.010717
0.056448
-0.003358
-0.009757
-0.021647
0.056041
-0.024052
0.034101
0.038022
-0.016498
-0.005128
0.040293
0.050292
-0.006255
-0.013631
0.002167
0.049932
0.049131
0.000346
0.004554
0.031942
0.018000
0.055229
0.034326
0.034385
0.027181
0.053586
0.001362
0.047363
0.037214
0.053056
0.031711
0.013833
-0.012355
-0.002059
0.007847
0.047643
0.029775
0.043269
0.033472
0.024645
0.048902
-0.024593
0.015881
0.008682
-0.000470
-0.025538
0.016650
0.022134
0.025839
0.023614
0.026241
0.016491
-0.024684
-0.024438
0.015761
0.057548
0.011530
0.019378
0.029244
-0.021427
0.016194
0.025868
0.047263
0.056314
0.050113
-0.011526
-0.024347
0.023522
0.056795
0.035979
0.033797
0.056008
0.026382
0.025680
0.020383
0.055926
-0.003751
0.007541
0.027193
0.017895
0.047830
-0.023564
-0.022751
0.051199
0.018515
0.031098
-0.013525
0.032142
0.025748
0.026423
0.045710
0.020416
0.008917
0.037706
0.033748
0.049964
-0.022027
0.000430
0.028824
0.006934
0.053728
0.046586
0.023405
0.051539
-0.001831
-0.007502
0.009993
-0.022141
0.031049
0.056113
0.044776
-0.022974
0.004151
0.026266
0.042810
-0.024318
0.036729
0.033237
0.011037
0.001677
0.008899
-0.011053
0.056476
0.024345
0.030751
0.048422
-0.004576
0.055171
0.016032
0.048731
0.048274
-0.018986
-0.012845
-0.023334
0.006618
0.019892
0.041710
-0.025049
-0.000766
0.050006
-0.024266
0.004198
0.008445
0.038164
0.002566
0.047782
-0.000115
0.021502
0.020717
0.027671
0.057668
0.048797
0.030912
0.034740
0.051752
0.025996
-0.021175
-0.002554
0.045093
0.014269
0.001241
0.006704
0.031949
0.039160
0.010948
0.013673
0.029968
0.047383
-0.006345
0.032650
-0.017000
0.046354
-0.000926
0.048201
-0.012500
0.021747
0.024968
0.026047
0.047496
0.023712
0.029037
0.054328
0.021599
0.016731
0.017011
0.015558
0.016049
0.015511
-0.024620
0.055703
0.055376
0.016850
0.022982
0.024681
-0.014823
0.026168
-0.020121
0.028073
0.015565
0.049374
0.055841
-0.023707
0.018811
-0.004416
-0.024435
0.047883
0.030435
0.030454
0.055736
0.017632
-0.019784
0.031743
-0.024267
-0.021781
-0.024157
0.026458
-0.025635
0.032364
0.026859
0.027903
0.017309
0.030701
-0.013470
0.005601
0.026075
0.009649
0.020048
-0.018703
0.048624
-0.017346
0.045069
-0.000073
-0.020732
0.048398
0.041971
0.050515
0.030094
-0.021485
0.011340
0.038289
0.055647
-0.006276
0.054135
0.001975
0.046075
0.055263
0.003274
0.031064
-0.023170
0.021990
0.027588
-0.023944
0.027094
-0.000740
0.016496
0.024568
0.028701
0.023826
0.047202
-0.024029
0.026374
0.000042
0.030376
0.005125
0.019373
0.042573
0.056147
0.036684
-0.021033
-0.003340
0.031847
0.002158
-0.002469
0.050431
0.046231
0.026188
0.034910
0.035209
0.031619
0.043302
0.009202
0.014940
0.007747
0.006830
-0.015394
0.052681
0.039912
0.027634
-0.001137
0.012106
0.009371
0.030109
0.022901
-0.012297
-0.008511
0.033358
0.005998
0.046976
-0.023789
-0.024066
0.015944
0.024166
0.046243
-0.020200
-0.019598
0.044961
0.029855
-0.009909
0.000945
-0.010923
0.009525
0.015346
0.023169
0.053203
0.025301
0.017630
0.030108
-0.004085
0.034147
0.021074
0.046394
0.026590
0.032285
0.022492
0.016014
0.055207
0.015295
0.023812
0.016314
0.026243
0.056640
0.055252
0.026351
0.015519
0.047743
0.055482
-0.024291
0.054946
0.018330
0.041692
-0.024665
-0.016845
0.021134
0.024150
0.027308
0.029385
0.055122
0.026584
0.049097
0.006205
-0.022495
0.015495
-0.024004
-0.005269
-0.024111
0.047769
-0.008597
-0.022586
-0.023669
0.046864
0.027245
0.027217
0.018859
0.029335
0.045440
0.006696
0.026493
-0.017294
0.035330
0.049104
0.032505
0.042065
-0.019327
0.007080
0.053250
0.047684
0.038678
0.051999
-0.007544
0.018377
-0.004408
0.015205
0.022494
0.010372
0.004072
0.054248
-0.014072
0.013994
-0.001378
0.015319
0.031840
-0.022074
0.024985
-0.015078
-0.022761
0.044132
0.024681
0.025773
0.005315
0.040720
0.055832
0.026797
0.045412
0.045921
0.016758
0.010450
0.049649
0.003670
-0.019616
0.055534
0.012465
-0.000714
-0.003859
0.026226
0.033865
0.035088
-0.021042
0.037187
0.044988
0.002530
0.028567
-0.023556
0.029026
0.029723
0.031321
0.046587
0.007783
0.009118
0.049018
-0.004912
0.047184
0.046555
0.022404
0.012008
0.032455
0.028164
0.042820
0.018396
0.001440
0.028414
0.026062
0.005469
-0.002332
-0.011190
-0.012142
0.055808
0.045549
0.031378
-0.012290
0.000484
0.044962
-0.009996
0.033070
0.046091
0.023781
0.052038
0.030870
0.016249
0.024945
0.020537
0.044583
0.026974
0.015071
0.022110
-0.024265
-0.023787
-0.018767
0.015553
0.017526
0.023386
0.027469
0.024996
0.017836
0.055206
0.015170
0.044361
0.054209
0.026818
0.023228
-0.015234
0.015628
-0.021899
-0.022041
0.040718
0.026689
-0.023201
0.055093
0.054717
0.054985
0.054913
-0.023338
0.007561
-0.023521
0.020200
0.026246
-0.023821
-0.024014
0.050933
0.025543
-0.013886
0.045980
0.026870
-0.018510
0.031006
0.033239
-0.015472
0.045338
0.037279
0.052396
-0.001572
0.005322
0.030390
-0.020950
0.049953
0.051365
0.043862
0.055043
0.054779
0.012355
0.016161
-0.007865
0.021464
0.040703
0.011026
-0.000064
0.054355
0.001652
0.003143
-0.023125
0.025011
0.027258
-0.021610
-0.005721
-0.004670
0.014925
0.030123
0.025420
0.020560
0.028824
-0.022935
0.027860
0.032709
0.047793
0.044570
0.042961
-0.019902
0.046749
0.001722
0.053073
-0.023388
0.007827
0.023172
0.037195
0.049511
0.009136
0.029725
0.043349
0.010533
0.054564
0.008560
0.050943
0.001032
0.054021
0.031641
0.048889
0.035520
0.026617
-0.015786
0.027786
-0.010984
0.031411
-0.009964
-0.007920
0.004746
-0.012950
-0.023620
0.043539
0.044839
-0.012176
-0.002929
0.033089
0.029110
0.055174
0.041120
0.026890
0.024290
0.021477
0.054464
0.044715
0.027068
0.014822
0.016842
0.020546
0.020139
0.030400
-0.018554
0.030600
0.021740
-0.021141
0.025402
0.048299
0.004861
0.026156
0.014880
0.014939
0.053296
0.010561
-0.024015
0.023155
0.027109
0.039628
0.024443
0.014237
0.055179
0.015144
-0.008725
-0.022556
0.015898
0.005805
0.017428
0.030060
-0.022336
0.026999
-0.023214
-0.023491
0.054790
0.054654
0.044911
-0.014684
0.018399
0.017250
0.028043
0.023639
0.026675
0.009658
0.041341
0.044831
-0.023469
-0.011595
0.027684
0.017803
-0.016619
0.046726
0.013919
-0.018393
0.043752
0.001226
0.046876
-0.021142
0.041573
0.034864
0.048190
0.052520
0.031590
0.023706
-0.006813
-0.022612
0.050367
-0.004633
0.042908
0.030373
0.021873
-0.022993
0.031929
0.028908
0.026713
0.038769
0.003833
0.043673
-0.002375
0.032648
0.025418
0.028546
0.035198
-0.012491
0.031060
-0.000733
-0.021838
0.024056
0.049088
-0.014491
0.024296
0.028286
-0.022482
-0.020381
0.002285
0.043458
-0.023131
0.048314
0.007526