# vtk DataFile Version 2.0
Test
ASCII
DATASET POLYDATA
POINTS 4677 float
0.000000 0.000000 0.000000
0.080000 0.000000 0.000000
0.080000 0.160000 0.000000
0.000000 0.160000 0.000000
0.036000 0.073072 0.000000
0.044000 0.086928 0.000000
0.024500 0.065566 0.000000
0.055500 0.093560 0.000000
0.001000 0.050000 0.000000
0.079000 0.110000 0.000000
0.002963 0.000000 0.000000
0.005926 0.000000 0.000000
0.008889 0.000000 0.000000
0.011852 0.000000 0.000000
0.014815 0.000000 0.000000
0.017778 0.000000 0.000000
0.020741 0.000000 0.000000
0.023704 0.000000 0.000000
0.026667 0.000000 0.000000
0.029630 0.000000 0.000000
0.032593 0.000000 0.000000
0.035556 0.000000 0.000000
0.038519 0.000000 0.000000
0.041481 0.000000 0.000000
0.044444 0.000000 0.000000
0.047407 0.000000 0.000000
0.050370 0.000000 0.000000
0.053333 0.000000 0.000000
0.056296 0.000000 0.000000
0.059259 0.000000 0.000000
0.062222 0.000000 0.000000
0.065185 0.000000 0.000000
0.068148 0.000000 0.000000
0.071111 0.000000 0.000000
0.074074 0.000000 0.000000
0.077037 0.000000 0.000000
0.080000 0.002963 0.000000
0.080000 0.005926 0.000000
0.080000 0.008889 0.000000
0.080000 0.011852 0.000000
0.080000 0.014815 0.000000
0.080000 0.017778 0.000000
0.080000 0.020741 0.000000
0.080000 0.023704 0.000000
0.080000 0.026667 0.000000
0.080000 0.029630 0.000000
0.080000 0.032593 0.000000
0.080000 0.035556 0.000000
0.080000 0.038519 0.000000
0.080000 0.041481 0.000000
0.080000 0.044444 0.000000
0.080000 0.047407 0.000000
0.080000 0.050370 0.000000
0.080000 0.053333 0.000000
0.080000 0.056296 0.000000
0.080000 0.059259 0.000000
0.080000 0.062222 0.000000
0.080000 0.065185 0.000000
0.080000 0.068148 0.000000
0.080000 0.071111 0.000000
0.080000 0.074074 0.000000
0.080000 0.077037 0.000000
0.080000 0.080000 0.000000
0.080000 0.082963 0.000000
0.080000 0.085926 0.000000
0.080000 0.088889 0.000000
0.080000 0.091852 0.000000
0.080000 0.094815 0.000000
0.080000 0.097778 0.000000
0.080000 0.100741 0.000000
0.080000 0.103704 0.000000
0.080000 0.106667 0.000000
0.080000 0.109630 0.000000
0.080000 0.112593 0.000000
0.080000 0.115556 0.000000
0.080000 0.118519 0.000000
0.080000 0.121481 0.000000
0.080000 0.124444 0.000000
0.080000 0.127407 0.000000
0.080000 0.130370 0.000000
0.080000 0.133333 0.000000
0.080000 0.136296 0.000000
0.080000 0.139259 0.000000
0.080000 0.142222 0.000000
0.080000 0.145185 0.000000
0.080000 0.148148 0.000000
0.080000 0.151111 0.000000
0.080000 0.154074 0.000000
0.080000 0.157037 0.000000
0.077037 0.160000 0.000000
0.074074 0.160000 0.000000
0.071111 0.160000 0.000000
0.068148 0.160000 0.000000
0.065185 0.160000 0.000000
0.062222 0.160000 0.000000
0.059259 0.160000 0.000000
0.056296 0.160000 0.000000
0.053333 0.160000 0.000000
0.050370 0.160000 0.000000
0.047407 0.160000 0.000000
0.044444 0.160000 0.000000
0.041481 0.160000 0.000000
0.038519 0.160000 0.000000
0.035556 0.160000 0.000000
0.032593 0.160000 0.000000
0.029630 0.160000 0.000000
0.026667 0.160000 0.000000
0.023704 0.160000 0.000000
0.020741 0.160000 0.000000
0.017778 0.160000 0.000000
0.014815 0.160000 0.000000
0.011852 0.160000 0.000000
0.008889 0.160000 0.000000
0.005926 0.160000 0.000000
0.002963 0.160000 0.000000
0.000000 0.157037 0.000000
0.000000 0.154074 0.000000
0.000000 0.151111 0.000000
0.000000 0.148148 0.000000
0.000000 0.145185 0.000000
0.000000 0.142222 0.000000
0.000000 0.139259 0.000000
0.000000 0.136296 0.000000
0.000000 0.133333 0.000000
0.000000 0.130370 0.000000
0.000000 0.127407 0.000000
0.000000 0.124444 0.000000
0.000000 0.121481 0.000000
0.000000 0.118519 0.000000
0.000000 0.115556 0.000000
0.000000 0.112593 0.000000
0.000000 0.109630 0.000000
0.000000 0.106667 0.000000
0.000000 0.103704 0.000000
0.000000 0.100741 0.000000
0.000000 0.097778 0.000000
0.000000 0.094815 0.000000
0.000000 0.091852 0.000000
0.000000 0.088889 0.000000
0.000000 0.085926 0.000000
0.000000 0.082963 0.000000
0.000000 0.080000 0.000000
0.000000 0.077037 0.000000
0.000000 0.074074 0.000000
0.000000 0.071111 0.000000
0.000000 0.068148 0.000000
0.000000 0.065185 0.000000
0.000000 0.062222 0.000000
0.000000 0.059259 0.000000
0.000000 0.056296 0.000000
0.000000 0.053333 0.000000
0.000000 0.050370 0.000000
0.000000 0.047407 0.000000
0.000000 0.044444 0.000000
0.000000 0.041481 0.000000
0.000000 0.038519 0.000000
0.000000 0.035556 0.000000
0.000000 0.032593 0.000000
0.000000 0.029630 0.000000
0.000000 0.026667 0.000000
0.000000 0.023704 0.000000
0.000000 0.020741 0.000000
0.000000 0.017778 0.000000
0.000000 0.014815 0.000000
0.000000 0.011852 0.000000
0.000000 0.008889 0.000000
0.000000 0.005926 0.000000
0.000000 0.002963 0.000000
0.035500 0.072746 0.000000
0.035000 0.072419 0.000000
0.034500 0.072093 0.000000
0.034000 0.071767 0.000000
0.033500 0.071440 0.000000
0.033000 0.071114 0.000000
0.032500 0.070788 0.000000
0.032000 0.070461 0.000000
0.031500 0.070135 0.000000
0.031000 0.069809 0.000000
0.030500 0.069482 0.000000
0.030000 0.069156 0.000000
0.029500 0.068829 0.000000
0.029000 0.068503 0.000000
0.028500 0.068177 0.000000
0.028000 0.067850 0.000000
0.027500 0.067524 0.000000
0.027000 0.067198 0.000000
0.026500 0.066871 0.000000
0.026000 0.066545 0.000000
0.025500 0.066219 0.000000
0.025000 0.065892 0.000000
0.044500 0.087216 0.000000
0.045000 0.087505 0.000000
0.045500 0.087793 0.000000
0.046000 0.088081 0.000000
0.046500 0.088370 0.000000
0.047000 0.088658 0.000000
0.047500 0.088946 0.000000
0.048000 0.089235 0.000000
0.048500 0.089523 0.000000
0.049000 0.089811 0.000000
0.049500 0.090100 0.000000
0.050000 0.090388 0.000000
0.050500 0.090677 0.000000
0.051000 0.090965 0.000000
0.051500 0.091253 0.000000
0.052000 0.091542 0.000000
0.052500 0.091830 0.000000
0.053000 0.092118 0.000000
0.053500 0.092407 0.000000
0.054000 0.092695 0.000000
0.054500 0.092983 0.000000
0.055000 0.093272 0.000000
0.043704 0.086415 0.000000
0.043407 0.085902 0.000000
0.043111 0.085388 0.000000
0.042815 0.084875 0.000000
0.042519 0.084362 0.000000
0.042222 0.083849 0.000000
0.041926 0.083336 0.000000
0.041630 0.082823 0.000000
0.041333 0.082309 0.000000
0.041037 0.081796 0.000000
0.040741 0.081283 0.000000
0.040444 0.080770 0.000000
0.040148 0.080257 0.000000
0.039852 0.079743 0.000000
0.039556 0.079230 0.000000
0.039259 0.078717 0.000000
0.038963 0.078204 0.000000
0.038667 0.077691 0.000000
0.038370 0.077177 0.000000
0.038074 0.076664 0.000000
0.037778 0.076151 0.000000
0.037481 0.075638 0.000000
0.037185 0.075125 0.000000
0.036889 0.074612 0.000000
0.036593 0.074098 0.000000
0.036296 0.073585 0.000000
0.024000 0.065235 0.000000
0.023500 0.064904 0.000000
0.023000 0.064572 0.000000
0.022500 0.064241 0.000000
0.022000 0.063910 0.000000
0.021500 0.063579 0.000000
0.021000 0.063248 0.000000
0.020500 0.062916 0.000000
0.020000 0.062585 0.000000
0.019500 0.062254 0.000000
0.019000 0.061923 0.000000
0.018500 0.061592 0.000000
0.018000 0.061261 0.000000
0.017500 0.060929 0.000000
0.017000 0.060598 0.000000
0.016500 0.060267 0.000000
0.016000 0.059936 0.000000
0.015500 0.059605 0.000000
0.015000 0.059273 0.000000
0.014500 0.058942 0.000000
0.014000 0.058611 0.000000
0.013500 0.058280 0.000000
0.013000 0.057949 0.000000
0.012500 0.057617 0.000000
0.012000 0.057286 0.000000
0.011500 0.056955 0.000000
0.011000 0.056624 0.000000
0.010500 0.056293 0.000000
0.010000 0.055961 0.000000
0.009500 0.055630 0.000000
0.009000 0.055299 0.000000
0.008500 0.054968 0.000000
0.008000 0.054637 0.000000
0.007500 0.054305 0.000000
0.007000 0.053974 0.000000
0.006500 0.053643 0.000000
0.006000 0.053312 0.000000
0.005500 0.052981 0.000000
0.005000 0.052650 0.000000
0.004500 0.052318 0.000000
0.004000 0.051987 0.000000
0.003500 0.051656 0.000000
0.003000 0.051325 0.000000
0.002500 0.050994 0.000000
0.002000 0.050662 0.000000
0.001500 0.050331 0.000000
0.055990 0.093902 0.000000
0.056479 0.094245 0.000000
0.056969 0.094587 0.000000
0.057458 0.094930 0.000000
0.057948 0.095272 0.000000
0.058437 0.095615 0.000000
0.058927 0.095957 0.000000
0.059417 0.096300 0.000000
0.059906 0.096642 0.000000
0.060396 0.096985 0.000000
0.060885 0.097327 0.000000
0.061375 0.097670 0.000000
0.061865 0.098012 0.000000
0.062354 0.098355 0.000000
0.062844 0.098697 0.000000
0.063333 0.099040 0.000000
0.063823 0.099382 0.000000
0.064312 0.099725 0.000000
0.064802 0.100067 0.000000
0.065292 0.100410 0.000000
0.065781 0.100752 0.000000
0.066271 0.101095 0.000000
0.066760 0.101437 0.000000
0.067250 0.101780 0.000000
0.067740 0.102122 0.000000
0.068229 0.102465 0.000000
0.068719 0.102807 0.000000
0.069208 0.103150 0.000000
0.069698 0.103492 0.000000
0.070187 0.103835 0.000000
0.070677 0.104177 0.000000
0.071167 0.104520 0.000000
0.071656 0.104862 0.000000
0.072146 0.105205 0.000000
0.072635 0.105547 0.000000
0.073125 0.105890 0.000000
0.073615 0.106232 0.000000
0.074104 0.106575 0.000000
0.074594 0.106917 0.000000
0.075083 0.107260 0.000000
0.075573 0.107602 0.000000
0.076062 0.107945 0.000000
0.076552 0.108287 0.000000
0.077042 0.108630 0.000000
0.077531 0.108972 0.000000
0.078021 0.109315 0.000000
0.078510 0.109658 0.000000
0.043942 0.087469 0.000000
0.035556 0.157037 0.000000
0.044420 0.002920 0.000000
0.077037 0.038519 0.000000
0.002963 0.121481 0.000000
0.077037 0.059259 0.000000
0.002963 0.109630 0.000000
0.002923 0.098139 0.000000
0.077153 0.126913 0.000000
0.002808 0.032596 0.000000
0.077140 0.071061 0.000000
0.002963 0.085926 0.000000
0.002963 0.136296 0.000000
0.077041 0.023701 0.000000
0.056296 0.157037 0.000000
0.032593 0.002963 0.000000
0.077037 0.080000 0.000000
0.002813 0.077135 0.000000
0.077037 0.142222 0.000000
0.017778 0.157037 0.000000
0.062222 0.002963 0.000000
0.076992 0.088722 0.000000
0.002945 0.020743 0.000000
0.017777 0.002962 0.000000
0.002801 0.068434 0.000000
0.002959 0.011851 0.000000
0.065186 0.157038 0.000000
0.002963 0.148148 0.000000
0.077037 0.011852 0.000000
0.076887 0.094740 0.000000
0.077092 0.115875 0.000000
0.002677 0.044265 0.000000
0.077038 0.148148 0.000000
0.002985 0.062165 0.000000
0.077037 0.047407 0.000000
0.011852 0.002963 0.000000
[...]
POINT_DATA 4677
SCALARS UX float 1
LOOKUP_TABLE default
-0.000000
0.000000
0.015627
-0.004203
-0.000543
0.000124
-0.007272
0.006231
-0.011483
0.012204
-0.000000
-0.000000
-0.000000
-0.000000
-0.000000
-0.000000
-0.000000
-0.000000
-0.000000
-0.000000
-0.000000
-0.000000
-0.000000
0.000000
0.000000
0.000000
0.000000
0.000000
0.000000
0.000000
0.000000
0.000000
0.000000
0.000000
0.000000
-0.000000
0.001917
0.002935
0.003688
0.004318
0.004871
0.005369
0.005824
0.006245
0.006650
0.007037
0.007429
0.007776
0.008085
0.008365
0.008423
0.008579
0.008693
0.008806
0.008951
0.009129
0.009339
0.009576
0.009822
0.010052
0.010257
0.010715
0.011199
0.011531
0.011743
0.012020
0.012288
0.012492
0.012651
0.012719
0.012693
0.012624
0.012498
0.012348
0.012269
0.012500
0.012672
0.012842
0.012832
0.013031
0.013333
0.013334
0.013551
0.013752
0.013936
0.014191
0.014693
0.015102
0.015367
0.014834
0.014263
0.013433
0.012550
0.011804
0.011036
0.010331
0.009571
0.008847
0.008124
0.007487
0.006935
0.005966
0.005237
0.004406
0.003837
0.002949
0.002311
0.001554
0.000830
0.000126
-0.000576
-0.001283
-0.001999
-0.002730
-0.003459
-0.004236
-0.004303
-0.004409
-0.004553
-0.004731
-0.004928
-0.005147
-0.005362
-0.005662
-0.005963
-0.006405
-0.006484
-0.006825
-0.006944
-0.007256
-0.007431
-0.007695
-0.007911
-0.008153
-0.008421
-0.008708
-0.009022
-0.009355
-0.009708
-0.009999
-0.010511
-0.010920
-0.011183
-0.011617
-0.011821
-0.012080
-0.012323
-0.012456
-0.012499
-0.012331
-0.012074
-0.011728
-0.011360
-0.011062
-0.010831
-0.010566
-0.010261
-0.009927
-0.009648
-0.009253
-0.008702
-0.008195
-0.007661
-0.006992
-0.006235
-0.005387
-0.004318
-0.002967
-0.000557
-0.001288
-0.000701
-0.001109
-0.000928
-0.001629
-0.002687
-0.002852
-0.002621
-0.003335
-0.003982
-0.004374
-0.004445
-0.004738
-0.005102
-0.005250
-0.005439
-0.005766
-0.006029
-0.005613
-0.006639
-0.007222
0.000305
0.000170
0.000376
0.001578
0.001436
0.001248
0.001524
0.002084
0.003146
0.001940
0.004467
0.002426
0.003038
0.003986
0.004798
0.005849
0.004182
0.005065
0.005631
0.005628
0.006624
0.006278
-0.000115
-0.000079
-0.000063
-0.000035
0.000018
0.000051
0.000051
0.000051
0.000007
-0.000020
-0.000071
-0.000125
-0.000169
-0.000232
-0.000276
-0.000321
-0.000372
-0.000409
-0.000434
-0.000459
-0.000454
-0.000438
-0.000408
-0.000356
-0.000322
-0.000398
-0.007503
-0.007616
-0.007690
-0.007758
-0.007847
-0.007939
-0.008037
-0.008141
-0.008253
-0.008377
-0.008489
-0.008574
-0.008664
-0.008759
-0.008845
-0.008934
-0.009054
-0.009136
-0.009234
-0.009330
-0.009425
-0.009519
-0.009612
-0.009704
-0.009794
-0.009884
-0.009973
-0.010061
-0.010150
-0.010238
-0.010325
-0.010412
-0.010496
-0.010579
-0.010660
-0.010739
-0.010817
-0.010892
-0.010966
-0.011038
-0.011107
-0.011175
-0.011241
-0.011305
-0.011367
-0.011426
0.006653
0.006855
0.007041
0.007175
0.007293
0.007367
0.007488
0.007630
0.007737
0.007854
0.007949
0.008051
0.008154
0.008254
0.008350
0.008446
0.008549
0.008650
0.008752
0.008869
0.008987
0.009108
0.009230
0.009354
0.009479
0.009602
0.009723
0.009843
0.009961
0.010079
0.010196
0.010313
0.010430
0.010547
0.010665
0.010783
0.010901
0.011019
0.011138
0.011257
0.011375
0.011494
0.011613
0.011733
0.011852
0.011971
0.012088
-0.000022
0.004228
0.000020
0.007459
-0.006086
0.008351
-0.007045
-0.007975
0.012156
-0.009466
0.009310
-0.009316
-0.004654
0.005626
0.009599
-0.000217
0.010505
-0.010624
0.013090
0.000081
0.000304
0.011332
-0.007643
-0.000605
-0.011585
-0.005659
0.011662
-0.003793
0.003660
0.011771
0.011535
-0.010570
0.013542
-0.011958
0.007857
-0.000895
0.013115
-0.002735
0.000700
-0.011812
0.012019
0.012464
0.005732
0.007349
-0.000350
-0.005342
0.006424
0.001372
0.000204
0.014592
0.011785
-0.010276
0.000083
0.011881
-0.010033
-0.011938
-0.010960
0.010860
-0.008593
-0.009725
0.008780
0.009541
0.008043
-0.007491
0.011954
-0.006643
-0.009053
-0.008598
0.007605
0.002756
0.012657
0.000119
-0.000028
-0.005656
0.006798
-0.000092
-0.007073
-0.000432
0.010257
0.008117
-0.004164
0.004745
-0.004720
-0.001092
-0.003227
-0.001307
0.000456
0.013909
-0.001573
-0.001619
-0.003544
0.002105
-0.003477
0.000983
0.011833
-0.000200
-0.011195
-0.011542
0.012003
-0.000147
-0.000100
0.006796
0.008762
-0.008510
-0.009079
0.011288
0.007844
-0.004545
0.012001
-0.000708
-0.009844
-0.006505
-0.011561
0.009880
0.011318
0.009277
-0.005008
-0.001865
-0.002883
0.012739
-0.002798
0.001475
0.011722
-0.010899
0.012014
-0.011749
0.011625
-0.011313
-0.011535
0.011129
0.012105
-0.009859
0.012158
-0.010265
0.010037
-0.008909
-0.008261
0.009068
0.008566
-0.007765
-0.007250
0.008195
-0.006786
0.007958
0.012269
0.007747
-0.006347
0.004961
-0.005793
0.007150
0.003579
0.000072
0.006675
-0.008134
0.002096
0.000160
-0.000148
0.012919
-0.005011
0.006031
0.008789
-0.000293
0.000752
0.000249
-0.006412
-0.000507
0.011002
-0.004334
0.005206
-0.000782
-0.003968
0.004238
0.012243
0.013258
-0.000605
0.000367
0.013984
0.014283
-0.002014
0.000568
-0.003650
0.002977
-0.011307
0.012004
0.011755
-0.011308
-0.011196
0.000493
-0.000401
0.012071
-0.011732
0.011086
-0.009771
0.000697
0.000436
0.000641
0.007799
-0.007754
-0.006602
0.010499
-0.009507
0.003279
0.000649
-0.010751
0.000307
0.005402
0.011050
-0.003616
-0.000669
0.011475
0.003589
-0.003216
0.000768
0.011612
-0.011023
0.011482
0.007467
-0.006165
0.007235
-0.005707
0.006328
-0.004168
0.010640
-0.001096
-0.001534
-0.002904
0.011976
0.013121
-0.011087
0.011782
-0.010384
0.011164
0.009706
-0.011340
0.011287
-0.009752
-0.011364
0.010692
0.010153
-0.007107
0.011635
-0.009242
-0.009466
-0.010095
0.008312
0.008550
-0.008336
0.006563
-0.000328
-0.000209
-0.008128
0.007076
0.006939
0.000124
0.000020
-0.008659
0.011481
0.007065
0.001897
0.008479
-0.005096
-0.004874
0.012085
0.012575
0.011792
0.004688
-0.007581
-0.000600
0.009967
-0.005831
-0.000946
0.004558
0.000502
-0.007071
-0.004102
-0.002289
0.013600
-0.002069
0.001132
0.002289
-0.008774
-0.000465
0.000291
0.011552
-0.011048
-0.011393
0.012151
-0.011335
0.011908
-0.000414
0.000971
0.000114
0.000679
0.000054
-0.000321
0.006325
0.007789
-0.007752
0.006082
-0.004453
-0.008175
0.010871
0.009507
-0.000936
0.008358
-0.006968
-0.005924
-0.002426
-0.010815
0.011337
0.010686
0.000950
-0.010432
0.006277
-0.000017
0.011161
-0.001475
0.009682
0.011732
-0.003874
-0.002176
0.001767
0.000264
-0.010920
0.011153
-0.008762
-0.011449
-0.006853
-0.010037
-0.007949
-0.007472
0.005840
0.007991
0.010860
0.007639
-0.006444
0.007327
0.008899
-0.005891
0.011372
0.010775
-0.008116
0.005444
-0.000444
0.002652
-0.003917
0.007159
0.000216
0.001290
-0.007452
0.006827
0.005933
-0.005434
0.000402
0.000009
0.012354
0.004991
-0.005213
-0.003414
0.004100
0.012471
0.011298
-0.001232
-0.003410
0.000618
0.004054
-0.001355
-0.003045
0.012794
0.002998
0.000932
-0.009396
0.010749
-0.009751
-0.000573
-0.011304
-0.000419
0.000870
0.011636
-0.010536
0.011269
-0.000384
0.001147
0.011484
-0.011295
-0.010822
0.011723
0.011466
0.000885
0.001206
0.001019
-0.011049
-0.010014
-0.000225
0.001456
0.007015
-0.006401
-0.007208
-0.008129
0.009975
0.005803
-0.009875
-0.009366
0.001803
0.010411
-0.002916
0.000449
0.004762
-0.006835
-0.011066
-0.000111
-0.005718
0.000943
0.003468
0.006527
-0.000466
0.010941
0.004564
-0.005218
-0.004755
0.011542
-0.005330
-0.002052
0.002393
-0.001468
0.007925
-0.010217
0.010330
0.010842
-0.010417
-0.007114
-0.008471
-0.007391
-0.000676
0.007382
0.005568
-0.006216
0.006429
0.005455
-0.000177
-0.009042
0.010633
0.011039
-0.009296
0.010237
0.009162
0.007590
0.006535
0.011383
-0.007907
-0.003527
0.001167
-0.001122
0.006108
-0.006567
0.008951
-0.001713
0.007577
0.000598
0.003141
0.010310
0.011699
-0.004157
0.004351
-0.004401
0.012141
-0.002877
0.000148
-0.002693
-0.002318
0.001155
0.001414
-0.009042
0.000396
0.000671
0.001368
-0.010860
-0.010957
0.011322
0.011306
-0.000562
-0.011063
-0.000683
0.011257
-0.011164
0.001178
0.010663
0.009854
0.010736
0.008529
-0.009665
-0.010539
0.000174
0.001176
0.011145
-0.000306
0.001358
0.005664
0.006747
-0.004085
-0.000256
0.008518
-0.008934
0.010313
0.010026
0.009628
0.008042
-0.003175
0.001571
-0.001300
-0.009932
0.010694
0.000586
0.004275
0.010816
0.009402
-0.002232
-0.001615
0.001239
-0.007170
0.005051
0.010086
0.007163
-0.002366
0.001261
-0.006011
-0.003807
0.001917
0.000586
0.010300
-0.006869
0.006861
0.000368
-0.007718
-0.000718
-0.006741
0.006491
0.007159
0.005008
0.010031
-0.006009
0.001554
-0.005534
-0.000035
-0.004928
0.010438
0.007149
-0.009426
0.010137
0.010181
-0.010523
0.007926
0.000296
0.009241
-0.007509
-0.006471
-0.008840
-0.003768
0.005304
-0.004635
0.003784
0.011376
0.000543
0.003923
-0.001669
0.010938
0.000757
-0.003205
0.006583
-0.002819
0.010872
0.002556
0.002964
-0.002490
-0.000779
0.005163
0.011060
-0.010838
0.000211
-0.010866
-0.010281
0.000704
0.001589
-0.000550
-0.000494
-0.000803
-0.000623
-0.009346
0.000423
0.001272
0.001235
-0.006523
-0.010137
-0.008803
-0.010939
0.010258
0.006899
0.011306
0.010409
0.009226
-0.010590
-0.011113
0.011126
0.001425
0.011082
-0.010904
-0.008510
0.011441
0.011195
0.001314
-0.000014
0.001561
-0.005350
-0.006617
0.009528
0.004982
-0.003372
-0.009264
-0.000287
-0.007595
0.004463
-0.008949
0.009882
-0.001650
0.009027
-0.006379
0.009643
0.007158
-0.010004
-0.010759
0.000371
0.010775
0.006415
0.009629
0.005848
0.003590
0.000687
0.010075
-0.004862
-0.005398
0.002302
0.000373
-0.003076
0.010655
0.003277
-0.010017
0.001015
-0.002524
0.002409
-0.001796
-0.000835
0.001220
-0.006108
-0.008812
-0.007839
-0.008309
0.006242
0.006519
-0.006185
-0.008625
0.004793
0.008941
-0.000494
-0.010765
0.006939
-0.004422
0.000164
-0.001043
-0.010854
-0.003462
0.008096
0.010549
0.011112
0.006305
-0.001979
-0.004064
0.010031
0.007343
0.005860
0.008681
0.000788
-0.002853
0.003703
0.011098
0.005477
-0.002007
0.010838
0.004287
0.000983
0.001551
-0.003272
0.011130
-0.000935
-0.010634
0.010013
0.010958
0.010536
-0.000334
0.001888
-0.010324
-0.010774
0.010094
-0.009554
0.000516
0.009819
0.001754
0.000814
-0.000848
0.001688
-0.000454
-0.000846
-0.006336
0.000915
0.011120
0.000776
0.001842
0.011331
-0.011153
-0.007996
-0.010879
0.010931
0.001810
-0.010737
0.009584
-0.007544
0.001752
-0.000252
0.009130
0.001885
0.005764
0.006446
-0.006007
-0.008070
0.007851
-0.009182
0.000449
0.006722
0.002078
-0.002493
0.003174
0.002199
0.001149
0.000990
-0.010131
-0.010547
-0.005989
-0.006583
0.003970
-0.007491
-0.003648
0.008449
0.005255
0.007109
-0.002551
0.009801
0.009871
-0.001335
0.000827
-0.001010
-0.005905
-0.005590
0.001006
-0.005083
-0.007240
-0.000746
-0.001339
0.011391
0.005915
-0.010427
-0.010092
0.008509
0.000461
-0.011196
0.004163
0.001411
-0.008471
0.006127
-0.010577
0.002977
0.005851
-0.005979
-0.008220
0.009710
-0.002129
-0.003067
0.010211
-0.010479
-0.011091
-0.006909
0.009529
0.009258
-0.003543
-0.009593
0.005643
-0.004776
-0.002175
0.007779
0.005018
0.004678
-0.001115
0.010403
0.001957
0.002883
0.010888
-0.000266
-0.001866
0.001266
-0.004603
0.009592
0.010172
-0.000052
0.000333
0.010464
0.009874
0.001626
-0.010692
0.009599
0.009747
0.010814
-0.010731
0.002079
-0.000325
-0.000854
-0.000964
-0.008913
0.001814
-0.000786
-0.009754
0.001107
0.010932
0.010181
-0.011030
0.000743
0.006458
0.009055
-0.005265
0.002006
-0.000532
0.010719
0.002061
0.010722
0.001951
-0.010552
0.008609
-0.003029
0.004535
0.002448
-0.008004
-0.006312
-0.000552
-0.008862
0.003909
0.008368
-0.010001
0.009742
0.009079
-0.002595
-0.001816
-0.005886
-0.005037
0.004534
-0.010768
-0.009894
0.010555
-0.010443
0.009261
-0.004322
-0.007960
0.001184
0.001424
0.002603
-0.005747
0.009511
-0.007224
0.002795
-0.000674
0.005631
-0.001092
-0.010386
0.010422
0.009129
-0.010312
0.000899
0.003551
-0.007833
-0.008834
0.006663
0.007264
-0.003976
0.005246
0.008295
0.003341
-0.009536
-0.005400
-0.003697
0.006331
-0.001024
0.007472
-0.002707
0.005903
0.000178
0.002396
0.009166
-0.004870
0.000715
0.000208
-0.004763
0.006074
0.001577
0.001469
-0.010964
-0.004211
0.004850
-0.007080
0.009537
-0.005430
-0.005643
-0.001641
-0.001519
-0.000461
-0.001578
0.009557
-0.008536
-0.002788
0.009448
0.005885
-0.006021
0.010614
0.009127
0.001708
0.000152
-0.000993
0.001282
0.000862
-0.001010
0.000358
0.009799
0.001715
0.010135
-0.000627
0.010632
0.010548
0.002238
-0.000627
0.011172
-0.000317
-0.010193
-0.000284
0.002320
-0.010494
-0.011484
-0.005795
0.011549
0.002086
-0.004615
0.000647
-0.010615
-0.011423
-0.007049
0.009142
0.002459
-0.010483
0.002629
-0.009479
0.010635
0.010764
-0.000054
-0.001112
0.001735
0.002327
0.005387
-0.004452
-0.005786
0.007112
-0.000768
-0.002370
0.009434
0.009832
-0.009624
0.005916
-0.009889
0.002481
-0.001167
0.001269
0.004603
0.005957
-0.010772
-0.005241
0.007803
-0.004026
-0.006046
0.005118
0.000779
-0.003330
0.002940
0.002855
-0.005478
-0.004307
0.000245
0.002286
-0.000035
-0.000919
0.000862
-0.002114
0.011018
0.005182
-0.001285
-0.006811
0.010430
0.006465
0.008961
0.007750
0.005411
0.009364
0.008763
0.003543
-0.010106
0.005512
0.005789
-0.008332
-0.010497
-0.003151
-0.008068
-0.009737
0.010703
-0.005607
-0.011146
-0.006627
-0.000052
0.009328
-0.007580
0.001515
0.009193
-0.010386
-0.001224
-0.009089
0.010764
-0.005160
0.002512
0.003933
-0.002418
0.004376
0.004065
0.006464
-0.005532
-0.002120
-0.007654
-0.007023
0.008661
0.001913
0.009066
0.000656
0.000361
0.009134
-0.004640
0.009059
-0.010832
-0.010648
-0.000638
-0.001077
0.009200
0.001190
0.001690
-0.000939
-0.000869
0.010348
0.009770
0.002455
-0.010338
0.010100
-0.001156
-0.010018
0.001997
-0.005295
-0.000435
0.010527
0.002684
0.008753
0.000489
-0.009143
0.002186
-0.010367
0.011672
0.010462
-0.000302
0.003226
-0.008397
-0.011594
0.002926
0.010889
-0.007347
-0.003619
0.008113
-0.000238
-0.007198
0.002610
0.002009
-0.005316
-0.007926
-0.008198
0.005759
0.009047
0.003450
0.008276
-0.009341
0.008944
0.008544
0.000664
-0.004882
-0.001921
0.011078
0.003076
-0.003339
-0.001079
-0.009118
0.003729
-0.005277
-0.010744
-0.002680
0.000616
0.001011
-0.000037
0.001876
-0.005572
-0.010904
-0.004986
0.001523
0.004599
0.008689
-0.004257
0.010687
-0.003425
-0.007338
-0.009572
0.010302
-0.009866
0.005554
0.007226
-0.007600
-0.006958
0.003318
0.008826
-0.004759
-0.006875
-0.006084
0.008759
0.008692
-0.000417
0.002543
-0.000276
0.003897
0.010076
0.006104
0.000650
-0.001480
0.010227
0.000547
0.007208
0.001879
0.009456
0.005001
0.004220
-0.006648
-0.002482
0.003307
0.008621
-0.000785
0.005136
0.005246
-0.002082
0.009027
-0.010189
-0.001212
-0.004833
-0.001133
-0.011407
-0.000670
0.001062
0.002811
0.001456
0.002049
-0.000816
-0.010320
-0.010487
-0.001229
0.011445
-0.004142
0.000282
0.002706
-0.008831
-0.000928
0.002413
0.008236
0.010532
0.008355
-0.006539
-0.010242
0.001071
0.011170
0.006798
0.005899
0.010346
0.002939
0.002260
0.000188
0.010373
-0.003756
-0.005078
0.002946
-0.003019
0.008598
-0.010530
-0.010205
0.009462
-0.000301
0.003634
-0.006746
0.005019
0.002286
0.002678
0.007795
-0.002400
-0.004522
0.006997
0.005930
0.008718
-0.008988
-0.000427
-0.000864
0.002821
0.010261
0.008040
0.001076
0.009527
-0.002280
-0.005013
-0.004332
-0.009967
0.004664
0.010724
0.008026
-0.010273
-0.005596
0.003076
0.005144
-0.010176
0.001718
0.000351
0.003587
0.000664
-0.004589
-0.006300
0.011045
-0.001755
0.004905
0.008134
-0.006693
0.010032
-0.000974
0.008749
0.008388
-0.008573
-0.007679
-0.009568
0.003046
0.000420
0.004291
-0.011053
-0.006377
0.009098
-0.010002
0.002207
-0.004648
0.002544
0.001388
0.008289
-0.000877
0.003976
0.000245
0.002558
0.011530
0.008614
-0.000577
0.006485
0.009116
-0.001792
-0.009362
-0.002958
0.006332
0.003739
0.000311
-0.005089
0.004863
0.003147
-0.004033
-0.003464
-0.000545
0.008486
-0.004703
0.005524
-0.007669
0.008152
-0.001529
0.007750
-0.006619
0.000500
0.001810
0.002847
0.008543
0.001247
0.004661
0.009773
0.000954
-0.000663
-0.000661
-0.001304
-0.000961
-0.001260
-0.010655
0.010273
0.010195
-0.000643
0.001349
0.001818
-0.007111
0.002490
-0.008439
0.002441
-0.001243
0.008376
0.010410
-0.010477
0.000075
-0.004102
-0.010183
0.008533
0.003038
0.003567
0.010206
-0.002760
-0.008801
0.005263
-0.010240
-0.009703
-0.010347
0.003229
-0.011120
0.005209
0.003328
0.003248
-0.000459
0.004723
-0.006657
-0.005146
0.002443
-0.004117
-0.002137
-0.007963
0.008383
-0.008042
0.007816
-0.000890
-0.009237
0.008632
0.004956
0.009233
-0.000246
-0.009640
-0.003788
0.002845
0.010656
-0.004550
0.009740
0.000763
0.007973
0.010062
0.001676
-0.000231
-0.010257
0.000528
-0.001171
-0.010487
0.003573
-0.001393
-0.000898
0.001556
0.004255
0.003907
0.007464
-0.010358
0.003123
-0.006044
0.002835
0.002407
0.000233
0.007697
0.010988
0.002071
-0.008655
-0.003355
-0.000031
-0.005875
-0.002806
0.008788
0.007806
-0.001472
0.001036
0.006681
0.004756
0.005653
0.002953
0.003284
-0.004861
-0.004895
-0.007227
0.009886
0.003626
0.003255
-0.001744
-0.003750
-0.004499
0.004522
-0.002029
-0.006460
-0.005284
0.005636
0.002701
0.008031
-0.010074
-0.010096
-0.002930
0.001366
0.008136
-0.008998
-0.008740
0.007592
0.004478
-0.005901
-0.000020
-0.006142
-0.004355
-0.001390
0.000800
0.009446
0.002072
-0.000518
0.003457
-0.003813
0.006209
0.000807
0.007001
0.002741
0.005354
0.001267
-0.000942
0.010256
-0.001364
0.001662
-0.000842
0.002168
0.011172
0.010695
0.002913
-0.001208
0.008428
0.010127
-0.010519
0.009953
-0.000110
0.004586
-0.010752
-0.007564
0.000301
0.001363
0.003286
0.002682
0.010143
0.003318
0.008895
0.002795
-0.010042
-0.001167
-0.010161
-0.004339
-0.009992
0.008117
-0.007017
-0.009266
-0.009783
0.007919
0.003187
0.003903
0.000038
0.004291
0.007467
-0.004760
0.002659
-0.007589
0.006431
0.008448
0.005696
0.005250
-0.008686
0.002308
0.009456
0.008343
0.003331
0.009646
-0.004911
-0.002275
-0.006440
-0.001424
0.000601
-0.003898
0.001968
0.010310
-0.006822
-0.003218
-0.001938
-0.001183
0.005083
-0.009815
-0.001428
-0.007671
-0.010032
0.007270
0.001623
0.002299
0.002435
0.004329
0.010837
0.003181
0.006771
0.007392
-0.000667
-0.003976
0.008937
-0.005459
-0.008234
0.010458
-0.003550
-0.001399
-0.003562
0.003944
0.000722
0.001327
-0.009422
0.002515
0.007377
0.001160
0.002553
-0.009803
-0.000595
0.004364
0.004876
0.007468
-0.004694
-0.004285
0.008834
-0.004105
0.007966
0.008143
-0.001835
0.003124
0.005441
0.003805
0.007467
0.003371
0.000365
0.004048
-0.001148
0.002186
-0.002586
-0.006139
-0.006328
0.010479
0.007505
0.000066
-0.007314
-0.000457
0.007660
-0.005827
0.006087
0.008040
0.001176
0.009158
0.003132
-0.000977
0.001879
0.000632
0.006324
0.003527
-0.001459
0.001163
-0.010594
-0.010230
-0.008458
-0.001156
-0.000541
0.001573
0.003411
0.001999
-0.000312
0.010619
-0.001377
0.008068
0.009723
0.002958
0.000812
-0.007124
-0.001126
-0.008976
-0.009888
0.004128
0.003365
-0.009557
0.010009
0.010083
0.009948
0.009988
-0.010208
0.003269
-0.010000
0.000074
0.003393
-0.010025
-0.009991
0.009332
0.003461
-0.006704
0.007545
-0.000849
-0.007816
0.005228
0.005919
-0.007565
0.007757
0.002906
0.009177
-0.002036
0.001673
-0.000017
-0.009406
0.009031
0.009368
0.006814
0.010455
0.009823
-0.003276
-0.002574
-0.006647
-0.001639
0.007241
0.002603
-0.000932
0.009772
0.000430
0.001433
-0.009602
0.001915
0.003199
-0.009733
-0.004232
-0.003897
-0.001381
0.004581
0.003651
0.003288
0.004104
-0.010002
-0.000810
0.000392
0.008051
0.006914
0.005730
-0.008933
0.008107
-0.005642
0.009941
-0.010132
-0.004511
0.000947
0.006674
0.008488
0.002475
0.004417
0.007432
-0.003757
0.010053
-0.004497
0.008840
-0.000016
0.009649
0.005109
0.008637
0.001882
0.002299
-0.007209
0.003904
-0.005975
0.000351
-0.005722
-0.004983
0.002129
-0.006426
-0.009877
0.007126
0.007564
-0.006272
-0.003012
0.005982
0.004134
0.010383
0.004725
0.002904
0.001457
0.000384
0.010277
0.007390
0.003028
-0.001521
-0.000810
0.000162
0.000446
0.003260
-0.008378
0.002824
0.001025
-0.008696
0.002118
0.008535
0.002294
0.002467
-0.001507
-0.001172
0.009452
-0.003914
-0.010426
0.001497
0.003592
0.003796
0.001892
-0.002854
0.010254
-0.001350
-0.005300
-0.009306
-0.001005
-0.004936
-0.000576
0.004132
-0.009841
0.003384
-0.009848
-0.010093
0.009868
0.009885
0.006813
-0.007846
-0.000160
-0.000512
0.003658
0.001145
0.004098
-0.004244
0.007487
0.007519
-0.009896
-0.006021
0.003779
-0.000374
-0.007358
0.007603
-0.002819
-0.008346
0.007323
0.000026
0.008051