# vtk DataFile Version 2.0
Test
ASCII
DATASET POLYDATA
POINTS 4677 float
0.000000 0.000000 0.000000
0.080000 0.000000 0.000000
0.080000 0.160000 0.000000
0.000000 0.160000 0.000000
0.036000 0.073072 0.000000
0.044000 0.086928 0.000000
0.024500 0.065566 0.000000
0.055500 0.093560 0.000000
0.001000 0.050000 0.000000
0.079000 0.110000 0.000000
0.002963 0.000000 0.000000
0.005926 0.000000 0.000000
0.008889 0.000000 0.000000
0.011852 0.000000 0.000000
0.014815 0.000000 0.000000
0.017778 0.000000 0.000000
0.020741 0.000000 0.000000
0.023704 0.000000 0.000000
0.026667 0.000000 0.000000
0.029630 0.000000 0.000000
0.032593 0.000000 0.000000
0.035556 0.000000 0.000000
0.038519 0.000000 0.000000
0.041481 0.000000 0.000000
0.044444 0.000000 0.000000
0.047407 0.000000 0.000000
0.050370 0.000000 0.000000
0.053333 0.000000 0.000000
0.056296 0.000000 0.000000
0.059259 0.000000 0.000000
0.062222 0.000000 0.000000
0.065185 0.000000 0.000000
0.068148 0.000000 0.000000
0.071111 0.000000 0.000000
0.074074 0.000000 0.000000
0.077037 0.000000 0.000000
0.080000 0.002963 0.000000
0.080000 0.005926 0.000000
0.080000 0.008889 0.000000
0.080000 0.011852 0.000000
0.080000 0.014815 0.000000
0.080000 0.017778 0.000000
0.080000 0.020741 0.000000
0.080000 0.023704 0.000000
0.080000 0.026667 0.000000
0.080000 0.029630 0.000000
0.080000 0.032593 0.000000
0.080000 0.035556 0.000000
0.080000 0.038519 0.000000
0.080000 0.041481 0.000000
0.080000 0.044444 0.000000
0.080000 0.047407 0.000000
0.080000 0.050370 0.000000
0.080000 0.053333 0.000000
0.080000 0.056296 0.000000
0.080000 0.059259 0.000000
0.080000 0.062222 0.000000
0.080000 0.065185 0.000000
0.080000 0.068148 0.000000
0.080000 0.071111 0.000000
0.080000 0.074074 0.000000
0.080000 0.077037 0.000000
0.080000 0.080000 0.000000
0.080000 0.082963 0.000000
0.080000 0.085926 0.000000
0.080000 0.088889 0.000000
0.080000 0.091852 0.000000
0.080000 0.094815 0.000000
0.080000 0.097778 0.000000
0.080000 0.100741 0.000000
0.080000 0.103704 0.000000
0.080000 0.106667 0.000000
0.080000 0.109630 0.000000
0.080000 0.112593 0.000000
0.080000 0.115556 0.000000
0.080000 0.118519 0.000000
0.080000 0.121481 0.000000
0.080000 0.124444 0.000000
0.080000 0.127407 0.000000
0.080000 0.130370 0.000000
0.080000 0.133333 0.000000
0.080000 0.136296 0.000000
0.080000 0.139259 0.000000
0.080000 0.142222 0.000000
0.080000 0.145185 0.000000
0.080000 0.148148 0.000000
0.080000 0.151111 0.000000
0.080000 0.154074 0.000000
0.080000 0.157037 0.000000
0.077037 0.160000 0.000000
0.074074 0.160000 0.000000
0.071111 0.160000 0.000000
0.068148 0.160000 0.000000
0.065185 0.160000 0.000000
0.062222 0.160000 0.000000
0.059259 0.160000 0.000000
0.056296 0.160000 0.000000
0.053333 0.160000 0.000000
0.050370 0.160000 0.000000
0.047407 0.160000 0.000000
0.044444 0.160000 0.000000
0.041481 0.160000 0.000000
0.038519 0.160000 0.000000
0.035556 0.160000 0.000000
0.032593 0.160000 0.000000
0.029630 0.160000 0.000000
0.026667 0.160000 0.000000
0.023704 0.160000 0.000000
0.020741 0.160000 0.000000
0.017778 0.160000 0.000000
0.014815 0.160000 0.000000
0.011852 0.160000 0.000000
0.008889 0.160000 0.000000
0.005926 0.160000 0.000000
0.002963 0.160000 0.000000
0.000000 0.157037 0.000000
0.000000 0.154074 0.000000
0.000000 0.151111 0.000000
0.000000 0.148148 0.000000
0.000000 0.145185 0.000000
0.000000 0.142222 0.000000
0.000000 0.139259 0.000000
0.000000 0.136296 0.000000
0.000000 0.133333 0.000000
0.000000 0.130370 0.000000
0.000000 0.127407 0.000000
0.000000 0.124444 0.000000
0.000000 0.121481 0.000000
0.000000 0.118519 0.000000
0.000000 0.115556 0.000000
0.000000 0.112593 0.000000
0.000000 0.109630 0.000000
0.000000 0.106667 0.000000
0.000000 0.103704 0.000000
0.000000 0.100741 0.000000
0.000000 0.097778 0.000000
0.000000 0.094815 0.000000
0.000000 0.091852 0.000000
0.000000 0.088889 0.000000
0.000000 0.085926 0.000000
0.000000 0.082963 0.000000
0.000000 0.080000 0.000000
0.000000 0.077037 0.000000
0.000000 0.074074 0.000000
0.000000 0.071111 0.000000
0.000000 0.068148 0.000000
0.000000 0.065185 0.000000
0.000000 0.062222 0.000000
0.000000 0.059259 0.000000
0.000000 0.056296 0.000000
0.000000 0.053333 0.000000
0.000000 0.050370 0.000000
0.000000 0.047407 0.000000
0.000000 0.044444 0.000000
0.000000 0.041481 0.000000
0.000000 0.038519 0.000000
0.000000 0.035556 0.000000
0.000000 0.032593 0.000000
0.000000 0.029630 0.000000
0.000000 0.026667 0.000000
0.000000 0.023704 0.000000
0.000000 0.020741 0.000000
0.000000 0.017778 0.000000
0.000000 0.014815 0.000000
0.000000 0.011852 0.000000
0.000000 0.008889 0.000000
0.000000 0.005926 0.000000
0.000000 0.002963 0.000000
0.035500 0.072746 0.000000
0.035000 0.072419 0.000000
0.034500 0.072093 0.000000
0.034000 0.071767 0.000000
0.033500 0.071440 0.000000
0.033000 0.071114 0.000000
0.032500 0.070788 0.000000
0.032000 0.070461 0.000000
0.031500 0.070135 0.000000
0.031000 0.069809 0.000000
0.030500 0.069482 0.000000
0.030000 0.069156 0.000000
0.029500 0.068829 0.000000
0.029000 0.068503 0.000000
0.028500 0.068177 0.000000
0.028000 0.067850 0.000000
0.027500 0.067524 0.000000
0.027000 0.067198 0.000000
0.026500 0.066871 0.000000
0.026000 0.066545 0.000000
0.025500 0.066219 0.000000
0.025000 0.065892 0.000000
0.044500 0.087216 0.000000
0.045000 0.087505 0.000000
0.045500 0.087793 0.000000
0.046000 0.088081 0.000000
0.046500 0.088370 0.000000
0.047000 0.088658 0.000000
0.047500 0.088946 0.000000
0.048000 0.089235 0.000000
0.048500 0.089523 0.000000
0.049000 0.089811 0.000000
0.049500 0.090100 0.000000
0.050000 0.090388 0.000000
0.050500 0.090677 0.000000
0.051000 0.090965 0.000000
0.051500 0.091253 0.000000
0.052000 0.091542 0.000000
0.052500 0.091830 0.000000
0.053000 0.092118 0.000000
0.053500 0.092407 0.000000
0.054000 0.092695 0.000000
0.054500 0.092983 0.000000
0.055000 0.093272 0.000000
0.043704 0.086415 0.000000
0.043407 0.085902 0.000000
0.043111 0.085388 0.000000
0.042815 0.084875 0.000000
0.042519 0.084362 0.000000
0.042222 0.083849 0.000000
0.041926 0.083336 0.000000
0.041630 0.082823 0.000000
0.041333 0.082309 0.000000
0.041037 0.081796 0.000000
0.040741 0.081283 0.000000
0.040444 0.080770 0.000000
0.040148 0.080257 0.000000
0.039852 0.079743 0.000000
0.039556 0.079230 0.000000
0.039259 0.078717 0.000000
0.038963 0.078204 0.000000
0.038667 0.077691 0.000000
0.038370 0.077177 0.000000
0.038074 0.076664 0.000000
0.037778 0.076151 0.000000
0.037481 0.075638 0.000000
0.037185 0.075125 0.000000
0.036889 0.074612 0.000000
0.036593 0.074098 0.000000
0.036296 0.073585 0.000000
0.024000 0.065235 0.000000
0.023500 0.064904 0.000000
0.023000 0.064572 0.000000
0.022500 0.064241 0.000000
0.022000 0.063910 0.000000
0.021500 0.063579 0.000000
0.021000 0.063248 0.000000
0.020500 0.062916 0.000000
0.020000 0.062585 0.000000
0.019500 0.062254 0.000000
0.019000 0.061923 0.000000
0.018500 0.061592 0.000000
0.018000 0.061261 0.000000
0.017500 0.060929 0.000000
0.017000 0.060598 0.000000
0.016500 0.060267 0.000000
0.016000 0.059936 0.000000
0.015500 0.059605 0.000000
0.015000 0.059273 0.000000
0.014500 0.058942 0.000000
0.014000 0.058611 0.000000
0.013500 0.058280 0.000000
0.013000 0.057949 0.000000
0.012500 0.057617 0.000000
0.012000 0.057286 0.000000
0.011500 0.056955 0.000000
0.011000 0.056624 0.000000
0.010500 0.056293 0.000000
0.010000 0.055961 0.000000
0.009500 0.055630 0.000000
0.009000 0.055299 0.000000
0.008500 0.054968 0.000000
0.008000 0.054637 0.000000
0.007500 0.054305 0.000000
0.007000 0.053974 0.000000
0.006500 0.053643 0.000000
0.006000 0.053312 0.000000
0.005500 0.052981 0.000000
0.005000 0.052650 0.000000
0.004500 0.052318 0.000000
0.004000 0.051987 0.000000
0.003500 0.051656 0.000000
0.003000 0.051325 0.000000
0.002500 0.050994 0.000000
0.002000 0.050662 0.000000
0.001500 0.050331 0.000000
0.055990 0.093902 0.000000
0.056479 0.094245 0.000000
0.056969 0.094587 0.000000
0.057458 0.094930 0.000000
0.057948 0.095272 0.000000
0.058437 0.095615 0.000000
0.058927 0.095957 0.000000
0.059417 0.096300 0.000000
0.059906 0.096642 0.000000
0.060396 0.096985 0.000000
0.060885 0.097327 0.000000
0.061375 0.097670 0.000000
0.061865 0.098012 0.000000
0.062354 0.098355 0.000000
0.062844 0.098697 0.000000
0.063333 0.099040 0.000000
0.063823 0.099382 0.000000
0.064312 0.099725 0.000000
0.064802 0.100067 0.000000
0.065292 0.100410 0.000000
0.065781 0.100752 0.000000
0.066271 0.101095 0.000000
0.066760 0.101437 0.000000
0.067250 0.101780 0.000000
0.067740 0.102122 0.000000
0.068229 0.102465 0.000000
0.068719 0.102807 0.000000
0.069208 0.103150 0.000000
0.069698 0.103492 0.000000
0.070187 0.103835 0.000000
0.070677 0.104177 0.000000
0.071167 0.104520 0.000000
0.071656 0.104862 0.000000
0.072146 0.105205 0.000000
0.072635 0.105547 0.000000
0.073125 0.105890 0.000000
0.073615 0.106232 0.000000
0.074104 0.106575 0.000000
0.074594 0.106917 0.000000
0.075083 0.107260 0.000000
0.075573 0.107602 0.000000
0.076062 0.107945 0.000000
0.076552 0.108287 0.000000
0.077042 0.108630 0.000000
0.077531 0.108972 0.000000
0.078021 0.109315 0.000000
0.078510 0.109658 0.000000
0.043942 0.087469 0.000000
0.035556 0.157037 0.000000
0.044420 0.002920 0.000000
0.077037 0.038519 0.000000
0.002963 0.121481 0.000000
0.077037 0.059259 0.000000
0.002963 0.109630 0.000000
0.002923 0.098139 0.000000
0.077153 0.126913 0.000000
0.002808 0.032596 0.000000
0.077140 0.071061 0.000000
0.002963 0.085926 0.000000
0.002963 0.136296 0.000000
0.077041 0.023701 0.000000
0.056296 0.157037 0.000000
0.032593 0.002963 0.000000
0.077037 0.080000 0.000000
0.002813 0.077135 0.000000
0.077037 0.142222 0.000000
0.017778 0.157037 0.000000
0.062222 0.002963 0.000000
0.076992 0.088722 0.000000
0.002945 0.020743 0.000000
0.017777 0.002962 0.000000
0.002801 0.068434 0.000000
0.002959 0.011851 0.000000
0.065186 0.157038 0.000000
0.002963 0.148148 0.000000
0.077037 0.011852 0.000000
0.076887 0.094740 0.000000
0.077092 0.115875 0.000000
0.002677 0.044265 0.000000
0.077038 0.148148 0.000000
0.002985 0.062165 0.000000
0.077037 0.047407 0.000000
0.011852 0.002963 0.000000
[...]
POINT_DATA 4677
SCALARS UX float 1
LOOKUP_TABLE default
-0.000000
0.000000
0.004969
-0.004937
-0.000392
-0.000387
-0.003469
0.002979
-0.005630
0.005228
-0.000000
-0.000000
-0.000000
-0.000000
-0.000000
-0.000000
-0.000000
-0.000000
-0.000000
-0.000000
-0.000000
-0.000000
-0.000000
0.000000
0.000000
0.000000
0.000000
0.000000
0.000000
0.000000
0.000000
0.000000
0.000000
0.000000
0.000000
-0.000000
0.001201
0.001874
0.002377
0.002784
0.003126
0.003415
0.003662
0.003869
0.004051
0.004205
0.004356
0.004467
0.004556
0.004634
0.004656
0.004702
0.004738
0.004770
0.004803
0.004837
0.004878
0.004927
0.004985
0.005055
0.005130
0.005211
0.005306
0.005402
0.005504
0.005605
0.005659
0.005676
0.005659
0.005610
0.005537
0.005457
0.005370
0.005290
0.005221
0.005163
0.005115
0.005080
0.005052
0.005031
0.005014
0.005002
0.004993
0.004985
0.004980
0.004976
0.004973
0.004971
0.004970
0.004594
0.004219
0.003845
0.003472
0.003101
0.002730
0.002361
0.001992
0.001625
0.001259
0.000894
0.000530
0.000166
-0.000197
-0.000560
-0.000923
-0.001285
-0.001648
-0.002012
-0.002376
-0.002740
-0.003105
-0.003471
-0.003837
-0.004203
-0.004570
-0.004937
-0.004935
-0.004934
-0.004932
-0.004929
-0.004927
-0.004926
-0.004925
-0.004926
-0.004929
-0.004933
-0.004940
-0.004950
-0.004963
-0.004979
-0.004999
-0.005024
-0.005054
-0.005091
-0.005138
-0.005194
-0.005262
-0.005342
-0.005433
-0.005531
-0.005630
-0.005754
-0.005864
-0.005977
-0.006090
-0.006145
-0.006180
-0.006159
-0.006111
-0.006013
-0.005895
-0.005763
-0.005627
-0.005513
-0.005402
-0.005309
-0.005195
-0.005075
-0.004950
-0.004799
-0.004578
-0.004321
-0.004037
-0.003673
-0.003259
-0.002791
-0.002191
-0.001428
0.000027
-0.000271
-0.000725
-0.000758
-0.000879
-0.001050
-0.001258
-0.001247
-0.001275
-0.001479
-0.001636
-0.001828
-0.001994
-0.002160
-0.002302
-0.002458
-0.002638
-0.002785
-0.002901
-0.002986
-0.003138
-0.003302
-0.000118
0.000099
0.000298
0.000050
0.000223
0.000564
0.000918
0.000926
0.000744
0.000799
0.001192
0.001343
0.001681
0.001909
0.001298
0.001500
0.001927
0.002170
0.002428
0.002428
0.002394
0.002667
-0.000307
-0.000283
-0.000237
-0.000205
-0.000184
-0.000169
-0.000166
-0.000158
-0.000162
-0.000166
-0.000178
-0.000190
-0.000209
-0.000231
-0.000247
-0.000265
-0.000275
-0.000285
-0.000296
-0.000303
-0.000299
-0.000295
-0.000272
-0.000251
-0.000224
-0.000271
-0.003473
-0.003533
-0.003594
-0.003615
-0.003641
-0.003674
-0.003711
-0.003749
-0.003790
-0.003833
-0.003878
-0.003924
-0.003972
-0.004020
-0.004070
-0.004120
-0.004171
-0.004223
-0.004274
-0.004326
-0.004379
-0.004431
-0.004484
-0.004536
-0.004589
-0.004641
-0.004693
-0.004744
-0.004795
-0.004845
-0.004896
-0.004945
-0.004994
-0.005043
-0.005091
-0.005139
-0.005186
-0.005232
-0.005278
-0.005324
-0.005369
-0.005413
-0.005458
-0.005502
-0.005545
-0.005588
0.002966
0.002999
0.003058
0.003062
0.003083
0.003104
0.003131
0.003161
0.003195
0.003232
0.003272
0.003315
0.003360
0.003407
0.003455
0.003504
0.003555
0.003606
0.003659
0.003712
0.003765
0.003819
0.003874
0.003928
0.003983
0.004038
0.004093
0.004148
0.004202
0.004257
0.004312
0.004366
0.004421
0.004475
0.004529
0.004583
0.004637
0.004691
0.004745
0.004798
0.004851
0.004905
0.004959
0.005013
0.005067
0.005120
0.005174
-0.000237
-0.000560
0.000032
0.004215
-0.004575
0.004463
-0.004647
-0.004814
0.004685
-0.004781
0.004686
-0.005164
-0.004554
0.003537
0.001993
-0.000116
0.004947
-0.005544
0.004607
-0.002739
0.000256
0.005250
-0.004018
-0.000353
-0.005835
-0.002936
0.003101
-0.004564
0.002427
0.005311
0.004828
-0.005206
0.004599
-0.005844
0.004344
-0.000491
0.003846
-0.004203
0.000532
-0.005714
0.005261
0.004632
0.000166
0.000894
-0.000201
-0.004556
0.003877
-0.002010
0.000174
0.004594
0.004771
-0.005068
-0.000139
0.004727
-0.004986
-0.005778
-0.005649
0.005053
-0.004961
-0.005267
0.004547
0.004754
0.004403
-0.004729
0.005167
-0.004606
-0.004642
-0.004478
0.004258
-0.001281
0.004624
0.000104
-0.000002
-0.004560
0.004012
-0.000041
-0.003699
-0.000261
0.002361
0.001259
-0.004558
0.003078
-0.002428
-0.000581
-0.001622
-0.003470
0.000368
0.004597
-0.000800
-0.000783
-0.004568
0.001439
-0.004570
0.000713
0.005050
-0.000331
-0.005469
-0.005605
0.005150
-0.000343
-0.000018
0.003867
0.004393
-0.004367
-0.004895
0.004496
0.001256
-0.004190
0.004251
-0.000405
-0.004826
-0.003365
-0.005582
0.004609
0.004866
0.001962
-0.002583
-0.001000
-0.001469
0.004225
-0.004201
0.001097
0.004983
-0.005359
0.005344
-0.005884
0.005324
-0.005783
-0.005633
0.005160
0.004734
-0.004929
0.005211
-0.005438
0.004850
-0.005048
-0.004882
0.004630
0.004510
-0.004786
-0.004686
0.004440
-0.004630
0.004382
0.004656
0.004308
-0.004593
-0.000193
-0.004569
0.004127
-0.000917
0.000068
0.000533
-0.004269
-0.001644
0.000137
-0.000076
0.004617
-0.004554
0.003718
0.001626
-0.000159
-0.002373
0.000212
-0.003344
-0.000298
0.002730
-0.004556
0.003329
-0.000431
-0.004561
0.002782
0.003473
0.004602
-0.003104
0.000304
0.004220
0.004596
-0.003836
0.000443
-0.004566
0.001995
-0.005537
0.005131
0.005017
-0.005426
-0.005452
-0.000062
-0.000412
0.005198
-0.005678
0.004494
-0.004820
0.000095
0.000040
0.000162
0.004154
-0.004592
-0.004329
0.004236
-0.004611
-0.000911
-0.002371
-0.005464
0.000267
0.003377
0.005024
-0.004188
-0.003103
0.005064
0.002429
-0.004193
0.000622
0.004943
-0.005373
0.004393
0.004086
-0.004271
0.004032
-0.004231
0.000524
-0.004189
0.002731
-0.000610
-0.000851
-0.004199
0.003473
0.004222
-0.005427
0.005020
-0.005081
0.004692
0.004614
-0.005608
0.004396
-0.005111
-0.005473
0.004963
0.004726
-0.004424
0.004989
-0.004632
-0.004696
-0.004921
0.004269
0.004328
-0.004733
0.003801
-0.000162
-0.000087
-0.004216
0.003966
0.003918
0.000129
0.000056
-0.004805
0.004288
0.000899
-0.001640
0.001614
-0.004207
-0.004195
0.004240
0.004226
0.004263
-0.000205
-0.003970
-0.000314
0.002358
-0.003011
-0.000506
0.002975
0.000423
-0.003670
-0.002101
-0.001191
0.004220
-0.003835
0.000880
0.001627
-0.004466
-0.000452
-0.000104
0.004921
-0.005367
-0.005539
0.005199
-0.005570
0.005097
-0.000380
0.000158
-0.000088
0.000143
-0.000249
-0.000129
0.003588
0.003985
-0.004412
0.000568
-0.003849
-0.004113
0.003937
0.004406
-0.000508
0.001656
-0.003597
-0.003019
-0.001279
-0.005257
0.004812
0.004083
0.000241
-0.005336
0.003711
0.000067
0.003890
-0.000762
0.002370
0.003852
-0.003827
-0.003832
0.001329
-0.000032
-0.005518
0.005032
-0.004385
-0.005595
-0.004392
-0.005214
-0.004622
-0.004509
0.003559
0.004194
0.004499
0.004124
-0.004302
0.004062
0.004243
-0.004250
0.004321
0.004928
-0.004503
0.000138
-0.000229
-0.001265
-0.004185
0.003998
0.000197
-0.001998
-0.003859
0.000903
0.003470
-0.004215
0.000343
-0.002733
0.004233
0.003192
-0.002668
-0.001758
0.002727
0.003847
0.003102
-0.000726
-0.004190
0.000513
-0.000558
-0.003468
-0.004196
0.003846
0.002071
0.000741
-0.004582
0.004230
-0.004737
-0.000505
-0.005456
-0.000423
0.000049
0.004979
-0.005167
0.004763
-0.000344
0.000371
0.004895
-0.005472
-0.005286
0.005014
0.004866
0.000241
0.000315
0.000316
-0.005351
-0.004865
-0.000338
0.000445
0.003800
-0.004022
-0.004119
-0.004028
0.003975
0.000553
-0.005031
-0.004499
-0.001616
0.004755
-0.003822
0.000395
0.003027
-0.003488
-0.005402
-0.002735
-0.003961
0.000769
0.002378
0.003681
-0.000215
0.004598
-0.000172
-0.003884
-0.003881
0.003863
-0.002688
-0.001097
0.001735
-0.003467
0.004018
-0.004989
0.004277
0.003986
-0.005263
-0.004260
-0.004595
-0.004314
-0.000349
0.003880
0.003350
-0.004038
0.003637
0.000238
-0.000037
-0.004476
0.004119
0.003919
-0.004882
0.004673
0.004299
0.001315
0.003687
0.003880
-0.004023
-0.003825
-0.002008
-0.000635
0.003519
-0.003330
0.002008
-0.000921
0.003925
0.000508
-0.000908
0.002736
0.003476
-0.003834
0.002843
-0.002255
0.003852
-0.001497
0.000177
-0.003825
-0.003829
0.000923
0.001102
-0.004375
-0.000030
0.000131
0.000436
-0.005262
-0.005293
0.004813
0.004815
-0.000498
-0.005323
-0.000531
0.004803
-0.005594
0.000222
0.004457
0.004505
0.004035
0.004194
-0.004675
-0.005137
-0.000088
0.000191
0.004711
-0.000295
0.000362
0.003255
0.003569
-0.003546
-0.000054
0.003992
-0.004289
0.003639
0.004056
0.004389
0.001644
-0.003470
-0.001655
-0.000671
-0.004828
0.003523
0.000517
0.002754
0.004557
0.002376
-0.003456
-0.003464
0.000362
-0.003621
0.003057
0.003844
0.003680
-0.001245
0.001011
-0.002999
-0.001951
0.001451
0.000109
0.004281
-0.004016
0.003807
-0.000011
-0.003841
-0.000340
-0.004144
0.003664
0.003824
0.000124
0.003915
-0.004001
0.000390
-0.003942
0.000090
-0.003890
0.003581
0.001221
-0.004829
0.004643
0.003780
-0.005258
0.003891
0.000281
0.004224
-0.004199
-0.003260
-0.004313
-0.003499
0.003133
-0.002354
-0.000550
0.003483
-0.002368
0.002629
-0.000837
0.003107
0.000630
-0.003820
0.000897
-0.001453
0.003505
-0.001259
0.002084
-0.003826
-0.003100
0.003192
0.004704
-0.005212
-0.000145
-0.005377
-0.004990
0.000076
0.000523
-0.000470
-0.000388
-0.000572
-0.000513
-0.004469
0.000015
0.000293
0.000401
-0.003912
-0.005148
-0.004725
-0.005247
0.003716
0.003785
0.004810
0.004848
0.004509
-0.005132
-0.005360
0.004743
0.000382
0.004693
-0.005275
-0.004195
0.004889
0.004768
0.000325
-0.000242
0.000512
-0.003682
-0.003817
0.003719
0.000247
-0.003187
-0.004720
-0.000031
-0.003717
0.002735
-0.004277
0.004058
-0.000824
0.004093
-0.003193
0.003289
0.001331
-0.004836
-0.005213
-0.002370
0.004553
0.003481
0.003568
0.003343
-0.000558
0.000158
0.003176
-0.003625
-0.002663
-0.001286
0.000364
-0.001538
0.003117
0.002269
-0.005017
0.000832
-0.003458
0.001767
-0.003464
-0.000547
0.000234
-0.003820
-0.004569
-0.004291
-0.004045
0.003477
0.003495
-0.003674
-0.004168
0.002957
0.004093
-0.000201
-0.005360
0.003620
-0.003570
0.000222
-0.000508
-0.005193
-0.003482
0.003897
0.003552
0.004718
0.000907
-0.001022
-0.002051
0.002742
0.003706
0.003344
0.002024
0.000664
-0.003466
0.002487
0.003494
0.003191
-0.003461
0.004605
-0.000228
-0.002009
0.001212
-0.001680
0.004749
-0.003101
-0.005091
0.004506
0.004653
0.004414
-0.000292
0.000450
-0.004990
-0.005203
0.003682
-0.004619
0.000002
0.004438
0.000602
0.000206
-0.000570
0.000526
-0.000433
-0.000597
-0.003888
0.000140
0.004728
0.000196
0.000582
0.004842
-0.005360
-0.003905
-0.005243
0.004646
0.000609
-0.005153
0.003639
-0.003789
0.000494
-0.000350
0.003371
0.000658
0.003145
0.003359
-0.003510
-0.003899
0.003689
-0.004399
0.000446
0.001243
-0.001301
-0.003123
0.002183
0.000744
0.000319
0.000822
-0.004874
-0.005055
-0.003774
-0.003241
0.002535
-0.003611
-0.003221
0.002029
0.003036
0.003522
-0.001285
0.002783
0.003220
-0.003100
-0.002011
-0.000640
-0.003631
-0.003699
0.000172
-0.003644
-0.003548
-0.000295
-0.000637
0.004879
0.003368
-0.005172
-0.005036
0.003917
0.000033
-0.005374
-0.000201
0.000451
-0.004057
0.003268
-0.005192
-0.000902
0.003338
-0.002985
-0.004422
0.003257
-0.001035
-0.003154
0.003154
-0.005050
-0.005321
-0.003906
0.004304
0.004187
-0.001781
-0.004840
0.000574
-0.002378
-0.003112
0.001691
0.002930
0.002808
-0.003100
0.003133
0.001489
0.002047
0.004615
-0.002733
-0.003104
0.001019
-0.003567
0.003475
0.004565
0.000115
-0.000081
0.004395
0.004093
0.000389
-0.005144
0.003838
0.003421
0.004587
-0.005122
0.000720
-0.000278
-0.000520
-0.000634
-0.004591
0.000640
-0.000584
-0.004694
0.000304
0.004656
0.004244
-0.005287
0.000100
0.003540
0.003440
-0.003657
0.000701
-0.000175
0.004546
0.000669
0.004554
0.000801
-0.005041
0.003176
-0.002891
0.002680
0.000857
-0.003817
-0.003613
-0.000152
-0.004500
0.002432
0.003788
-0.004897
0.004379
0.002969
-0.001225
-0.002773
-0.002907
-0.003420
0.000135
-0.005153
-0.004744
0.004465
-0.004993
0.002891
-0.003300
-0.004243
0.000963
0.000448
-0.000983
-0.003425
0.002811
-0.004005
0.001988
-0.002745
0.003132
-0.000702
-0.005020
0.004388
0.004084
-0.004952
0.000147
0.002360
-0.003773
-0.004199
0.003394
0.001563
-0.003248
0.003032
0.003839
-0.000621
-0.004764
-0.002635
-0.001800
0.003336
-0.000460
0.003607
-0.002856
0.003182
0.000264
0.001765
0.002415
-0.002361
0.000628
-0.002366
-0.003339
0.000918
0.001237
-0.001648
-0.005246
-0.002070
0.002869
-0.003404
0.003914
-0.003490
-0.003555
-0.000772
-0.002763
-0.002741
-0.003096
0.003392
-0.004067
-0.003136
0.003822
0.003242
-0.003642
0.004775
0.003297
0.000577
-0.000169
-0.000669
0.000322
0.000218
-0.000630
-0.000031
0.004075
0.000433
0.004239
-0.000413
0.004508
0.004471
0.000821
-0.000525
0.004777
-0.000016
-0.004978
-0.000270
0.001059
-0.005040
-0.005526
-0.003745
0.004972
0.000758
-0.003395
0.000042
-0.005056
-0.005520
-0.003499
0.003592
0.000865
-0.004998
0.000888
-0.004539
0.004496
0.004577
-0.000268
-0.000735
0.000587
0.000879
0.002926
-0.003131
-0.003345
0.003406
-0.000231
-0.002564
0.003889
0.004377
-0.004596
0.000927
-0.004831
-0.000957
-0.002429
-0.001659
0.002711
0.003096
-0.005122
-0.002539
0.001826
-0.003082
-0.002976
0.002976
0.000112
-0.002909
0.002019
0.001102
-0.003375
-0.002057
0.000336
0.001684
-0.002391
-0.002742
0.000746
-0.002796
0.004712
0.002886
-0.000555
-0.003261
0.004413
0.003224
0.002469
0.003619
0.003106
0.004161
0.003945
0.002287
-0.004836
0.000583
0.003064
-0.004305
-0.005010
-0.001564
-0.003841
-0.004817
0.004551
-0.003416
-0.005344
-0.003720
0.000149
0.002843
-0.004122
0.001191
0.002941
-0.004940
-0.002751
-0.004570
0.004769
-0.003269
0.000956
-0.000194
-0.002824
0.002611
0.002488
0.001260
-0.003258
-0.000982
-0.003653
-0.003334
0.003117
0.001461
0.003200
0.000123
-0.000042
0.003699
-0.003356
0.003613
-0.005170
-0.005068
-0.000399
-0.000626
0.003126
0.000264
0.000479
-0.000662
-0.000332
0.004363
0.004076
0.000742
-0.004951
0.004237
-0.000711
-0.004832
0.000713
-0.003506
-0.000449
0.004456
0.000986
0.003344
-0.000019
-0.004348
0.000807
-0.004945
0.005050
0.004433
-0.000267
0.001066
-0.003985
-0.005586
0.001077
0.004641
-0.003496
-0.002989
0.002923
-0.000368
-0.003391
0.001022
0.000714
-0.003098
-0.003770
-0.004207
0.000950
0.003683
0.002167
0.003708
-0.004447
0.003991
0.002668
0.000133
-0.003086
-0.000889
0.004757
0.001202
-0.002749
-0.000738
-0.004543
-0.000189
-0.003170
-0.005110
-0.002601
0.000049
0.000855
0.000191
0.001422
-0.002679
-0.005203
-0.003220
0.000507
0.002716
0.002552
-0.003078
0.004549
-0.001615
-0.003946
-0.004703
0.004349
-0.004705
0.002982
0.003408
-0.003598
-0.003828
-0.000522
0.002507
-0.002292
-0.003221
-0.003452
0.003495
0.003393
-0.000038
0.001824
-0.002393
0.002372
0.004236
0.003112
-0.002006
-0.002467
0.004554
0.000534
0.001613
-0.001316
0.003920
0.002833
0.002548
-0.003134
-0.001106
0.002107
0.003036
-0.002387
0.000523
0.002869
-0.002532
0.003107
-0.004864
-0.000714
-0.003251
-0.000428
-0.005484
-0.000385
0.000231
0.001074
0.000407
0.000644
-0.000616
-0.004914
-0.004979
-0.000773
0.004953
-0.003054
-0.000096
0.000999
-0.004175
-0.000527
0.000925
0.003081
0.004470
0.002127
-0.003180
-0.004861
0.000291
0.004956
0.003315
0.003373
0.004376
0.001153
0.000843
-0.000095
0.004392
-0.001816
-0.003133
0.000975
-0.002678
0.002805
-0.004991
-0.004857
0.004202
-0.000252
0.000996
-0.003126
0.002713
0.000855
0.001064
0.002842
-0.002375
-0.002864
0.003260
0.002968
0.003501
-0.004271
-0.000002
-0.002137
0.001850
0.004515
0.002487
0.000281
0.004198
-0.000975
-0.002380
-0.002923
-0.004705
0.002590
0.004576
0.003581
-0.004852
-0.003201
0.001226
0.000641
-0.004834
-0.001261
-0.002046
0.002230
0.000627
-0.002981
-0.003007
0.004762
-0.002242
0.002813
0.002199
-0.003644
0.004221
-0.000702
0.003907
0.003265
-0.004328
-0.004020
-0.004548
0.001995
-0.000041
0.000128
-0.005283
-0.003547
0.004055
-0.004761
0.001604
-0.002901
-0.000841
0.001100
0.003176
-0.000250
0.002409
-0.000076
0.001397
0.005038
0.002629
-0.002430
0.003120
0.003748
-0.002501
-0.004624
-0.001352
0.001296
0.002300
0.000404
-0.003023
0.002655
-0.000515
-0.002861
-0.002751
-0.002098
0.002817
-0.002224
0.002867
-0.003619
0.002864
-0.000650
0.001923
-0.003083
0.000049
0.000636
0.001124
0.002927
0.000367
0.002753
0.004090
0.000201
-0.000374
-0.000358
-0.000790
-0.000520
-0.000718
-0.005068
0.004343
0.004308
-0.000553
0.000369
0.000575
-0.003321
0.000966
-0.003989
0.000812
-0.000808
0.002204
0.004414
-0.004963
-0.000190
-0.001939
-0.004848
0.003814
0.001075
0.001182
0.004307
-0.002451
-0.004411
0.003062
-0.004855
-0.004741
-0.004902
0.001326
-0.005326
0.002775
0.001337
0.001050
-0.000481
0.002523
-0.003057
-0.002964
0.000943
-0.002656
-0.002152
-0.003786
0.003309
-0.004099
0.003512
-0.000209
-0.004528
0.003842
0.000646
0.004058
-0.001804
-0.004676
-0.002651
-0.000526
0.004560
-0.002068
0.004083
0.000707
0.002530
0.004244
0.001279
-0.002057
-0.004836
0.000057
-0.002179
-0.004969
0.001478
-0.000504
-0.000474
0.000540
0.002533
0.002383
0.001889
-0.004904
0.001277
-0.003335
0.001014
0.001710
-0.000134
0.003505
0.004810
-0.000948
-0.004077
-0.001530
-0.002106
-0.003302
-0.001271
0.003576
0.002937
-0.002210
-0.001654
0.003158
0.002602
0.001052
0.001920
0.002084
-0.002946
-0.002869
-0.003374
0.004344
-0.000166
0.001309
-0.000731
-0.002815
-0.002969
0.002458
-0.002278
-0.002969
-0.002508
0.002877
0.001785
0.002379
-0.004758
-0.004781
-0.002444
0.000426
0.002772
-0.004437
-0.004345
0.002679
0.002556
-0.002818
0.000234
-0.002884
-0.002803
-0.000805
0.000194
0.003929
0.000764
-0.000308
0.001443
-0.001797
0.003044
0.000132
0.001605
0.001103
0.002817
0.000342
-0.000507
0.004342
-0.000853
0.000525
-0.000651
0.000688
0.004868
0.004706
0.001177
-0.000812
0.003756
0.004273
-0.004992
0.004188
-0.000303
0.000365
-0.005117
-0.003558
-0.000053
0.000431
0.001435
0.000954
0.004285
0.001339
0.003986
0.001915
-0.004710
-0.000658
-0.004809
-0.002059
-0.004745
0.002324
-0.003730
-0.004389
-0.004644
0.003041
0.001247
0.002278
-0.000234
0.002289
0.002827
-0.002761
0.001068
-0.003576
0.003001
0.003379
0.002800
0.000943
-0.004276
0.001612
0.003946
0.003702
-0.000213
0.004180
-0.002230
-0.002131
-0.003465
-0.000796
0.000094
-0.002552
0.001422
0.004486
-0.003143
-0.002520
-0.000794
-0.000625
0.002643
-0.004589
-0.001970
-0.003948
-0.004708
0.002602
0.000578
0.000887
0.001689
0.000338
0.004687
0.001311
0.001620
0.002069
-0.000588
-0.002717
0.003937
-0.003073
-0.003883
0.004448
-0.002584
-0.000454
-0.001577
0.002443
-0.001704
-0.001371
-0.004589
-0.000607
0.002254
0.000961
0.000834
-0.004641
-0.001881
0.002399
0.002579
0.001972
-0.002794
-0.002684
0.003909
-0.001932
0.003106
0.003635
-0.002081
0.002006
0.002729
0.001589
0.003370
0.002126
0.000462
0.002320
-0.001930
0.001541
-0.001063
-0.002853
-0.002873
0.004452
0.002213
-0.001769
-0.003818
0.000023
0.002614
-0.002720
0.002892
0.002657
0.000335
0.003786
0.001232
-0.000499
0.000672
0.000045
0.001368
0.001438
-0.000877
0.000290
-0.005030
-0.004833
-0.004238
-0.000626
-0.000317
0.000485
0.001672
0.000656
-0.000418
0.004615
-0.000888
0.003681
0.004080
0.001207
0.000191
-0.003310
-0.000787
-0.004238
-0.004807
0.000144
0.001370
-0.004524
0.004220
0.004261
0.004188
0.004212
-0.004811
0.002180
-0.004713
-0.000131
0.001614
-0.004737
-0.004734
0.004052
0.002050
-0.003069
0.002907
-0.001681
-0.003692
0.002575
0.002760
-0.003856
0.003454
-0.000280
0.003812
-0.000767
0.001302
-0.001562
-0.004526
0.003929
0.004022
0.001956
0.004480
0.004132
-0.002393
-0.002223
-0.003517
-0.001889
0.003300
0.001769
-0.000206
0.004112
0.000527
0.001130
-0.004531
0.000711
0.001335
-0.004675
-0.001914
-0.001775
-0.000754
0.002401
0.002222
0.002088
0.002223
-0.004694
-0.001881
-0.001742
0.003182
0.001916
0.001157
-0.004367
0.003602
-0.003122
0.004312
-0.004773
-0.002662
0.000228
0.003065
0.003438
0.001701
0.002351
0.003293
-0.002411
0.004249
-0.002736
0.003622
0.000265
0.004048
0.002602
0.003819
-0.000899
0.000755
-0.003359
0.001598
-0.002738
-0.001481
-0.002614
-0.002263
0.001490
-0.002912
-0.004666
0.002429
0.002508
-0.002821
-0.001339
0.002889
0.002342
0.004421
0.000645
0.001204
0.000478
-0.000005
0.004417
0.002713
0.001257
-0.000892
-0.000424
-0.000099
-0.000052
0.001404
-0.004164
0.001055
0.000220
-0.004084
0.000802
0.003772
0.001620
0.000976
-0.000938
-0.000604
0.003951
-0.002587
-0.004938
0.000437
0.001480
0.000079
0.000627
-0.002258
0.004345
-0.000895
-0.002473
-0.004390
-0.000742
-0.002813
-0.000335
0.001914
-0.004602
0.001410
-0.004632
-0.004756
0.004152
0.004164
0.001741
-0.004060
-0.000353
-0.000528
0.001687
0.000331
0.001590
-0.002822
0.003454
0.002382
-0.004665