# vtk DataFile Version 2.0
Test
ASCII
DATASET POLYDATA
POINTS 4677 float
0.000000 0.000000 0.000000
0.080000 0.000000 0.000000
0.080000 0.160000 0.000000
0.000000 0.160000 0.000000
0.036000 0.073072 0.000000
0.044000 0.086928 0.000000
0.024500 0.065566 0.000000
0.055500 0.093560 0.000000
0.001000 0.050000 0.000000
0.079000 0.110000 0.000000
0.002963 0.000000 0.000000
0.005926 0.000000 0.000000
0.008889 0.000000 0.000000
0.011852 0.000000 0.000000
0.014815 0.000000 0.000000
0.017778 0.000000 0.000000
0.020741 0.000000 0.000000
0.023704 0.000000 0.000000
0.026667 0.000000 0.000000
0.029630 0.000000 0.000000
0.032593 0.000000 0.000000
0.035556 0.000000 0.000000
0.038519 0.000000 0.000000
0.041481 0.000000 0.000000
0.044444 0.000000 0.000000
0.047407 0.000000 0.000000
0.050370 0.000000 0.000000
0.053333 0.000000 0.000000
0.056296 0.000000 0.000000
0.059259 0.000000 0.000000
0.062222 0.000000 0.000000
0.065185 0.000000 0.000000
0.068148 0.000000 0.000000
0.071111 0.000000 0.000000
0.074074 0.000000 0.000000
0.077037 0.000000 0.000000
0.080000 0.002963 0.000000
0.080000 0.005926 0.000000
0.080000 0.008889 0.000000
0.080000 0.011852 0.000000
0.080000 0.014815 0.000000
0.080000 0.017778 0.000000
0.080000 0.020741 0.000000
0.080000 0.023704 0.000000
0.080000 0.026667 0.000000
0.080000 0.029630 0.000000
0.080000 0.032593 0.000000
0.080000 0.035556 0.000000
0.080000 0.038519 0.000000
0.080000 0.041481 0.000000
0.080000 0.044444 0.000000
0.080000 0.047407 0.000000
0.080000 0.050370 0.000000
0.080000 0.053333 0.000000
0.080000 0.056296 0.000000
0.080000 0.059259 0.000000
0.080000 0.062222 0.000000
0.080000 0.065185 0.000000
0.080000 0.068148 0.000000
0.080000 0.071111 0.000000
0.080000 0.074074 0.000000
0.080000 0.077037 0.000000
0.080000 0.080000 0.000000
0.080000 0.082963 0.000000
0.080000 0.085926 0.000000
0.080000 0.088889 0.000000
0.080000 0.091852 0.000000
0.080000 0.094815 0.000000
0.080000 0.097778 0.000000
0.080000 0.100741 0.000000
0.080000 0.103704 0.000000
0.080000 0.106667 0.000000
0.080000 0.109630 0.000000
0.080000 0.112593 0.000000
0.080000 0.115556 0.000000
0.080000 0.118519 0.000000
0.080000 0.121481 0.000000
0.080000 0.124444 0.000000
0.080000 0.127407 0.000000
0.080000 0.130370 0.000000
0.080000 0.133333 0.000000
0.080000 0.136296 0.000000
0.080000 0.139259 0.000000
0.080000 0.142222 0.000000
0.080000 0.145185 0.000000
0.080000 0.148148 0.000000
0.080000 0.151111 0.000000
0.080000 0.154074 0.000000
0.080000 0.157037 0.000000
0.077037 0.160000 0.000000
0.074074 0.160000 0.000000
0.071111 0.160000 0.000000
0.068148 0.160000 0.000000
0.065185 0.160000 0.000000
0.062222 0.160000 0.000000
0.059259 0.160000 0.000000
0.056296 0.160000 0.000000
0.053333 0.160000 0.000000
0.050370 0.160000 0.000000
0.047407 0.160000 0.000000
0.044444 0.160000 0.000000
0.041481 0.160000 0.000000
0.038519 0.160000 0.000000
0.035556 0.160000 0.000000
0.032593 0.160000 0.000000
0.029630 0.160000 0.000000
0.026667 0.160000 0.000000
0.023704 0.160000 0.000000
0.020741 0.160000 0.000000
0.017778 0.160000 0.000000
0.014815 0.160000 0.000000
0.011852 0.160000 0.000000
0.008889 0.160000 0.000000
0.005926 0.160000 0.000000
0.002963 0.160000 0.000000
0.000000 0.157037 0.000000
0.000000 0.154074 0.000000
0.000000 0.151111 0.000000
0.000000 0.148148 0.000000
0.000000 0.145185 0.000000
0.000000 0.142222 0.000000
0.000000 0.139259 0.000000
0.000000 0.136296 0.000000
0.000000 0.133333 0.000000
0.000000 0.130370 0.000000
0.000000 0.127407 0.000000
0.000000 0.124444 0.000000
0.000000 0.121481 0.000000
0.000000 0.118519 0.000000
0.000000 0.115556 0.000000
0.000000 0.112593 0.000000
0.000000 0.109630 0.000000
0.000000 0.106667 0.000000
0.000000 0.103704 0.000000
0.000000 0.100741 0.000000
0.000000 0.097778 0.000000
0.000000 0.094815 0.000000
0.000000 0.091852 0.000000
0.000000 0.088889 0.000000
0.000000 0.085926 0.000000
0.000000 0.082963 0.000000
0.000000 0.080000 0.000000
0.000000 0.077037 0.000000
0.000000 0.074074 0.000000
0.000000 0.071111 0.000000
0.000000 0.068148 0.000000
0.000000 0.065185 0.000000
0.000000 0.062222 0.000000
0.000000 0.059259 0.000000
0.000000 0.056296 0.000000
0.000000 0.053333 0.000000
0.000000 0.050370 0.000000
0.000000 0.047407 0.000000
0.000000 0.044444 0.000000
0.000000 0.041481 0.000000
0.000000 0.038519 0.000000
0.000000 0.035556 0.000000
0.000000 0.032593 0.000000
0.000000 0.029630 0.000000
0.000000 0.026667 0.000000
0.000000 0.023704 0.000000
0.000000 0.020741 0.000000
0.000000 0.017778 0.000000
0.000000 0.014815 0.000000
0.000000 0.011852 0.000000
0.000000 0.008889 0.000000
0.000000 0.005926 0.000000
0.000000 0.002963 0.000000
0.035500 0.072746 0.000000
0.035000 0.072419 0.000000
0.034500 0.072093 0.000000
0.034000 0.071767 0.000000
0.033500 0.071440 0.000000
0.033000 0.071114 0.000000
0.032500 0.070788 0.000000
0.032000 0.070461 0.000000
0.031500 0.070135 0.000000
0.031000 0.069809 0.000000
0.030500 0.069482 0.000000
0.030000 0.069156 0.000000
0.029500 0.068829 0.000000
0.029000 0.068503 0.000000
0.028500 0.068177 0.000000
0.028000 0.067850 0.000000
0.027500 0.067524 0.000000
0.027000 0.067198 0.000000
0.026500 0.066871 0.000000
0.026000 0.066545 0.000000
0.025500 0.066219 0.000000
0.025000 0.065892 0.000000
0.044500 0.087216 0.000000
0.045000 0.087505 0.000000
0.045500 0.087793 0.000000
0.046000 0.088081 0.000000
0.046500 0.088370 0.000000
0.047000 0.088658 0.000000
0.047500 0.088946 0.000000
0.048000 0.089235 0.000000
0.048500 0.089523 0.000000
0.049000 0.089811 0.000000
0.049500 0.090100 0.000000
0.050000 0.090388 0.000000
0.050500 0.090677 0.000000
0.051000 0.090965 0.000000
0.051500 0.091253 0.000000
0.052000 0.091542 0.000000
0.052500 0.091830 0.000000
0.053000 0.092118 0.000000
0.053500 0.092407 0.000000
0.054000 0.092695 0.000000
0.054500 0.092983 0.000000
0.055000 0.093272 0.000000
0.043704 0.086415 0.000000
0.043407 0.085902 0.000000
0.043111 0.085388 0.000000
0.042815 0.084875 0.000000
0.042519 0.084362 0.000000
0.042222 0.083849 0.000000
0.041926 0.083336 0.000000
0.041630 0.082823 0.000000
0.041333 0.082309 0.000000
0.041037 0.081796 0.000000
0.040741 0.081283 0.000000
0.040444 0.080770 0.000000
0.040148 0.080257 0.000000
0.039852 0.079743 0.000000
0.039556 0.079230 0.000000
0.039259 0.078717 0.000000
0.038963 0.078204 0.000000
0.038667 0.077691 0.000000
0.038370 0.077177 0.000000
0.038074 0.076664 0.000000
0.037778 0.076151 0.000000
0.037481 0.075638 0.000000
0.037185 0.075125 0.000000
0.036889 0.074612 0.000000
0.036593 0.074098 0.000000
0.036296 0.073585 0.000000
0.024000 0.065235 0.000000
0.023500 0.064904 0.000000
0.023000 0.064572 0.000000
0.022500 0.064241 0.000000
0.022000 0.063910 0.000000
0.021500 0.063579 0.000000
0.021000 0.063248 0.000000
0.020500 0.062916 0.000000
0.020000 0.062585 0.000000
0.019500 0.062254 0.000000
0.019000 0.061923 0.000000
0.018500 0.061592 0.000000
0.018000 0.061261 0.000000
0.017500 0.060929 0.000000
0.017000 0.060598 0.000000
0.016500 0.060267 0.000000
0.016000 0.059936 0.000000
0.015500 0.059605 0.000000
0.015000 0.059273 0.000000
0.014500 0.058942 0.000000
0.014000 0.058611 0.000000
0.013500 0.058280 0.000000
0.013000 0.057949 0.000000
0.012500 0.057617 0.000000
0.012000 0.057286 0.000000
0.011500 0.056955 0.000000
0.011000 0.056624 0.000000
0.010500 0.056293 0.000000
0.010000 0.055961 0.000000
0.009500 0.055630 0.000000
0.009000 0.055299 0.000000
0.008500 0.054968 0.000000
0.008000 0.054637 0.000000
0.007500 0.054305 0.000000
0.007000 0.053974 0.000000
0.006500 0.053643 0.000000
0.006000 0.053312 0.000000
0.005500 0.052981 0.000000
0.005000 0.052650 0.000000
0.004500 0.052318 0.000000
0.004000 0.051987 0.000000
0.003500 0.051656 0.000000
0.003000 0.051325 0.000000
0.002500 0.050994 0.000000
0.002000 0.050662 0.000000
0.001500 0.050331 0.000000
0.055990 0.093902 0.000000
0.056479 0.094245 0.000000
0.056969 0.094587 0.000000
0.057458 0.094930 0.000000
0.057948 0.095272 0.000000
0.058437 0.095615 0.000000
0.058927 0.095957 0.000000
0.059417 0.096300 0.000000
0.059906 0.096642 0.000000
0.060396 0.096985 0.000000
0.060885 0.097327 0.000000
0.061375 0.097670 0.000000
0.061865 0.098012 0.000000
0.062354 0.098355 0.000000
0.062844 0.098697 0.000000
0.063333 0.099040 0.000000
0.063823 0.099382 0.000000
0.064312 0.099725 0.000000
0.064802 0.100067 0.000000
0.065292 0.100410 0.000000
0.065781 0.100752 0.000000
0.066271 0.101095 0.000000
0.066760 0.101437 0.000000
0.067250 0.101780 0.000000
0.067740 0.102122 0.000000
0.068229 0.102465 0.000000
0.068719 0.102807 0.000000
0.069208 0.103150 0.000000
0.069698 0.103492 0.000000
0.070187 0.103835 0.000000
0.070677 0.104177 0.000000
0.071167 0.104520 0.000000
0.071656 0.104862 0.000000
0.072146 0.105205 0.000000
0.072635 0.105547 0.000000
0.073125 0.105890 0.000000
0.073615 0.106232 0.000000
0.074104 0.106575 0.000000
0.074594 0.106917 0.000000
0.075083 0.107260 0.000000
0.075573 0.107602 0.000000
0.076062 0.107945 0.000000
0.076552 0.108287 0.000000
0.077042 0.108630 0.000000
0.077531 0.108972 0.000000
0.078021 0.109315 0.000000
0.078510 0.109658 0.000000
0.043942 0.087469 0.000000
0.035556 0.157037 0.000000
0.044420 0.002920 0.000000
0.077037 0.038519 0.000000
0.002963 0.121481 0.000000
0.077037 0.059259 0.000000
0.002963 0.109630 0.000000
0.002923 0.098139 0.000000
0.077153 0.126913 0.000000
0.002808 0.032596 0.000000
0.077140 0.071061 0.000000
0.002963 0.085926 0.000000
0.002963 0.136296 0.000000
0.077041 0.023701 0.000000
0.056296 0.157037 0.000000
0.032593 0.002963 0.000000
0.077037 0.080000 0.000000
0.002813 0.077135 0.000000
0.077037 0.142222 0.000000
0.017778 0.157037 0.000000
0.062222 0.002963 0.000000
0.076992 0.088722 0.000000
0.002945 0.020743 0.000000
0.017777 0.002962 0.000000
0.002801 0.068434 0.000000
0.002959 0.011851 0.000000
0.065186 0.157038 0.000000
0.002963 0.148148 0.000000
0.077037 0.011852 0.000000
0.076887 0.094740 0.000000
0.077092 0.115875 0.000000
0.002677 0.044265 0.000000
0.077038 0.148148 0.000000
0.002985 0.062165 0.000000
0.077037 0.047407 0.000000
0.011852 0.002963 0.000000
[...]
POINT_DATA 4677
SCALARS UX float 1
LOOKUP_TABLE default
-0.000000
0.000001
0.030448
-0.001490
-0.004560
-0.007563
-0.033069
0.036971
-0.047735
0.057286
-0.000000
-0.000000
-0.000000
-0.000000
-0.000000
-0.000000
-0.000000
-0.000000
-0.000000
-0.000000
-0.000000
-0.000000
-0.000000
0.000000
0.000000
0.000000
0.000000
0.000000
0.000000
0.000000
0.000000
0.000000
0.000000
0.000000
0.000000
-0.000000
0.003040
0.004691
0.005982
0.007174
0.008335
0.009548
0.010812
0.012078
0.013322
0.014600
0.015933
0.017293
0.018749
0.020320
0.021692
0.023178
0.024144
0.024956
0.025956
0.026986
0.028214
0.029402
0.030898
0.033470
0.035757
0.038285
0.040182
0.042402
0.044057
0.045989
0.047619
0.049163
0.050572
0.052060
0.053614
0.055536
0.057405
0.058871
0.060107
0.061473
0.063577
0.066119
0.063843
0.053368
0.052090
0.039497
0.033328
0.030093
0.029073
0.029496
0.029143
0.029544
0.030073
0.029637
0.028377
0.026713
0.025399
0.024488
0.023128
0.021922
0.021278
0.020322
0.019232
0.017838
0.016481
0.015346
0.014298
0.013895
0.012513
0.011698
0.010606
0.009079
0.007432
0.006031
0.004798
0.003641
0.002880
0.001581
-0.000379
-0.002379
-0.003564
-0.004613
-0.005513
-0.006617
-0.007264
-0.008473
-0.009939
-0.012413
-0.015194
-0.017815
-0.020881
-0.023778
-0.026136
-0.027543
-0.028428
-0.029020
-0.029391
-0.029582
-0.030237
-0.032009
-0.033973
-0.036489
-0.041743
-0.044160
-0.046180
-0.047545
-0.046627
-0.047191
-0.046991
-0.046499
-0.046758
-0.046759
-0.047189
-0.047366
-0.047882
-0.048213
-0.047854
-0.047803
-0.047790
-0.047746
-0.046362
-0.034634
-0.030298
-0.021600
-0.020673
-0.017597
-0.014403
-0.012783
-0.010459
-0.008547
-0.007770
-0.004471
-0.010481
-0.012644
-0.014673
-0.015624
-0.014693
-0.017276
-0.019915
-0.011860
-0.003774
-0.008062
-0.011789
-0.014543
-0.013956
-0.015025
-0.018554
-0.021280
-0.023187
-0.024796
-0.026614
-0.026928
-0.029171
-0.031717
-0.006546
-0.005635
-0.003253
-0.000648
0.001830
0.003344
0.004933
0.007869
0.013575
0.019106
0.022606
0.023564
0.025255
0.037997
0.025898
0.028288
0.028699
0.028972
0.030229
0.031840
0.033892
0.035662
-0.007551
-0.007667
-0.007549
-0.007353
-0.007139
-0.007042
-0.007143
-0.007161
-0.006955
-0.006783
-0.006466
-0.006181
-0.005841
-0.005584
-0.005601
-0.005815
-0.005673
-0.005768
-0.006459
-0.007120
-0.007971
-0.008758
-0.008935
-0.008253
-0.005806
-0.004776
-0.032592
-0.033579
-0.033746
-0.033887
-0.034402
-0.034359
-0.034503
-0.034969
-0.035413
-0.035985
-0.036499
-0.036961
-0.037434
-0.037975
-0.038555
-0.039083
-0.039325
-0.039911
-0.040248
-0.040720
-0.041213
-0.041498
-0.041850
-0.042181
-0.042460
-0.042702
-0.042916
-0.043144
-0.043380
-0.043624
-0.043887
-0.044146
-0.044409
-0.044668
-0.044933
-0.045189
-0.045454
-0.045728
-0.045977
-0.046181
-0.046418
-0.046649
-0.046871
-0.047079
-0.047333
-0.047531
0.037770
0.038423
0.039155
0.039571
0.039942
0.040447
0.040918
0.041411
0.041779
0.042162
0.042546
0.042923
0.043294
0.043673
0.044072
0.044476
0.044881
0.045278
0.045671
0.046059
0.046428
0.046821
0.047227
0.047638
0.048047
0.048452
0.048851
0.049245
0.049638
0.050029
0.050422
0.050812
0.051197
0.051584
0.051997
0.052434
0.052835
0.053228
0.053650
0.054071
0.054482
0.054914
0.055350
0.055724
0.056146
0.056556
0.056927
-0.008735
0.012994
0.000031
0.017777
-0.022394
0.025518
-0.027690
-0.029851
0.060213
-0.028050
0.031509
-0.040569
-0.008300
0.010516
0.020671
-0.000178
0.038656
-0.045060
0.027371
0.005152
0.000264
0.044588
-0.013784
-0.000557
-0.045306
-0.008769
0.023523
-0.003994
0.005686
0.047702
0.059131
-0.046327
0.027018
-0.045764
0.022387
-0.000633
0.025992
0.000439
0.000792
-0.046034
0.050808
0.043125
0.014625
0.017028
-0.000248
-0.013042
0.013200
0.008101
0.000185
0.028929
0.059948
-0.045285
-0.006264
0.061106
-0.043275
-0.046569
-0.045755
0.040993
-0.034018
-0.044098
0.027584
0.033688
0.023995
-0.028327
0.052529
-0.026259
-0.022325
-0.019390
0.019330
0.011049
0.033590
0.000122
-0.000019
-0.016249
0.014638
-0.000079
-0.012223
-0.000352
0.021382
0.018374
-0.005582
0.008014
-0.007008
-0.000836
-0.004836
0.002715
0.000446
0.027640
-0.000783
-0.001859
-0.002229
0.002945
-0.001184
0.001219
0.056942
-0.008748
-0.047185
-0.047113
0.055331
-0.009649
-0.000060
0.016769
0.031243
-0.018542
-0.040239
0.058539
0.017701
-0.011621
0.028530
-0.000601
-0.042379
-0.009914
-0.045410
0.037245
0.050985
0.019727
-0.006371
-0.001753
-0.003445
0.025436
-0.000537
0.001738
0.058310
-0.046993
0.049239
-0.045643
0.046259
-0.045900
-0.047599
0.042773
0.063444
-0.042759
0.056614
-0.045822
0.036342
-0.037234
-0.031788
0.029241
0.026476
-0.028837
-0.028008
0.024873
-0.027238
0.023259
0.051534
0.020870
-0.024721
0.013697
-0.019414
0.016133
0.011832
0.000080
0.015666
-0.016366
0.009628
0.000153
-0.000123
0.029690
-0.010294
0.011852
0.019618
-0.000206
0.006581
0.000218
-0.010470
-0.000444
0.022392
-0.006654
0.009215
-0.000628
-0.004797
0.006843
0.024685
0.026734
0.003964
0.000327
0.027566
0.028151
0.001971
0.000605
-0.003178
0.004415
-0.047421
0.057244
0.056379
-0.045430
-0.047020
-0.007363
-0.008834
0.054178
-0.046830
0.058538
-0.041053
-0.004940
-0.005314
-0.004309
0.024700
-0.029960
-0.026797
0.056443
-0.038998
0.011158
0.005887
-0.044524
0.000325
0.010325
0.044859
-0.005166
0.003203
0.048303
0.005391
-0.003213
0.000767
0.056704
-0.046943
0.053484
0.023303
-0.025750
0.022220
-0.022731
0.015186
-0.008886
0.021722
-0.000994
-0.001463
-0.001503
0.024144
0.026184
-0.047135
0.057366
-0.046098
0.057953
0.036200
-0.044839
0.057214
-0.043478
-0.046100
0.042557
0.039353
-0.027458
0.053393
-0.030434
-0.037794
-0.044214
0.027243
0.029258
-0.035268
0.015108
-0.000264
-0.000163
-0.015129
0.020112
0.018494
0.000163
0.000058
-0.038108
0.037796
0.016567
0.008641
0.018871
-0.017276
-0.014535
0.025717
0.024847
0.033441
0.012992
-0.012309
-0.000418
0.020828
-0.008377
-0.000773
0.007705
0.000485
-0.011292
-0.004662
-0.002235
0.026809
0.000766
0.001222
0.002988
-0.021634
-0.009991
-0.008696
0.056062
-0.046773
-0.047097
0.057732
-0.047545
0.055859
-0.008889
-0.004610
-0.006283
-0.004852
-0.010090
-0.000243
0.017250
0.026894
-0.031864
0.014880
-0.014872
-0.016737
0.029334
0.037733
-0.000704
0.018106
-0.010525
-0.007894
-0.002380
-0.046543
0.056325
0.045414
-0.001880
-0.044168
0.013708
0.000069
0.024826
-0.001249
0.020128
0.023843
-0.009336
-0.000226
0.002059
-0.005823
-0.044201
0.046068
-0.022428
-0.044998
-0.027230
-0.043639
-0.031757
-0.028900
0.011892
0.025846
0.057974
0.023799
-0.026395
0.022662
0.033647
-0.024561
0.045703
0.043352
-0.034532
0.014022
-0.000340
0.010005
-0.006657
0.021298
0.000248
0.007314
-0.012122
0.015931
0.013769
-0.020081
0.000400
0.004425
0.025096
0.008950
-0.006382
-0.003717
0.006527
0.024856
0.022908
-0.001273
-0.004200
0.000596
0.012016
0.001758
-0.002326
0.025453
0.004210
0.000962
-0.038202
0.054832
-0.042052
-0.010024
-0.046402
-0.010752
-0.006461
0.054444
-0.046463
0.057319
-0.008590
-0.001834
0.055424
-0.046753
-0.046800
0.055208
0.057125
-0.003805
0.001710
-0.002154
-0.046526
-0.044383
-0.011160
0.005129
0.022803
-0.025906
-0.029004
-0.016900
0.052808
0.014169
-0.042827
-0.039530
0.007827
0.043409
-0.004027
0.000528
0.008813
-0.010018
-0.044420
0.003618
-0.025123
0.000986
0.005168
0.020916
-0.000375
0.056885
0.012470
-0.022266
-0.017547
0.023354
-0.006576
-0.002024
0.003043
0.001110
0.028478
-0.045462
0.056830
0.030954
-0.043540
-0.028235
-0.037876
-0.029476
-0.000576
0.024726
0.011860
-0.025856
0.018514
0.013738
-0.000096
-0.030087
0.049643
0.026529
-0.041755
0.041262
0.035162
0.017273
0.020537
0.023636
-0.014110
-0.007320
0.006432
-0.000975
0.015408
-0.009380
0.019232
-0.001567
0.025616
0.000655
0.010144
0.021296
0.023538
-0.011928
0.007449
-0.005220
0.024289
-0.003114
0.000241
-0.002959
-0.001136
0.001226
0.001551
-0.034564
-0.008571
-0.004008
0.003388
-0.046398
-0.046238
0.055728
0.054858
-0.009863
-0.045972
-0.011008
0.053545
-0.044634
-0.003342
0.057182
0.039580
0.037082
0.031208
-0.042459
-0.046216
-0.006321
-0.001264
0.056632
-0.008151
0.000548
0.015489
0.023456
-0.015691
-0.000127
0.033277
-0.035740
0.023372
0.055296
0.039866
0.017399
-0.006992
0.006847
-0.001053
-0.044345
0.022159
0.000761
0.007762
0.056030
0.019453
-0.002601
0.000156
0.000398
-0.011191
0.010802
0.041265
0.025111
-0.002270
0.001422
-0.007587
-0.004185
0.002266
-0.004107
0.056498
-0.027305
0.021918
-0.005238
-0.013683
-0.000610
-0.026758
0.019748
0.023501
0.012748
0.046429
-0.025580
0.003267
-0.024108
0.000110
-0.019818
0.022931
0.016322
-0.041715
0.041865
0.032037
-0.043346
0.029589
0.000387
0.038120
-0.031362
-0.008880
-0.027800
-0.012548
0.012211
-0.005428
0.011245
0.023016
0.005116
0.006256
-0.001406
0.022276
0.000797
-0.005412
0.015259
-0.002617
0.022124
0.009013
0.004105
-0.002004
0.002433
0.010284
0.054017
-0.045760
-0.009999
-0.044068
-0.045402
-0.006545
0.008673
-0.009665
-0.009295
-0.011248
-0.011518
-0.040296
-0.005030
-0.000833
0.000343
-0.026257
-0.043249
-0.040164
-0.045605
0.025188
0.022346
0.055268
0.041100
0.033817
-0.046034
-0.046232
0.053150
0.002990
0.055860
-0.046305
-0.021042
0.053827
0.054188
-0.000415
-0.011088
0.009244
-0.024294
-0.026731
0.045071
0.012397
-0.013061
-0.041677
-0.000108
-0.013329
0.009123
-0.036790
0.055843
-0.001478
0.038510
-0.008623
0.020646
0.015811
-0.044444
-0.043873
0.004314
0.055127
0.021714
0.029139
0.018852
0.010468
-0.003078
0.020870
-0.022715
-0.006471
0.008060
0.000549
-0.003032
0.021813
0.004941
-0.042718
0.001163
-0.003783
0.003099
-0.000802
-0.010848
-0.003083
-0.025496
-0.039955
-0.033825
-0.020486
0.020876
0.022428
-0.024984
-0.026499
0.009767
0.035789
-0.000361
-0.043822
0.024140
-0.018779
0.000327
-0.000841
-0.045272
-0.009594
0.031504
0.022456
0.055138
0.014627
-0.001768
-0.004544
0.020625
0.027159
0.017121
0.018708
0.000947
-0.005265
0.006044
0.022475
0.013951
-0.001871
0.053160
0.011596
0.005566
0.001766
-0.003440
0.052640
0.001389
-0.045136
0.042364
0.054304
0.056337
-0.008557
0.002274
-0.045300
-0.046043
0.026114
-0.042402
-0.008413
0.041099
0.013136
-0.002934
-0.011138
0.010521
-0.011837
-0.011816
-0.026092
-0.004722
0.054608
-0.002713
0.012329
0.053131
-0.045878
-0.016361
-0.045978
0.053575
0.011959
-0.045485
0.038329
-0.012278
0.009530
-0.011900
0.026271
0.015875
0.020436
0.023328
-0.025348
-0.020219
0.031368
-0.039953
0.000731
0.014882
0.007091
-0.005111
0.005107
0.016415
0.003243
0.001294
-0.044623
-0.045152
-0.025036
-0.009173
0.007617
-0.012988
-0.015542
0.017922
0.015715
0.027528
-0.002323
0.020131
0.020713
-0.000285
0.004682
-0.011783
-0.024783
-0.024503
-0.005435
-0.023599
-0.011472
-0.000540
-0.001079
0.052518
0.020053
-0.043196
-0.042512
0.036263
-0.004667
-0.045723
0.010949
0.007649
-0.028233
0.022151
-0.043507
0.009239
0.017871
-0.007667
-0.037020
0.020953
-0.001858
-0.010210
0.020837
-0.045461
-0.044406
-0.029178
0.041354
0.039987
-0.003512
-0.042145
0.013482
-0.005502
-0.003608
0.017111
0.013820
0.010369
0.000606
0.021335
0.002409
0.004052
0.054620
0.002902
-0.002362
0.001572
-0.020646
0.023729
0.043457
0.000157
-0.009811
0.055450
0.054722
-0.001063
-0.045639
0.051945
0.020988
0.053953
-0.044904
0.015720
-0.008563
-0.010996
-0.011941
-0.040658
0.003475
-0.012219
-0.043235
-0.000297
0.052277
0.055671
-0.045556
-0.006952
0.021584
0.036272
-0.024044
0.015512
-0.000360
0.053420
0.014895
0.052525
0.012753
-0.044861
0.021549
-0.012875
0.013670
0.018102
-0.020344
-0.027010
-0.000317
-0.040606
0.007304
0.036790
-0.042135
0.042728
0.018857
-0.002326
-0.003433
-0.007654
-0.023243
0.011101
-0.043952
-0.043679
0.053682
-0.044785
0.019443
-0.020610
-0.037061
0.001678
0.009163
0.008233
-0.024225
0.019776
-0.031501
0.004124
0.001097
0.019497
-0.012525
-0.043221
0.054643
0.040500
-0.044859
-0.007353
0.006176
-0.015775
-0.036409
0.025228
0.016168
-0.018257
0.016936
0.033887
0.009479
-0.041677
-0.006547
-0.003633
0.022826
-0.000808
0.029338
-0.010144
0.021213
0.000422
0.003212
0.019174
-0.005532
0.001019
0.003388
-0.022825
0.013922
0.001921
0.006076
-0.045329
-0.004498
0.011982
-0.011230
0.053760
-0.023909
-0.024498
-0.001453
-0.002047
0.002030
-0.001253
0.021675
-0.030707
-0.007446
0.053780
0.020303
-0.025072
0.044665
0.021195
0.014214
-0.010934
-0.012471
-0.003844
-0.000454
-0.011617
-0.005179
0.054143
0.000995
0.054834
-0.010097
0.052869
0.052315
0.017312
-0.012384
0.051860
-0.000075
-0.042639
-0.008440
0.005168
-0.045224
-0.046002
-0.024833
0.051733
0.017098
-0.022077
-0.008568
-0.044591
-0.044986
-0.010782
0.046103
0.017039
-0.044598
0.017935
-0.041836
0.054317
0.051933
-0.011800
-0.013019
0.015430
0.018321
0.020215
-0.022197
-0.025291
0.028783
-0.000536
-0.009917
0.053154
0.043717
-0.042414
0.012952
-0.042077
0.007456
-0.002088
0.004921
0.015179
0.023028
-0.044083
-0.006448
0.016850
-0.020531
-0.008137
0.017516
-0.008817
-0.015282
0.005017
0.019202
-0.023838
-0.004584
0.000577
0.003258
0.002394
0.000112
0.001324
-0.005547
0.050960
0.018765
-0.001112
-0.009950
0.052689
0.025856
0.018756
0.032953
0.018778
0.041640
0.038537
0.006364
-0.044160
0.012787
0.021832
-0.039061
-0.043513
-0.003151
-0.023360
-0.041744
0.051434
-0.024201
-0.044743
-0.028855
0.000223
0.019703
-0.033960
0.002037
0.019338
-0.044261
-0.000993
-0.040999
0.045599
-0.023370
0.018767
0.010049
-0.008150
0.011972
0.008213
0.014327
-0.024416
-0.001870
-0.015500
-0.010981
0.018702
0.002514
0.019640
-0.002746
-0.004800
0.051425
-0.022426
0.048543
-0.044958
-0.044490
-0.010075
-0.011820
0.019347
-0.006064
-0.002328
-0.012804
-0.000693
0.053869
0.053385
0.002922
-0.044741
0.054060
-0.012463
-0.042305
0.017474
-0.023817
-0.012425
0.053120
0.019206
0.037758
-0.009779
-0.039719
0.018222
-0.044481
0.051234
0.051836
-0.008250
0.006515
-0.030274
-0.045876
0.019635
0.051557
-0.012559
-0.018281
0.017180
-0.012395
-0.012252
0.018976
0.017835
-0.024221
-0.023578
-0.039043
0.012347
0.051239
0.007081
0.037347
-0.041035
0.040860
0.017426
-0.002248
-0.022405
-0.001756
0.050167
0.020277
-0.017842
-0.013362
-0.040817
0.009135
-0.023461
-0.044232
-0.012244
-0.009829
0.001660
0.000280
0.002698
-0.007094
-0.044843
-0.022850
0.014135
0.015848
0.018138
-0.021629
0.050784
-0.003373
-0.034157
-0.041345
0.053057
-0.043374
0.020938
0.029836
-0.015720
-0.031237
0.008969
0.018560
-0.005604
-0.010675
-0.026846
0.046567
0.041915
-0.000146
0.003904
0.001459
0.011826
0.053389
0.024169
0.003833
-0.003614
0.044339
0.000952
0.015677
0.006138
0.052585
0.017997
0.009836
-0.009623
-0.002257
0.006045
0.018211
-0.000650
0.011808
0.019414
-0.007564
0.019044
-0.044155
-0.012368
-0.022902
-0.000931
-0.045392
-0.009798
-0.007825
0.019570
-0.004744
-0.000173
-0.012978
-0.044263
-0.044133
-0.013025
0.050188
-0.021070
-0.010786
0.004215
-0.036768
-0.011109
0.019410
0.022837
0.051072
0.017614
-0.009108
-0.043888
0.004288
0.046899
0.027406
0.019648
0.052152
0.019833
0.019046
-0.005587
0.051366
-0.003734
-0.022767
0.021154
-0.015431
0.017515
-0.043657
-0.042770
0.042731
-0.007689
0.011434
-0.010407
0.019911
0.019549
0.019831
0.016728
-0.012241
-0.021717
0.030080
0.024650
0.047489
-0.039062
-0.000098
-0.002018
0.005784
0.045091
0.015716
0.006089
0.043612
-0.002063
-0.006152
-0.021648
-0.042114
0.017853
0.049869
0.035727
-0.043017
-0.025440
0.020622
0.011315
-0.043849
0.005561
0.002677
0.008464
0.001213
-0.021979
-0.008654
0.049158
-0.007176
0.017708
0.016956
-0.030899
0.052794
-0.013551
0.039883
0.039353
-0.039960
-0.036221
-0.042100
0.005289
-0.010696
0.010028
-0.044845
-0.028560
0.041920
-0.043594
0.003500
-0.022043
0.006880
0.002119
0.032959
-0.000682
0.013009
-0.004388
0.023263
0.049225
0.017761
0.000520
0.027038
0.051207
-0.005785
-0.041022
-0.002850
0.013763
0.010080
0.000752
-0.023328
0.019188
0.008017
-0.021129
-0.019214
-0.000596
0.017221
-0.005506
0.022466
-0.018201
0.016237
-0.001271
0.016465
-0.009650
-0.002274
0.016918
0.019631
0.017483
0.007113
0.016734
0.052819
-0.008856
-0.009522
-0.008964
-0.013057
-0.011138
-0.012462
-0.044376
0.051654
0.051159
-0.013032
-0.006841
-0.003039
-0.012377
0.020163
-0.032273
0.001444
-0.013531
0.017535
0.050510
-0.043681
-0.011574
-0.004236
-0.043977
0.038829
0.005951
0.007705
0.052510
-0.015929
-0.040344
0.018174
-0.043786
-0.041599
-0.043799
0.020996
-0.045377
0.020734
0.021092
0.022256
-0.013012
0.019873
-0.010281
-0.023961
0.020313
-0.020650
-0.012775
-0.026353
0.042640
-0.038673
0.036547
-0.000631
-0.040524
0.040397
0.010340
0.042862
-0.000577
-0.041314
-0.020429
0.007056
0.048819
-0.005237
0.052296
0.001458
0.015402
0.051479
0.002707
0.000417
-0.043121
-0.000884
-0.003644
-0.043780
0.022533
-0.001093
-0.010678
0.015777
0.016406
0.014110
0.015735
-0.043724
0.021164
-0.027605
0.004026
0.004205
-0.011425
0.034213
0.047446
0.005469
-0.036022
-0.003250
0.001284
-0.026591
-0.002755
0.049408
0.021880
-0.004834
0.003970
0.028238
0.018387
0.012165
0.006931
0.010663
-0.022539
-0.023024
-0.013199
0.044510
0.008366
0.023202
-0.001553
-0.020526
-0.022024
0.019040
-0.009412
-0.009313
-0.006734
0.023419
0.004974
0.015953
-0.043269
-0.043521
-0.017337
0.013268
0.016023
-0.040225
-0.039970
0.014814
0.017172
-0.007778
0.000352
-0.008298
-0.021418
-0.013046
0.004227
0.051999
0.018568
-0.007795
0.018089
-0.004112
0.025775
-0.009704
0.014794
0.021141
0.021601
-0.007948
-0.011085
0.050008
-0.013585
-0.005295
-0.013616
-0.000731
0.048342
0.046296
0.020375
-0.013855
0.039379
0.051961
-0.044046
0.052183
-0.012253
0.010394
-0.044399
-0.018366
-0.003324
0.011935
0.023953
0.003639
0.050762
0.021562
0.039557
0.005000
-0.042422
-0.012127
-0.043550
-0.004838
-0.043470
0.016593
-0.033168
-0.040738
-0.042895
0.031071
0.022096
0.015939
-0.011932
0.019074
0.021167
-0.022914
0.021183
-0.020902
0.028380
0.045582
0.024570
0.011099
-0.039458
0.005566
0.051652
0.040003
0.007273
0.044415
-0.005961
-0.014390
-0.030280
-0.012938
0.002965
-0.020286
0.003430
0.046091
-0.011008
-0.018710
-0.001741
-0.011997
0.021701
-0.041838
-0.007623
-0.037291
-0.042620
0.014168
0.016599
0.019863
0.004472
0.009418
0.048055
0.021758
0.014095
0.014730
-0.013529
-0.020740
0.042217
-0.025255
-0.031110
0.049286
-0.019718
-0.001029
-0.003597
0.015250
0.002858
0.004109
-0.040768
0.005816
0.014142
0.002021
0.001528
-0.042828
-0.002047
0.018210
0.020719
0.015252
-0.022211
-0.021005
0.041349
-0.004624
0.036228
0.038025
-0.010629
0.008613
0.023600
0.024519
0.034784
0.011386
0.000903
0.016731
-0.005501
0.004755
-0.002371
-0.008478
-0.009033
0.049995
0.014399
0.000596
-0.035605
-0.000097
0.014491
-0.007627
0.026502
0.015835
0.012369
0.051054
0.007491
-0.010733
0.017557
-0.010435
0.013220
0.022385
-0.013558
-0.008811
-0.044079
-0.043431
-0.039568
-0.011937
-0.007399
-0.007054
0.037337
-0.003430
-0.012902
0.047022
-0.014016
0.034983
0.051711
0.021090
0.006028
-0.013566
-0.014037
-0.039022
-0.042049
0.009402
0.022117
-0.041996
0.050987
0.049577
0.051749
0.050453
-0.043183
0.005906
-0.043049
-0.004375
0.024440
-0.043245
-0.043362
0.043657
0.015620
-0.010907
0.027881
-0.005284
-0.026540
0.023592
0.027124
-0.037281
0.037378
0.006231
0.050904
-0.001764
0.004454
-0.000876
-0.040443
0.043044
0.044391
0.012651
0.047775
0.050797
-0.019090
-0.016514
-0.033016
-0.010408
0.033137
0.008677
-0.000559
0.049577
0.001065
0.002614
-0.042069
0.018062
0.022149
-0.041429
-0.004808
-0.004415
-0.012696
0.020909
0.014850
0.012613
0.018273
-0.042722
-0.003209
0.001776
0.040560
0.013348
0.011751
-0.039718
0.038834
-0.026282
0.045299
-0.043119
-0.021948
0.010661
0.030180
0.047548
0.006960
0.019933
0.035666
-0.019920
0.049088
-0.021533
0.049982
0.000401
0.051055
0.022658
0.041781
0.004437
-0.001097
-0.015003
0.023905
-0.008157
0.000552
-0.007445
-0.006182
0.004159
-0.009428
-0.042974
0.013200
0.014392
-0.008905
-0.003112
0.025701
0.017380
0.048524
0.009660
0.021998
0.015460
-0.000539
0.046862
0.016391
0.022130
-0.013566
-0.009534
-0.003592
-0.011046
0.019869
-0.039104
0.003701
-0.009504
-0.036797
0.018963
0.040953
0.004237
0.020612
-0.014095
-0.011788
0.051165
-0.020526
-0.043768
-0.007949
0.023082
0.008426
-0.005460
-0.017893
0.049475
-0.014318
-0.006787
-0.040952
-0.014121
-0.023808
-0.007330
0.025364
-0.042156
0.022672
-0.042740
-0.043120
0.051306
0.049986
0.013556
-0.037669
-0.012602
-0.013405
0.025185
0.012706
0.025963
-0.021259
0.032666
0.014194
-0.042921
-0.008161
0.018433
-0.013176