# vtk DataFile Version 2.0
Test
ASCII
DATASET POLYDATA
POINTS 4677 float
0.000000 0.000000 0.000000
0.080000 0.000000 0.000000
0.080000 0.160000 0.000000
0.000000 0.160000 0.000000
0.036000 0.073072 0.000000
0.044000 0.086928 0.000000
0.024500 0.065566 0.000000
0.055500 0.093560 0.000000
0.001000 0.050000 0.000000
0.079000 0.110000 0.000000
0.002963 0.000000 0.000000
0.005926 0.000000 0.000000
0.008889 0.000000 0.000000
0.011852 0.000000 0.000000
0.014815 0.000000 0.000000
0.017778 0.000000 0.000000
0.020741 0.000000 0.000000
0.023704 0.000000 0.000000
0.026667 0.000000 0.000000
0.029630 0.000000 0.000000
0.032593 0.000000 0.000000
0.035556 0.000000 0.000000
0.038519 0.000000 0.000000
0.041481 0.000000 0.000000
0.044444 0.000000 0.000000
0.047407 0.000000 0.000000
0.050370 0.000000 0.000000
0.053333 0.000000 0.000000
0.056296 0.000000 0.000000
0.059259 0.000000 0.000000
0.062222 0.000000 0.000000
0.065185 0.000000 0.000000
0.068148 0.000000 0.000000
0.071111 0.000000 0.000000
0.074074 0.000000 0.000000
0.077037 0.000000 0.000000
0.080000 0.002963 0.000000
0.080000 0.005926 0.000000
0.080000 0.008889 0.000000
0.080000 0.011852 0.000000
0.080000 0.014815 0.000000
0.080000 0.017778 0.000000
0.080000 0.020741 0.000000
0.080000 0.023704 0.000000
0.080000 0.026667 0.000000
0.080000 0.029630 0.000000
0.080000 0.032593 0.000000
0.080000 0.035556 0.000000
0.080000 0.038519 0.000000
0.080000 0.041481 0.000000
0.080000 0.044444 0.000000
0.080000 0.047407 0.000000
0.080000 0.050370 0.000000
0.080000 0.053333 0.000000
0.080000 0.056296 0.000000
0.080000 0.059259 0.000000
0.080000 0.062222 0.000000
0.080000 0.065185 0.000000
0.080000 0.068148 0.000000
0.080000 0.071111 0.000000
0.080000 0.074074 0.000000
0.080000 0.077037 0.000000
0.080000 0.080000 0.000000
0.080000 0.082963 0.000000
0.080000 0.085926 0.000000
0.080000 0.088889 0.000000
0.080000 0.091852 0.000000
0.080000 0.094815 0.000000
0.080000 0.097778 0.000000
0.080000 0.100741 0.000000
0.080000 0.103704 0.000000
0.080000 0.106667 0.000000
0.080000 0.109630 0.000000
0.080000 0.112593 0.000000
0.080000 0.115556 0.000000
0.080000 0.118519 0.000000
0.080000 0.121481 0.000000
0.080000 0.124444 0.000000
0.080000 0.127407 0.000000
0.080000 0.130370 0.000000
0.080000 0.133333 0.000000
0.080000 0.136296 0.000000
0.080000 0.139259 0.000000
0.080000 0.142222 0.000000
0.080000 0.145185 0.000000
0.080000 0.148148 0.000000
0.080000 0.151111 0.000000
0.080000 0.154074 0.000000
0.080000 0.157037 0.000000
0.077037 0.160000 0.000000
0.074074 0.160000 0.000000
0.071111 0.160000 0.000000
0.068148 0.160000 0.000000
0.065185 0.160000 0.000000
0.062222 0.160000 0.000000
0.059259 0.160000 0.000000
0.056296 0.160000 0.000000
0.053333 0.160000 0.000000
0.050370 0.160000 0.000000
0.047407 0.160000 0.000000
0.044444 0.160000 0.000000
0.041481 0.160000 0.000000
0.038519 0.160000 0.000000
0.035556 0.160000 0.000000
0.032593 0.160000 0.000000
0.029630 0.160000 0.000000
0.026667 0.160000 0.000000
0.023704 0.160000 0.000000
0.020741 0.160000 0.000000
0.017778 0.160000 0.000000
0.014815 0.160000 0.000000
0.011852 0.160000 0.000000
0.008889 0.160000 0.000000
0.005926 0.160000 0.000000
0.002963 0.160000 0.000000
0.000000 0.157037 0.000000
0.000000 0.154074 0.000000
0.000000 0.151111 0.000000
0.000000 0.148148 0.000000
0.000000 0.145185 0.000000
0.000000 0.142222 0.000000
0.000000 0.139259 0.000000
0.000000 0.136296 0.000000
0.000000 0.133333 0.000000
0.000000 0.130370 0.000000
0.000000 0.127407 0.000000
0.000000 0.124444 0.000000
0.000000 0.121481 0.000000
0.000000 0.118519 0.000000
0.000000 0.115556 0.000000
0.000000 0.112593 0.000000
0.000000 0.109630 0.000000
0.000000 0.106667 0.000000
0.000000 0.103704 0.000000
0.000000 0.100741 0.000000
0.000000 0.097778 0.000000
0.000000 0.094815 0.000000
0.000000 0.091852 0.000000
0.000000 0.088889 0.000000
0.000000 0.085926 0.000000
0.000000 0.082963 0.000000
0.000000 0.080000 0.000000
0.000000 0.077037 0.000000
0.000000 0.074074 0.000000
0.000000 0.071111 0.000000
0.000000 0.068148 0.000000
0.000000 0.065185 0.000000
0.000000 0.062222 0.000000
0.000000 0.059259 0.000000
0.000000 0.056296 0.000000
0.000000 0.053333 0.000000
0.000000 0.050370 0.000000
0.000000 0.047407 0.000000
0.000000 0.044444 0.000000
0.000000 0.041481 0.000000
0.000000 0.038519 0.000000
0.000000 0.035556 0.000000
0.000000 0.032593 0.000000
0.000000 0.029630 0.000000
0.000000 0.026667 0.000000
0.000000 0.023704 0.000000
0.000000 0.020741 0.000000
0.000000 0.017778 0.000000
0.000000 0.014815 0.000000
0.000000 0.011852 0.000000
0.000000 0.008889 0.000000
0.000000 0.005926 0.000000
0.000000 0.002963 0.000000
0.035500 0.072746 0.000000
0.035000 0.072419 0.000000
0.034500 0.072093 0.000000
0.034000 0.071767 0.000000
0.033500 0.071440 0.000000
0.033000 0.071114 0.000000
0.032500 0.070788 0.000000
0.032000 0.070461 0.000000
0.031500 0.070135 0.000000
0.031000 0.069809 0.000000
0.030500 0.069482 0.000000
0.030000 0.069156 0.000000
0.029500 0.068829 0.000000
0.029000 0.068503 0.000000
0.028500 0.068177 0.000000
0.028000 0.067850 0.000000
0.027500 0.067524 0.000000
0.027000 0.067198 0.000000
0.026500 0.066871 0.000000
0.026000 0.066545 0.000000
0.025500 0.066219 0.000000
0.025000 0.065892 0.000000
0.044500 0.087216 0.000000
0.045000 0.087505 0.000000
0.045500 0.087793 0.000000
0.046000 0.088081 0.000000
0.046500 0.088370 0.000000
0.047000 0.088658 0.000000
0.047500 0.088946 0.000000
0.048000 0.089235 0.000000
0.048500 0.089523 0.000000
0.049000 0.089811 0.000000
0.049500 0.090100 0.000000
0.050000 0.090388 0.000000
0.050500 0.090677 0.000000
0.051000 0.090965 0.000000
0.051500 0.091253 0.000000
0.052000 0.091542 0.000000
0.052500 0.091830 0.000000
0.053000 0.092118 0.000000
0.053500 0.092407 0.000000
0.054000 0.092695 0.000000
0.054500 0.092983 0.000000
0.055000 0.093272 0.000000
0.043704 0.086415 0.000000
0.043407 0.085902 0.000000
0.043111 0.085388 0.000000
0.042815 0.084875 0.000000
0.042519 0.084362 0.000000
0.042222 0.083849 0.000000
0.041926 0.083336 0.000000
0.041630 0.082823 0.000000
0.041333 0.082309 0.000000
0.041037 0.081796 0.000000
0.040741 0.081283 0.000000
0.040444 0.080770 0.000000
0.040148 0.080257 0.000000
0.039852 0.079743 0.000000
0.039556 0.079230 0.000000
0.039259 0.078717 0.000000
0.038963 0.078204 0.000000
0.038667 0.077691 0.000000
0.038370 0.077177 0.000000
0.038074 0.076664 0.000000
0.037778 0.076151 0.000000
0.037481 0.075638 0.000000
0.037185 0.075125 0.000000
0.036889 0.074612 0.000000
0.036593 0.074098 0.000000
0.036296 0.073585 0.000000
0.024000 0.065235 0.000000
0.023500 0.064904 0.000000
0.023000 0.064572 0.000000
0.022500 0.064241 0.000000
0.022000 0.063910 0.000000
0.021500 0.063579 0.000000
0.021000 0.063248 0.000000
0.020500 0.062916 0.000000
0.020000 0.062585 0.000000
0.019500 0.062254 0.000000
0.019000 0.061923 0.000000
0.018500 0.061592 0.000000
0.018000 0.061261 0.000000
0.017500 0.060929 0.000000
0.017000 0.060598 0.000000
0.016500 0.060267 0.000000
0.016000 0.059936 0.000000
0.015500 0.059605 0.000000
0.015000 0.059273 0.000000
0.014500 0.058942 0.000000
0.014000 0.058611 0.000000
0.013500 0.058280 0.000000
0.013000 0.057949 0.000000
0.012500 0.057617 0.000000
0.012000 0.057286 0.000000
0.011500 0.056955 0.000000
0.011000 0.056624 0.000000
0.010500 0.056293 0.000000
0.010000 0.055961 0.000000
0.009500 0.055630 0.000000
0.009000 0.055299 0.000000
0.008500 0.054968 0.000000
0.008000 0.054637 0.000000
0.007500 0.054305 0.000000
0.007000 0.053974 0.000000
0.006500 0.053643 0.000000
0.006000 0.053312 0.000000
0.005500 0.052981 0.000000
0.005000 0.052650 0.000000
0.004500 0.052318 0.000000
0.004000 0.051987 0.000000
0.003500 0.051656 0.000000
0.003000 0.051325 0.000000
0.002500 0.050994 0.000000
0.002000 0.050662 0.000000
0.001500 0.050331 0.000000
0.055990 0.093902 0.000000
0.056479 0.094245 0.000000
0.056969 0.094587 0.000000
0.057458 0.094930 0.000000
0.057948 0.095272 0.000000
0.058437 0.095615 0.000000
0.058927 0.095957 0.000000
0.059417 0.096300 0.000000
0.059906 0.096642 0.000000
0.060396 0.096985 0.000000
0.060885 0.097327 0.000000
0.061375 0.097670 0.000000
0.061865 0.098012 0.000000
0.062354 0.098355 0.000000
0.062844 0.098697 0.000000
0.063333 0.099040 0.000000
0.063823 0.099382 0.000000
0.064312 0.099725 0.000000
0.064802 0.100067 0.000000
0.065292 0.100410 0.000000
0.065781 0.100752 0.000000
0.066271 0.101095 0.000000
0.066760 0.101437 0.000000
0.067250 0.101780 0.000000
0.067740 0.102122 0.000000
0.068229 0.102465 0.000000
0.068719 0.102807 0.000000
0.069208 0.103150 0.000000
0.069698 0.103492 0.000000
0.070187 0.103835 0.000000
0.070677 0.104177 0.000000
0.071167 0.104520 0.000000
0.071656 0.104862 0.000000
0.072146 0.105205 0.000000
0.072635 0.105547 0.000000
0.073125 0.105890 0.000000
0.073615 0.106232 0.000000
0.074104 0.106575 0.000000
0.074594 0.106917 0.000000
0.075083 0.107260 0.000000
0.075573 0.107602 0.000000
0.076062 0.107945 0.000000
0.076552 0.108287 0.000000
0.077042 0.108630 0.000000
0.077531 0.108972 0.000000
0.078021 0.109315 0.000000
0.078510 0.109658 0.000000
0.043942 0.087469 0.000000
0.035556 0.157037 0.000000
0.044420 0.002920 0.000000
0.077037 0.038519 0.000000
0.002963 0.121481 0.000000
0.077037 0.059259 0.000000
0.002963 0.109630 0.000000
0.002923 0.098139 0.000000
0.077153 0.126913 0.000000
0.002808 0.032596 0.000000
0.077140 0.071061 0.000000
0.002963 0.085926 0.000000
0.002963 0.136296 0.000000
0.077041 0.023701 0.000000
0.056296 0.157037 0.000000
0.032593 0.002963 0.000000
0.077037 0.080000 0.000000
0.002813 0.077135 0.000000
0.077037 0.142222 0.000000
0.017778 0.157037 0.000000
0.062222 0.002963 0.000000
0.076992 0.088722 0.000000
0.002945 0.020743 0.000000
0.017777 0.002962 0.000000
0.002801 0.068434 0.000000
0.002959 0.011851 0.000000
0.065186 0.157038 0.000000
0.002963 0.148148 0.000000
0.077037 0.011852 0.000000
0.076887 0.094740 0.000000
0.077092 0.115875 0.000000
0.002677 0.044265 0.000000
0.077038 0.148148 0.000000
0.002985 0.062165 0.000000
0.077037 0.047407 0.000000
0.011852 0.002963 0.000000
[...]
POINT_DATA 4677
SCALARS UX float 1
LOOKUP_TABLE default
-0.000000
0.000000
0.012425
-0.005999
-0.000906
-0.000454
-0.006603
0.005686
-0.010445
0.010324
-0.000000
-0.000000
-0.000000
-0.000000
-0.000000
-0.000000
-0.000000
-0.000000
-0.000000
-0.000000
-0.000000
-0.000000
-0.000000
0.000000
0.000000
0.000000
0.000000
0.000000
0.000000
0.000000
0.000000
0.000000
0.000000
0.000000
0.000000
-0.000000
0.001825
0.002804
0.003529
0.004132
0.004658
0.005126
0.005549
0.005935
0.006300
0.006646
0.006995
0.007297
0.007559
0.007796
0.007848
0.007976
0.008059
0.008125
0.008193
0.008276
0.008384
0.008525
0.008692
0.008866
0.009079
0.009464
0.009663
0.010012
0.010196
0.010461
0.010644
0.010782
0.010854
0.010853
0.010782
0.010688
0.010576
0.010491
0.010441
0.010425
0.010436
0.010479
0.010554
0.010684
0.010918
0.011035
0.011199
0.011441
0.011590
0.011721
0.011770
0.011940
0.012155
0.011622
0.010886
0.010231
0.009670
0.008968
0.008308
0.007582
0.006831
0.006184
0.005619
0.004777
0.004053
0.003393
0.002800
0.001935
0.001159
0.000548
-0.000148
-0.000809
-0.001450
-0.002085
-0.002723
-0.003365
-0.004013
-0.004672
-0.005330
-0.006020
-0.006062
-0.006130
-0.006223
-0.006340
-0.006475
-0.006594
-0.006870
-0.007196
-0.007316
-0.007379
-0.007471
-0.007603
-0.007826
-0.007894
-0.007974
-0.008076
-0.008202
-0.008362
-0.008543
-0.008743
-0.008971
-0.009223
-0.009499
-0.009886
-0.010133
-0.010379
-0.010679
-0.010861
-0.011044
-0.011147
-0.011259
-0.011303
-0.011299
-0.011171
-0.010958
-0.010669
-0.010360
-0.010128
-0.009906
-0.009708
-0.009449
-0.009278
-0.009015
-0.008626
-0.008339
-0.007901
-0.007370
-0.006649
-0.005887
-0.005056
-0.004028
-0.002741
-0.000070
-0.000646
-0.001485
-0.001681
-0.002102
-0.002536
-0.002059
-0.002387
-0.002624
-0.002880
-0.003139
-0.003480
-0.003798
-0.004117
-0.004399
-0.004700
-0.005045
-0.005324
-0.005562
-0.005763
-0.006039
-0.006320
0.000014
0.000392
0.000843
0.000552
0.000914
0.001534
0.002124
0.002032
0.001781
0.002443
0.002833
0.003649
0.003925
0.003607
0.003226
0.003787
0.004268
0.004364
0.004850
0.003910
0.004387
0.005069
-0.000285
-0.000279
-0.000238
-0.000197
-0.000172
-0.000176
-0.000197
-0.000218
-0.000245
-0.000274
-0.000298
-0.000326
-0.000373
-0.000413
-0.000470
-0.000515
-0.000553
-0.000590
-0.000628
-0.000649
-0.000679
-0.000684
-0.000662
-0.000627
-0.000588
-0.000711
-0.006657
-0.006843
-0.006888
-0.006953
-0.007016
-0.007091
-0.007176
-0.007267
-0.007367
-0.007456
-0.007582
-0.007673
-0.007757
-0.007841
-0.007934
-0.008018
-0.008125
-0.008225
-0.008302
-0.008383
-0.008468
-0.008555
-0.008643
-0.008732
-0.008820
-0.008908
-0.008994
-0.009078
-0.009162
-0.009245
-0.009327
-0.009408
-0.009487
-0.009566
-0.009643
-0.009719
-0.009793
-0.009865
-0.009936
-0.010006
-0.010073
-0.010139
-0.010204
-0.010266
-0.010328
-0.010387
0.005694
0.005814
0.005923
0.006018
0.006115
0.006248
0.006301
0.006376
0.006450
0.006527
0.006611
0.006693
0.006784
0.006875
0.006967
0.007060
0.007154
0.007248
0.007344
0.007443
0.007547
0.007653
0.007759
0.007864
0.007969
0.008074
0.008178
0.008281
0.008384
0.008486
0.008588
0.008690
0.008792
0.008894
0.008996
0.009097
0.009198
0.009300
0.009401
0.009503
0.009603
0.009705
0.009807
0.009910
0.010014
0.010117
0.010221
-0.000168
0.001718
0.000027
0.006987
-0.007018
0.007579
-0.007430
-0.008067
0.009905
-0.008752
0.008194
-0.009168
-0.006273
0.005369
0.006714
-0.000184
0.009065
-0.010093
0.010816
-0.002108
0.000310
0.009865
-0.007440
-0.000561
-0.010634
-0.005332
0.008833
-0.005548
0.003526
0.010155
0.009740
-0.009660
0.011112
-0.010801
0.007335
-0.000831
0.010153
-0.004675
0.000693
-0.010672
0.010241
0.010272
0.003259
0.004562
-0.000282
-0.006569
0.006087
-0.000869
0.000210
0.011403
0.009728
-0.009397
0.000112
0.009757
-0.009205
-0.010796
-0.010329
0.009415
-0.008531
-0.009548
0.007816
0.008353
0.007451
-0.007737
0.010131
-0.007255
-0.008499
-0.008160
0.007113
0.000391
0.010324
0.000124
-0.000020
-0.006775
0.006418
-0.000080
-0.006783
-0.000412
0.007372
0.005414
-0.005805
0.004554
-0.004423
-0.001016
-0.003000
-0.003381
0.000460
0.011168
-0.001459
-0.001493
-0.005384
0.002039
-0.005342
0.000962
0.010002
-0.000336
-0.010178
-0.010471
0.010145
-0.000374
-0.000076
0.006384
0.007721
-0.008071
-0.008803
0.009280
0.005217
-0.005909
0.009681
-0.000713
-0.009011
-0.006197
-0.010439
0.008559
0.009583
0.006596
-0.004711
-0.001777
-0.002690
0.010498
-0.004717
0.001455
0.009936
-0.009924
0.010301
-0.010764
0.010063
-0.010544
-0.010480
0.009627
0.009850
-0.009042
0.010278
-0.009862
0.008786
-0.008782
-0.008280
0.008029
0.007696
-0.007929
-0.007568
0.007522
-0.007341
0.007412
0.010042
0.007239
-0.007212
0.002614
-0.006858
0.006724
0.001001
0.000077
0.003935
-0.007895
-0.000282
0.000165
-0.000130
0.010569
-0.006502
0.005735
0.006065
-0.000234
-0.001482
0.000255
-0.006091
-0.000426
0.008159
-0.005965
0.004984
-0.000697
-0.005666
0.004077
0.009518
0.010960
-0.002740
0.000373
0.010796
0.011332
-0.004023
0.000567
-0.005453
0.002874
-0.010284
0.010153
0.009931
-0.010221
-0.010171
0.000109
-0.000496
0.010212
-0.010626
0.009210
-0.008971
0.000291
0.000245
0.000480
0.007025
-0.007807
-0.006957
0.008725
-0.008661
0.000917
-0.001540
-0.009975
0.000319
0.005159
0.009536
-0.005307
-0.002783
0.009820
0.003480
-0.005005
0.000777
0.009809
-0.010019
0.009293
0.006870
-0.006721
0.006774
-0.006512
0.003785
-0.005788
0.007999
-0.000999
-0.001502
-0.004788
0.009416
0.010483
-0.010086
0.009964
-0.009480
0.009437
0.008462
-0.010328
0.009193
-0.009283
-0.010287
0.009331
0.008837
-0.007311
0.009834
-0.008547
-0.008720
-0.009199
0.007363
0.007552
-0.008272
0.006186
-0.000286
-0.000176
-0.007728
0.006633
0.006510
0.000138
0.000037
-0.008526
0.009424
0.004521
-0.000330
0.005924
-0.006239
-0.006039
0.009931
0.010307
0.009601
0.002407
-0.007382
-0.000475
0.007282
-0.005513
-0.000750
0.004388
0.000514
-0.006821
-0.003839
-0.002150
0.010713
-0.004061
0.001130
0.002240
-0.008265
-0.000547
0.000061
0.009755
-0.010034
-0.010342
0.010288
-0.010317
0.010061
-0.000453
0.000594
0.000146
0.000552
-0.000192
-0.000275
0.005947
0.006898
-0.007718
0.003740
-0.005524
-0.007680
0.008731
0.008269
-0.000842
0.005794
-0.006765
-0.005585
-0.002292
-0.009831
0.009570
0.008688
0.000658
-0.009778
0.005938
0.000014
0.009082
-0.001301
0.007113
0.009535
-0.005263
-0.004135
0.001753
0.000191
-0.010123
0.009641
-0.008156
-0.010389
-0.007156
-0.009572
-0.007947
-0.007583
0.005553
0.007139
0.009146
0.006949
-0.006837
0.006826
0.007738
-0.006624
0.009308
0.009256
-0.008000
0.003021
-0.000372
0.000305
-0.005489
0.006709
0.000228
-0.000925
-0.007142
0.004404
0.005612
-0.006345
0.000413
-0.002151
0.010171
0.004787
-0.004906
-0.003199
0.003962
0.009775
0.008772
-0.001299
-0.005145
0.000630
0.001659
-0.003414
-0.004885
0.010031
0.002918
0.000937
-0.008574
0.008793
-0.008918
-0.000674
-0.010242
-0.000493
0.000392
0.009829
-0.009619
0.009522
-0.000427
0.001088
0.009696
-0.010246
-0.009846
0.009903
0.009688
0.000742
0.000769
0.000813
-0.010027
-0.009102
-0.000351
0.001043
0.006357
-0.006649
-0.007205
-0.007576
0.008270
0.003496
-0.009247
-0.008507
-0.000369
0.009078
-0.004666
0.000469
0.004570
-0.006552
-0.010086
-0.002237
-0.006274
0.000958
0.003379
0.006133
-0.000402
0.009229
0.002288
-0.005997
-0.005730
0.009414
-0.005001
-0.001950
0.002357
-0.003493
0.007002
-0.009305
0.008735
0.008638
-0.009699
-0.007232
-0.008264
-0.007431
-0.000594
0.006583
0.005294
-0.006581
0.006045
0.003088
-0.000139
-0.008352
0.008672
0.008950
-0.008943
0.008796
0.007980
0.005198
0.006151
0.009262
-0.007485
-0.005103
-0.001018
-0.001093
0.005760
-0.006208
0.006524
-0.001610
0.006724
0.000616
0.000841
0.007813
0.009163
-0.005424
0.004198
-0.004129
0.009723
-0.002706
0.000174
-0.004504
-0.004234
0.001166
0.001417
-0.008289
0.000243
0.000414
0.001059
-0.009862
-0.009939
0.009557
0.009544
-0.000681
-0.010021
-0.000715
0.009505
-0.010281
0.000800
0.009015
0.008476
0.008633
0.007488
-0.008826
-0.009602
0.000044
0.000714
0.009406
-0.000365
0.001291
0.005347
0.006018
-0.005193
-0.000205
0.007411
-0.008162
0.008202
0.008358
0.008339
0.005609
-0.004617
-0.000572
-0.001200
-0.009020
0.008559
0.000614
0.004121
0.009126
0.006954
-0.004033
-0.003597
0.000886
-0.006803
0.004822
0.008185
0.006336
-0.002266
0.001278
-0.005619
-0.003570
0.001911
0.000391
0.008691
-0.006933
0.006358
0.000146
-0.007233
-0.000666
-0.006930
0.006107
0.006427
0.002670
0.008235
-0.006392
0.001140
-0.006155
0.000013
-0.005952
0.008260
0.004867
-0.008890
0.008810
0.008136
-0.009675
0.006900
0.000319
0.007977
-0.007436
-0.006145
-0.008143
-0.004941
0.005039
-0.004348
0.001586
0.009032
-0.001617
0.003805
-0.001428
0.008526
0.000774
-0.004853
0.004175
-0.002648
0.008750
0.000205
0.002903
-0.004357
-0.002860
0.004932
0.009334
-0.009821
0.000007
-0.009955
-0.009345
0.000465
0.001162
-0.000645
-0.000567
-0.000785
-0.000673
-0.008472
0.000210
0.001062
0.001207
-0.006664
-0.009483
-0.008598
-0.009902
0.008261
0.006320
0.009543
0.009100
0.008142
-0.009625
-0.010073
0.009393
0.001045
0.009351
-0.009897
-0.007899
0.009662
0.009449
0.000968
-0.000181
0.001183
-0.005939
-0.006658
0.007825
0.002787
-0.004536
-0.008780
-0.000207
-0.007062
0.004292
-0.008167
0.008306
-0.001534
0.007784
-0.006068
0.007549
0.004863
-0.009094
-0.009721
-0.001736
0.009091
0.005780
0.007703
0.005535
0.001400
0.000476
0.007937
-0.005639
-0.005026
-0.000020
0.000406
-0.002847
0.008412
0.003208
-0.009278
0.001036
-0.004223
0.002387
-0.003728
-0.000768
0.000786
-0.006366
-0.008386
-0.007687
-0.007702
0.005757
0.005840
-0.006306
-0.007968
0.004590
0.007666
-0.000438
-0.009868
0.006163
-0.005341
0.000204
-0.000872
-0.009819
-0.004787
0.007096
0.008380
0.009378
0.004056
-0.001832
-0.003796
0.007717
0.006477
0.005526
0.006357
0.000811
-0.004446
0.003602
0.008897
0.005187
-0.003878
0.009144
0.002012
-0.001139
0.001560
-0.003069
0.009398
-0.002971
-0.009627
0.008588
0.009247
0.008896
-0.000390
0.001457
-0.009377
-0.009777
0.008085
-0.008701
0.000274
0.008441
0.001323
0.000575
-0.000785
0.001292
-0.000520
-0.000837
-0.006558
0.000616
0.009385
0.000551
0.001436
0.009570
-0.010096
-0.007417
-0.009863
0.009224
0.001384
-0.009726
0.007759
-0.007110
0.001237
-0.000372
0.007302
0.001442
0.005182
0.005716
-0.006097
-0.007511
0.006770
-0.008334
0.000495
0.004447
-0.000160
-0.003992
0.003113
0.001628
0.000741
0.001016
-0.009193
-0.009553
-0.006246
-0.006166
0.003843
-0.006920
-0.004730
0.006195
0.004975
0.006204
-0.002336
0.007574
0.007748
-0.003260
-0.001279
-0.000939
-0.006122
-0.006061
0.000616
-0.005731
-0.006746
-0.000627
-0.001157
0.009628
0.005565
-0.009578
-0.009328
0.007424
0.000208
-0.010128
0.001925
0.001036
-0.007794
0.005472
-0.009617
0.000747
0.005523
-0.005673
-0.007975
0.007721
-0.001840
-0.004326
0.008090
-0.009509
-0.009999
-0.006891
0.008246
0.007999
-0.003301
-0.008965
0.003409
-0.004456
-0.003809
0.005622
0.004762
0.004474
-0.003102
0.008228
0.001960
0.002837
0.009188
-0.002345
-0.003610
0.001287
-0.005454
0.007626
0.008749
0.000015
0.000114
0.008831
0.008318
0.001140
-0.009694
0.007976
0.007727
0.009124
-0.009703
0.001599
-0.000416
-0.000789
-0.000920
-0.008504
0.001730
-0.000813
-0.008861
0.000745
0.009227
0.008590
-0.009979
0.000448
0.005876
0.007350
-0.005780
0.001541
-0.000439
0.009043
0.001515
0.009045
0.001841
-0.009549
0.006905
-0.004113
0.004325
0.001889
-0.007377
-0.006348
-0.000437
-0.008352
0.003793
0.007201
-0.009103
0.008427
0.007030
-0.002263
-0.003367
-0.005588
-0.005510
0.002413
-0.009710
-0.008971
0.008905
-0.009454
0.007154
-0.004959
-0.007793
0.001211
0.001014
0.000531
-0.005886
0.007456
-0.007143
0.002760
-0.002649
0.005140
-0.001067
-0.009399
0.008795
0.007835
-0.009350
0.000557
0.003457
-0.007231
-0.008030
0.005871
0.005105
-0.004813
0.004977
0.007144
0.001158
-0.008842
-0.005046
-0.003406
0.005632
-0.000881
0.006440
-0.003919
0.005292
0.000234
0.002384
0.006852
-0.004530
0.000751
-0.001862
-0.005250
0.003895
0.001593
-0.000692
-0.009915
-0.003877
0.004618
-0.006537
0.008013
-0.005780
-0.005984
-0.001478
-0.003195
-0.002492
-0.003422
0.007572
-0.007809
-0.004166
0.007896
0.005334
-0.006180
0.009180
0.007239
0.001280
-0.000076
-0.000991
0.000904
0.000579
-0.000942
0.000073
0.008257
0.001411
0.008550
-0.000640
0.008968
0.008895
0.001746
-0.000722
0.009440
-0.000221
-0.009252
-0.000437
0.002457
-0.009513
-0.010387
-0.006142
0.009779
0.001620
-0.005221
0.000365
-0.009594
-0.010311
-0.006629
0.007546
0.001916
-0.009482
0.002015
-0.008604
0.008973
0.009081
-0.000247
-0.001134
0.001299
0.001836
0.004842
-0.005048
-0.005861
0.006173
-0.000655
-0.003490
0.007932
0.008460
-0.008717
0.003662
-0.009031
0.000456
-0.002763
-0.000851
0.004394
0.005270
-0.009683
-0.004917
0.005567
-0.004699
-0.005744
0.004880
0.000471
-0.004209
0.002900
0.002361
-0.005660
-0.003931
0.000313
0.002280
-0.002054
-0.002810
0.000904
-0.003548
0.009312
0.004695
-0.001094
-0.006257
0.008795
0.005645
0.006734
0.006760
0.005096
0.008005
0.007544
0.003482
-0.009156
0.003289
0.005149
-0.007955
-0.009462
-0.002941
-0.007426
-0.008952
0.009029
-0.005805
-0.010064
-0.006608
0.000028
0.007349
-0.007429
0.001533
0.007127
-0.009390
-0.003009
-0.008492
0.009203
-0.005419
0.001989
0.001813
-0.003731
0.004182
0.003916
0.004354
-0.005653
-0.001793
-0.007067
-0.006447
0.006867
0.001924
0.007152
0.000391
0.000021
0.007643
-0.005213
0.007533
-0.009791
-0.009620
-0.000645
-0.001006
0.007196
0.000782
0.001257
-0.000986
-0.000727
0.008730
0.008233
0.002062
-0.009365
0.008520
-0.001102
-0.009096
0.001538
-0.005719
-0.000597
0.008879
0.002095
0.007140
0.000222
-0.008299
0.001711
-0.009381
0.009904
0.008821
-0.000468
0.002198
-0.007668
-0.010482
0.002271
0.009193
-0.006753
-0.004442
0.006462
-0.000436
-0.006604
0.002092
0.001539
-0.005417
-0.007310
-0.007861
0.003560
0.007577
0.003349
0.007101
-0.008454
0.007685
0.006511
0.000405
-0.005187
-0.001738
0.009380
0.002435
-0.004057
-0.001145
-0.008466
0.001682
-0.005441
-0.009685
-0.003642
0.000343
0.001060
0.000059
0.001886
-0.005187
-0.009850
-0.005254
0.001125
0.004413
0.006585
-0.004836
0.009019
-0.003071
-0.007211
-0.008774
0.008687
-0.008932
0.004967
0.006257
-0.006991
-0.006882
0.001219
0.006732
-0.004393
-0.006279
-0.006113
0.007299
0.007166
-0.000317
0.002525
-0.002213
0.003759
0.008497
0.005369
-0.001417
-0.002957
0.008812
0.000602
0.004940
-0.000305
0.007956
0.004615
0.004046
-0.006076
-0.002108
0.003228
0.006786
-0.002521
0.003004
0.004697
-0.003324
0.007073
-0.009224
-0.001132
-0.005306
-0.000948
-0.010308
-0.000634
0.000716
0.002230
0.001073
0.001668
-0.000913
-0.009334
-0.009472
-0.001219
0.009719
-0.004670
0.000080
0.002452
-0.008010
-0.000836
0.001918
0.006706
0.008881
0.006057
-0.006103
-0.009257
0.000677
0.009574
0.005896
0.005583
0.008722
0.002463
0.001770
-0.000129
0.008743
-0.003434
-0.005297
0.002240
-0.003877
0.006638
-0.009468
-0.009230
0.008133
-0.000444
0.002656
-0.006141
0.004498
0.001760
0.002168
0.006222
-0.003304
-0.004756
0.006073
0.005185
0.007267
-0.008145
-0.000297
-0.002373
0.002780
0.008813
0.006094
0.000654
0.008215
-0.001920
-0.004683
-0.004682
-0.008948
0.004168
0.009060
0.006830
-0.009252
-0.005658
0.002530
0.003017
-0.009201
-0.000275
-0.001625
0.003473
0.000728
-0.004949
-0.005846
0.009375
-0.002899
0.004574
0.005958
-0.006621
0.008457
-0.001086
0.007510
0.006919
-0.008055
-0.007412
-0.008660
0.002950
0.000162
0.002148
-0.009978
-0.006357
0.007836
-0.009050
0.002198
-0.004896
0.000436
0.001412
0.006811
-0.000746
0.003839
-0.000103
0.003130
0.009830
0.006557
-0.002423
0.005640
0.007654
-0.003147
-0.008623
-0.002613
0.004286
0.003613
0.000391
-0.005234
0.004391
0.001057
-0.004526
-0.004164
-0.002181
0.006557
-0.004338
0.004881
-0.007033
0.006443
-0.001274
0.005604
-0.006012
0.000212
0.001354
0.002275
0.006685
0.000829
0.004482
0.008234
0.000622
-0.000653
-0.000646
-0.001270
-0.000873
-0.001188
-0.009623
0.008657
0.008589
-0.000799
0.000952
0.001419
-0.006499
0.001986
-0.007692
0.001948
-0.001284
0.006137
0.008775
-0.009439
-0.000109
-0.003723
-0.009212
0.007322
0.002673
0.003170
0.008603
-0.003524
-0.008224
0.005028
-0.009253
-0.008858
-0.009343
0.002677
-0.010053
0.004634
0.002721
0.002822
-0.000671
0.004190
-0.006034
-0.005228
0.001928
-0.004423
-0.002964
-0.007347
0.006965
-0.007632
0.006744
-0.000728
-0.008475
0.007410
0.002873
0.007907
-0.001784
-0.008783
-0.004251
0.000946
0.009017
-0.004096
0.008205
0.000840
0.006055
0.008476
0.001682
-0.001981
-0.009236
0.000220
-0.002562
-0.009457
0.003071
-0.001114
-0.000893
0.001180
0.004066
0.003804
0.005375
-0.009349
0.002582
-0.006028
0.002417
0.002424
-0.000034
0.006612
0.009394
0.000094
-0.007809
-0.002951
-0.001899
-0.005896
-0.002492
0.007366
0.006375
-0.002738
-0.000967
0.005794
0.004236
0.003706
0.002909
0.003225
-0.005065
-0.005004
-0.006599
0.008523
0.001495
0.002852
-0.001549
-0.004361
-0.004861
0.004055
-0.003045
-0.005843
-0.004988
0.004957
0.002685
0.005995
-0.009096
-0.009123
-0.003543
0.000940
0.006334
-0.008302
-0.008132
0.006027
0.004178
-0.005495
0.000091
-0.005661
-0.004608
-0.001323
0.000523
0.007947
0.001583
-0.000547
0.003554
-0.003485
0.005403
0.000484
0.004782
0.002227
0.004750
0.000879
-0.000892
0.008640
-0.001379
0.001271
-0.000995
0.001696
0.009525
0.009172
0.002392
-0.001295
0.007231
0.008533
-0.009496
0.008386
-0.000312
0.002530
-0.009705
-0.006929
-0.000017
0.000956
0.002972
0.002250
0.008543
0.002747
0.007640
0.002764
-0.009036
-0.001106
-0.009178
-0.003978
-0.009037
0.006032
-0.006853
-0.008389
-0.008849
0.006494
0.002669
0.003619
-0.000216
0.003781
0.006100
-0.004861
0.002146
-0.006967
0.005570
0.007049
0.004965
0.003396
-0.008020
0.002344
0.007957
0.007162
0.001266
0.008263
-0.004456
-0.003001
-0.006346
-0.001348
0.000306
-0.004227
0.001947
0.008833
-0.006190
-0.003780
-0.001740
-0.001141
0.004492
-0.008851
-0.002484
-0.007361
-0.009031
0.005810
0.001224
0.001810
0.002445
0.002349
0.009220
0.002629
0.004728
0.005480
-0.000876
-0.004436
0.007667
-0.005496
-0.007501
0.008824
-0.004038
-0.001104
-0.003094
0.003918
-0.001199
-0.000624
-0.008606
0.000639
0.005551
0.001221
0.002034
-0.008862
-0.002020
0.003974
0.004333
0.005420
-0.004830
-0.004496
0.007546
-0.003805
0.006579
0.006985
-0.002771
0.003073
0.004761
0.003180
0.006432
0.003316
0.000456
0.003691
-0.002325
0.002214
-0.002146
-0.005637
-0.005696
0.008838
0.005588
-0.001606
-0.007078
-0.000321
0.005942
-0.005348
0.005284
0.006223
0.000754
0.007688
0.002589
-0.000978
0.001414
0.000312
0.004220
0.002962
-0.001442
0.000778
-0.009560
-0.009230
-0.007923
-0.001092
-0.000589
0.001138
0.003524
0.001531
-0.000541
0.009071
-0.001440
0.006901
0.008187
0.002430
0.000508
-0.006488
-0.001250
-0.008120
-0.008993
0.002102
0.002781
-0.008645
0.008429
0.008489
0.008379
0.008409
-0.009198
0.003214
-0.009024
-0.000212
0.003097
-0.009055
-0.009032
0.007983
0.003162
-0.006061
0.006189
-0.001951
-0.007175
0.004560
0.005117
-0.007224
0.006650
0.001056
0.007714
-0.001783
0.001785
-0.001457
-0.008495
0.007756
0.008005
0.004980
0.008860
0.008269
-0.003790
-0.003282
-0.006503
-0.002500
0.006224
0.002641
-0.000777
0.008220
0.000535
0.001492
-0.008675
0.001461
0.002653
-0.008775
-0.003888
-0.003566
-0.001320
0.004060
0.003513
0.003258
0.003642
-0.009006
-0.002124
-0.001412
0.006681
0.005081
0.003696
-0.008192
0.006950
-0.005646
0.008541
-0.009133
-0.004632
0.000550
0.005747
0.007106
0.002510
0.003943
0.006307
-0.004010
0.008463
-0.004668
0.007398
0.000102
0.008121
0.004487
0.007465
-0.000009
0.001782
-0.006574
0.003311
-0.005463
-0.001210
-0.005189
-0.004563
0.002119
-0.005784
-0.008923
0.005517
0.005856
-0.005616
-0.002697
0.005204
0.003828
0.008765
0.002791
0.002382
0.001030
0.000084
0.008732
0.005924
0.002497
-0.001497
-0.000833
-0.000144
0.000130
0.002904
-0.007812
0.002237
0.000644
-0.007857
0.001614
0.007328
0.002243
0.001973
-0.001544
-0.001156
0.007954
-0.004230
-0.009408
0.001053
0.002979
0.001893
0.001406
-0.003479
0.008640
-0.001452
-0.004947
-0.008411
-0.001168
-0.005003
-0.000636
0.004133
-0.008854
0.002816
-0.008884
-0.009102
0.008309
0.008318
0.004817
-0.007542
-0.000440
-0.000754
0.003245
0.000733
0.003443
-0.004637
0.006486
0.005656
-0.008934
-0.005362
0.003446
-0.000635
-0.006723
0.006298