# vtk DataFile Version 2.0
Test
ASCII
DATASET POLYDATA
POINTS 4677 float
0.000000 0.000000 0.000000
0.080000 0.000000 0.000000
0.080000 0.160000 0.000000
0.000000 0.160000 0.000000
0.036000 0.073072 0.000000
0.044000 0.086928 0.000000
0.024500 0.065566 0.000000
0.055500 0.093560 0.000000
0.001000 0.050000 0.000000
0.079000 0.110000 0.000000
0.002963 0.000000 0.000000
0.005926 0.000000 0.000000
0.008889 0.000000 0.000000
0.011852 0.000000 0.000000
0.014815 0.000000 0.000000
0.017778 0.000000 0.000000
0.020741 0.000000 0.000000
0.023704 0.000000 0.000000
0.026667 0.000000 0.000000
0.029630 0.000000 0.000000
0.032593 0.000000 0.000000
0.035556 0.000000 0.000000
0.038519 0.000000 0.000000
0.041481 0.000000 0.000000
0.044444 0.000000 0.000000
0.047407 0.000000 0.000000
0.050370 0.000000 0.000000
0.053333 0.000000 0.000000
0.056296 0.000000 0.000000
0.059259 0.000000 0.000000
0.062222 0.000000 0.000000
0.065185 0.000000 0.000000
0.068148 0.000000 0.000000
0.071111 0.000000 0.000000
0.074074 0.000000 0.000000
0.077037 0.000000 0.000000
0.080000 0.002963 0.000000
0.080000 0.005926 0.000000
0.080000 0.008889 0.000000
0.080000 0.011852 0.000000
0.080000 0.014815 0.000000
0.080000 0.017778 0.000000
0.080000 0.020741 0.000000
0.080000 0.023704 0.000000
0.080000 0.026667 0.000000
0.080000 0.029630 0.000000
0.080000 0.032593 0.000000
0.080000 0.035556 0.000000
0.080000 0.038519 0.000000
0.080000 0.041481 0.000000
0.080000 0.044444 0.000000
0.080000 0.047407 0.000000
0.080000 0.050370 0.000000
0.080000 0.053333 0.000000
0.080000 0.056296 0.000000
0.080000 0.059259 0.000000
0.080000 0.062222 0.000000
0.080000 0.065185 0.000000
0.080000 0.068148 0.000000
0.080000 0.071111 0.000000
0.080000 0.074074 0.000000
0.080000 0.077037 0.000000
0.080000 0.080000 0.000000
0.080000 0.082963 0.000000
0.080000 0.085926 0.000000
0.080000 0.088889 0.000000
0.080000 0.091852 0.000000
0.080000 0.094815 0.000000
0.080000 0.097778 0.000000
0.080000 0.100741 0.000000
0.080000 0.103704 0.000000
0.080000 0.106667 0.000000
0.080000 0.109630 0.000000
0.080000 0.112593 0.000000
0.080000 0.115556 0.000000
0.080000 0.118519 0.000000
0.080000 0.121481 0.000000
0.080000 0.124444 0.000000
0.080000 0.127407 0.000000
0.080000 0.130370 0.000000
0.080000 0.133333 0.000000
0.080000 0.136296 0.000000
0.080000 0.139259 0.000000
0.080000 0.142222 0.000000
0.080000 0.145185 0.000000
0.080000 0.148148 0.000000
0.080000 0.151111 0.000000
0.080000 0.154074 0.000000
0.080000 0.157037 0.000000
0.077037 0.160000 0.000000
0.074074 0.160000 0.000000
0.071111 0.160000 0.000000
0.068148 0.160000 0.000000
0.065185 0.160000 0.000000
0.062222 0.160000 0.000000
0.059259 0.160000 0.000000
0.056296 0.160000 0.000000
0.053333 0.160000 0.000000
0.050370 0.160000 0.000000
0.047407 0.160000 0.000000
0.044444 0.160000 0.000000
0.041481 0.160000 0.000000
0.038519 0.160000 0.000000
0.035556 0.160000 0.000000
0.032593 0.160000 0.000000
0.029630 0.160000 0.000000
0.026667 0.160000 0.000000
0.023704 0.160000 0.000000
0.020741 0.160000 0.000000
0.017778 0.160000 0.000000
0.014815 0.160000 0.000000
0.011852 0.160000 0.000000
0.008889 0.160000 0.000000
0.005926 0.160000 0.000000
0.002963 0.160000 0.000000
0.000000 0.157037 0.000000
0.000000 0.154074 0.000000
0.000000 0.151111 0.000000
0.000000 0.148148 0.000000
0.000000 0.145185 0.000000
0.000000 0.142222 0.000000
0.000000 0.139259 0.000000
0.000000 0.136296 0.000000
0.000000 0.133333 0.000000
0.000000 0.130370 0.000000
0.000000 0.127407 0.000000
0.000000 0.124444 0.000000
0.000000 0.121481 0.000000
0.000000 0.118519 0.000000
0.000000 0.115556 0.000000
0.000000 0.112593 0.000000
0.000000 0.109630 0.000000
0.000000 0.106667 0.000000
0.000000 0.103704 0.000000
0.000000 0.100741 0.000000
0.000000 0.097778 0.000000
0.000000 0.094815 0.000000
0.000000 0.091852 0.000000
0.000000 0.088889 0.000000
0.000000 0.085926 0.000000
0.000000 0.082963 0.000000
0.000000 0.080000 0.000000
0.000000 0.077037 0.000000
0.000000 0.074074 0.000000
0.000000 0.071111 0.000000
0.000000 0.068148 0.000000
0.000000 0.065185 0.000000
0.000000 0.062222 0.000000
0.000000 0.059259 0.000000
0.000000 0.056296 0.000000
0.000000 0.053333 0.000000
0.000000 0.050370 0.000000
0.000000 0.047407 0.000000
0.000000 0.044444 0.000000
0.000000 0.041481 0.000000
0.000000 0.038519 0.000000
0.000000 0.035556 0.000000
0.000000 0.032593 0.000000
0.000000 0.029630 0.000000
0.000000 0.026667 0.000000
0.000000 0.023704 0.000000
0.000000 0.020741 0.000000
0.000000 0.017778 0.000000
0.000000 0.014815 0.000000
0.000000 0.011852 0.000000
0.000000 0.008889 0.000000
0.000000 0.005926 0.000000
0.000000 0.002963 0.000000
0.035500 0.072746 0.000000
0.035000 0.072419 0.000000
0.034500 0.072093 0.000000
0.034000 0.071767 0.000000
0.033500 0.071440 0.000000
0.033000 0.071114 0.000000
0.032500 0.070788 0.000000
0.032000 0.070461 0.000000
0.031500 0.070135 0.000000
0.031000 0.069809 0.000000
0.030500 0.069482 0.000000
0.030000 0.069156 0.000000
0.029500 0.068829 0.000000
0.029000 0.068503 0.000000
0.028500 0.068177 0.000000
0.028000 0.067850 0.000000
0.027500 0.067524 0.000000
0.027000 0.067198 0.000000
0.026500 0.066871 0.000000
0.026000 0.066545 0.000000
0.025500 0.066219 0.000000
0.025000 0.065892 0.000000
0.044500 0.087216 0.000000
0.045000 0.087505 0.000000
0.045500 0.087793 0.000000
0.046000 0.088081 0.000000
0.046500 0.088370 0.000000
0.047000 0.088658 0.000000
0.047500 0.088946 0.000000
0.048000 0.089235 0.000000
0.048500 0.089523 0.000000
0.049000 0.089811 0.000000
0.049500 0.090100 0.000000
0.050000 0.090388 0.000000
0.050500 0.090677 0.000000
0.051000 0.090965 0.000000
0.051500 0.091253 0.000000
0.052000 0.091542 0.000000
0.052500 0.091830 0.000000
0.053000 0.092118 0.000000
0.053500 0.092407 0.000000
0.054000 0.092695 0.000000
0.054500 0.092983 0.000000
0.055000 0.093272 0.000000
0.043704 0.086415 0.000000
0.043407 0.085902 0.000000
0.043111 0.085388 0.000000
0.042815 0.084875 0.000000
0.042519 0.084362 0.000000
0.042222 0.083849 0.000000
0.041926 0.083336 0.000000
0.041630 0.082823 0.000000
0.041333 0.082309 0.000000
0.041037 0.081796 0.000000
0.040741 0.081283 0.000000
0.040444 0.080770 0.000000
0.040148 0.080257 0.000000
0.039852 0.079743 0.000000
0.039556 0.079230 0.000000
0.039259 0.078717 0.000000
0.038963 0.078204 0.000000
0.038667 0.077691 0.000000
0.038370 0.077177 0.000000
0.038074 0.076664 0.000000
0.037778 0.076151 0.000000
0.037481 0.075638 0.000000
0.037185 0.075125 0.000000
0.036889 0.074612 0.000000
0.036593 0.074098 0.000000
0.036296 0.073585 0.000000
0.024000 0.065235 0.000000
0.023500 0.064904 0.000000
0.023000 0.064572 0.000000
0.022500 0.064241 0.000000
0.022000 0.063910 0.000000
0.021500 0.063579 0.000000
0.021000 0.063248 0.000000
0.020500 0.062916 0.000000
0.020000 0.062585 0.000000
0.019500 0.062254 0.000000
0.019000 0.061923 0.000000
0.018500 0.061592 0.000000
0.018000 0.061261 0.000000
0.017500 0.060929 0.000000
0.017000 0.060598 0.000000
0.016500 0.060267 0.000000
0.016000 0.059936 0.000000
0.015500 0.059605 0.000000
0.015000 0.059273 0.000000
0.014500 0.058942 0.000000
0.014000 0.058611 0.000000
0.013500 0.058280 0.000000
0.013000 0.057949 0.000000
0.012500 0.057617 0.000000
0.012000 0.057286 0.000000
0.011500 0.056955 0.000000
0.011000 0.056624 0.000000
0.010500 0.056293 0.000000
0.010000 0.055961 0.000000
0.009500 0.055630 0.000000
0.009000 0.055299 0.000000
0.008500 0.054968 0.000000
0.008000 0.054637 0.000000
0.007500 0.054305 0.000000
0.007000 0.053974 0.000000
0.006500 0.053643 0.000000
0.006000 0.053312 0.000000
0.005500 0.052981 0.000000
0.005000 0.052650 0.000000
0.004500 0.052318 0.000000
0.004000 0.051987 0.000000
0.003500 0.051656 0.000000
0.003000 0.051325 0.000000
0.002500 0.050994 0.000000
0.002000 0.050662 0.000000
0.001500 0.050331 0.000000
0.055990 0.093902 0.000000
0.056479 0.094245 0.000000
0.056969 0.094587 0.000000
0.057458 0.094930 0.000000
0.057948 0.095272 0.000000
0.058437 0.095615 0.000000
0.058927 0.095957 0.000000
0.059417 0.096300 0.000000
0.059906 0.096642 0.000000
0.060396 0.096985 0.000000
0.060885 0.097327 0.000000
0.061375 0.097670 0.000000
0.061865 0.098012 0.000000
0.062354 0.098355 0.000000
0.062844 0.098697 0.000000
0.063333 0.099040 0.000000
0.063823 0.099382 0.000000
0.064312 0.099725 0.000000
0.064802 0.100067 0.000000
0.065292 0.100410 0.000000
0.065781 0.100752 0.000000
0.066271 0.101095 0.000000
0.066760 0.101437 0.000000
0.067250 0.101780 0.000000
0.067740 0.102122 0.000000
0.068229 0.102465 0.000000
0.068719 0.102807 0.000000
0.069208 0.103150 0.000000
0.069698 0.103492 0.000000
0.070187 0.103835 0.000000
0.070677 0.104177 0.000000
0.071167 0.104520 0.000000
0.071656 0.104862 0.000000
0.072146 0.105205 0.000000
0.072635 0.105547 0.000000
0.073125 0.105890 0.000000
0.073615 0.106232 0.000000
0.074104 0.106575 0.000000
0.074594 0.106917 0.000000
0.075083 0.107260 0.000000
0.075573 0.107602 0.000000
0.076062 0.107945 0.000000
0.076552 0.108287 0.000000
0.077042 0.108630 0.000000
0.077531 0.108972 0.000000
0.078021 0.109315 0.000000
0.078510 0.109658 0.000000
0.043942 0.087469 0.000000
0.035556 0.157037 0.000000
0.044420 0.002920 0.000000
0.077037 0.038519 0.000000
0.002963 0.121481 0.000000
0.077037 0.059259 0.000000
0.002963 0.109630 0.000000
0.002923 0.098139 0.000000
0.077153 0.126913 0.000000
0.002808 0.032596 0.000000
0.077140 0.071061 0.000000
0.002963 0.085926 0.000000
0.002963 0.136296 0.000000
0.077041 0.023701 0.000000
0.056296 0.157037 0.000000
0.032593 0.002963 0.000000
0.077037 0.080000 0.000000
0.002813 0.077135 0.000000
0.077037 0.142222 0.000000
0.017778 0.157037 0.000000
0.062222 0.002963 0.000000
0.076992 0.088722 0.000000
0.002945 0.020743 0.000000
0.017777 0.002962 0.000000
0.002801 0.068434 0.000000
0.002959 0.011851 0.000000
0.065186 0.157038 0.000000
0.002963 0.148148 0.000000
0.077037 0.011852 0.000000
0.076887 0.094740 0.000000
0.077092 0.115875 0.000000
0.002677 0.044265 0.000000
0.077038 0.148148 0.000000
0.002985 0.062165 0.000000
0.077037 0.047407 0.000000
0.011852 0.002963 0.000000
[...]
POINT_DATA 4677
SCALARS UX float 1
LOOKUP_TABLE default
-0.000001
0.000002
0.037935
-0.052825
-0.009378
-0.012839
-0.044719
0.018162
-0.061063
0.044376
-0.000000
-0.000000
-0.000000
-0.000000
-0.000000
-0.000000
-0.000000
-0.000000
-0.000000
-0.000000
-0.000000
-0.000000
-0.000000
0.000000
0.000000
0.000000
0.000000
0.000000
0.000000
0.000000
0.000000
0.000000
0.000000
0.000000
0.000000
-0.000000
0.007568
0.011904
0.015215
0.017921
0.020265
0.022457
0.024725
0.027002
0.028649
0.030057
0.031666
0.032812
0.033735
0.034984
0.035912
0.038292
0.039678
0.039633
0.040125
0.041599
0.043707
0.045061
0.045462
0.045752
0.046295
0.047901
0.049170
0.050350
0.051107
0.049607
0.047460
0.047016
0.047618
0.043271
0.043050
0.046403
0.046092
0.045244
0.043940
0.039485
0.038982
0.040777
0.038619
0.037154
0.036669
0.036636
0.036678
0.037401
0.037819
0.038173
0.038233
0.038049
0.037980
0.034477
0.031045
0.027625
0.024203
0.020781
0.017374
0.013993
0.010643
0.007323
0.004017
0.000710
-0.002593
-0.005915
-0.009273
-0.012662
-0.016061
-0.019449
-0.022806
-0.026136
-0.029459
-0.032789
-0.036130
-0.039474
-0.042817
-0.046155
-0.049494
-0.052798
-0.052747
-0.052680
-0.052605
-0.052542
-0.052514
-0.052556
-0.052691
-0.052915
-0.053270
-0.053673
-0.054228
-0.054828
-0.055457
-0.056071
-0.056642
-0.057158
-0.057635
-0.058111
-0.058633
-0.059261
-0.060066
-0.061075
-0.062311
-0.063681
-0.065476
-0.066906
-0.068425
-0.069851
-0.070836
-0.071340
-0.071137
-0.070009
-0.068624
-0.066720
-0.064607
-0.062289
-0.059889
-0.057391
-0.054823
-0.052212
-0.049598
-0.047037
-0.044316
-0.041579
-0.038663
-0.035721
-0.032823
-0.030033
-0.026971
-0.022941
-0.017865
-0.010574
-0.011889
-0.014265
-0.015004
-0.016662
-0.017132
-0.018871
-0.021376
-0.022971
-0.024435
-0.025156
-0.026292
-0.029141
-0.024420
-0.028033
-0.030276
-0.031263
-0.032628
-0.033994
-0.036026
-0.037471
-0.039961
-0.042502
-0.015214
-0.013826
-0.010937
-0.008366
-0.008586
-0.006586
-0.003101
-0.001465
0.001414
-0.002357
-0.006738
0.001451
0.002044
0.002578
0.007944
0.008119
0.006760
0.008949
0.012174
0.012362
0.013676
0.014909
-0.013549
-0.014267
-0.014221
-0.014229
-0.014221
-0.014213
-0.013986
-0.013785
-0.013636
-0.013464
-0.013232
-0.012954
-0.012631
-0.012279
-0.011909
-0.011543
-0.011166
-0.010787
-0.010422
-0.010105
-0.009833
-0.009577
-0.009359
-0.009095
-0.009042
-0.009392
-0.044808
-0.045569
-0.045996
-0.046316
-0.046600
-0.046871
-0.047199
-0.047626
-0.048076
-0.048824
-0.049857
-0.050723
-0.051659
-0.052426
-0.052949
-0.053457
-0.053904
-0.054331
-0.054727
-0.055104
-0.055456
-0.055774
-0.056061
-0.056328
-0.056592
-0.056846
-0.057077
-0.057287
-0.057489
-0.057680
-0.057869
-0.058058
-0.058242
-0.058431
-0.058623
-0.058820
-0.059020
-0.059224
-0.059433
-0.059641
-0.059850
-0.060060
-0.060271
-0.060480
-0.060684
-0.060877
0.018003
0.018596
0.019381
0.019856
0.020204
0.020517
0.020851
0.021096
0.021341
0.021606
0.021910
0.022239
0.022546
0.022813
0.023063
0.023300
0.023556
0.023827
0.024124
0.024412
0.024715
0.025021
0.025339
0.025715
0.026158
0.026658
0.027278
0.027911
0.028582
0.029588
0.030208
0.030964
0.031735
0.032558
0.033215
0.034016
0.034959
0.035790
0.036784
0.037813
0.038842
0.039911
0.040945
0.041809
0.042608
0.043429
0.043943
-0.012422
-0.012634
0.000284
0.031316
-0.051385
0.038550
-0.053857
-0.055880
0.034577
-0.044373
0.043436
-0.060324
-0.049282
0.023933
0.010644
-0.000400
0.044561
-0.065667
0.033898
-0.032796
0.001660
0.046025
-0.032627
-0.001515
-0.068878
-0.024036
0.020800
-0.049277
0.015497
0.041764
0.037780
-0.054673
0.034907
-0.067589
0.034619
-0.002914
0.027629
-0.046151
0.003492
-0.065413
0.039663
0.033369
-0.005911
0.000708
-0.000723
-0.049792
0.027149
-0.026130
0.001114
0.034493
0.035427
-0.051825
-0.014409
0.034413
-0.049321
-0.065147
-0.067005
0.045281
-0.057589
-0.062090
0.042572
0.042518
0.035848
-0.054945
0.038387
-0.052719
-0.041422
-0.038649
0.032237
-0.019396
0.033473
0.000672
0.000118
-0.050239
0.028675
-0.000056
-0.029758
-0.000940
0.014009
0.004008
-0.049155
0.019916
-0.019380
-0.003571
-0.011748
-0.039470
0.002409
0.034694
-0.005067
-0.005255
-0.049429
0.009196
-0.049479
0.004657
0.041876
-0.013745
-0.059662
-0.061962
0.043790
-0.013195
0.000158
0.028537
0.038867
-0.038931
-0.058872
0.031747
0.003972
-0.046442
0.030388
-0.001718
-0.050174
-0.026694
-0.064797
0.039275
0.035256
0.010389
-0.020300
-0.006203
-0.010253
0.031192
-0.046111
0.007104
0.040484
-0.057543
0.042036
-0.068854
0.044510
-0.068252
-0.061550
0.046355
0.035095
-0.047538
0.044533
-0.063980
0.043178
-0.058679
-0.056624
0.043306
0.040902
-0.055547
-0.054421
0.036827
-0.053370
0.036032
0.033625
0.033281
-0.052089
-0.009220
-0.050800
0.030022
-0.015987
0.000469
-0.002573
-0.035724
-0.022772
0.000874
-0.000226
0.033696
-0.049482
0.025654
0.007321
-0.000572
-0.029455
0.001364
-0.027041
-0.001150
0.017393
-0.049167
0.021951
-0.002120
-0.049201
0.017825
0.024215
0.034572
-0.036129
0.001991
0.031051
0.034566
-0.042812
0.002908
-0.049359
0.012708
-0.060163
0.043050
0.041894
-0.062543
-0.059829
-0.010205
-0.014910
0.041899
-0.063454
0.032851
-0.049072
-0.013486
-0.012890
-0.012358
0.037213
-0.054104
-0.051296
0.029485
-0.048819
-0.015905
-0.029464
-0.065629
0.001717
0.022364
0.041677
-0.045823
-0.036144
0.038502
0.015427
-0.045883
0.004054
0.040331
-0.058825
0.030452
0.033893
-0.050168
0.032496
-0.048780
-0.002647
-0.046135
0.017431
-0.002733
-0.005105
-0.046045
0.024247
0.031131
-0.058951
0.040922
-0.054751
0.036011
0.041009
-0.066332
0.030176
-0.061482
-0.061822
0.042284
0.039787
-0.052380
0.038156
-0.044360
-0.046501
-0.052314
0.040552
0.039713
-0.055970
0.027323
-0.000571
-0.000192
-0.036322
0.030343
0.029459
0.000901
0.000517
-0.057213
0.030278
0.000749
-0.022727
0.007213
-0.047490
-0.046928
0.030399
0.030948
0.030222
-0.009321
-0.032773
-0.001293
0.014006
-0.024011
-0.002097
0.019246
0.002729
-0.029578
-0.015980
-0.007719
0.031079
-0.042793
0.005751
0.010391
-0.041330
-0.015095
-0.011276
0.040628
-0.059159
-0.061044
0.044035
-0.060148
0.042710
-0.015255
-0.011731
-0.013702
-0.013502
-0.012406
-0.000378
0.026302
0.036282
-0.053203
-0.002270
-0.044166
-0.038123
0.027182
0.034625
-0.002249
0.007600
-0.029412
-0.023718
-0.007894
-0.057875
0.038573
0.026273
-0.011103
-0.064493
0.026135
0.000677
0.027408
-0.003577
0.014171
0.027710
-0.043127
-0.042745
0.008528
-0.013283
-0.066219
0.040148
-0.042272
-0.065657
-0.051984
-0.063042
-0.054572
-0.053243
0.024261
0.039048
0.033880
0.035458
-0.050781
0.032830
0.034065
-0.049472
0.030501
0.042075
-0.054629
-0.006158
-0.000902
-0.019223
-0.045893
0.031270
0.001286
-0.026045
-0.032597
0.000749
0.024316
-0.048083
0.002201
-0.032776
0.030968
0.020825
-0.020649
-0.012347
0.017427
0.027703
0.020839
-0.003440
-0.045827
0.003329
-0.012600
-0.039466
-0.045964
0.027659
0.013127
0.004836
-0.047279
0.028778
-0.050904
-0.015868
-0.061117
-0.014437
-0.010421
0.040155
-0.056212
0.037152
-0.015196
-0.008746
0.040170
-0.060725
-0.057643
0.041600
0.039082
-0.012089
-0.010509
-0.011908
-0.059369
-0.052879
-0.013699
-0.008906
0.033235
-0.048886
-0.050638
-0.038838
0.025909
-0.002430
-0.061963
-0.048986
-0.022510
0.039243
-0.042531
0.002532
0.019319
-0.029071
-0.064109
-0.032857
-0.047772
0.004964
0.015069
0.030079
-0.000828
0.035408
-0.008973
-0.046121
-0.044952
0.027731
-0.020596
-0.005982
0.011005
-0.039459
0.035468
-0.054665
0.030063
0.027539
-0.064098
-0.051155
-0.056111
-0.051903
-0.001503
0.036253
0.022678
-0.048907
0.027295
-0.005247
0.000121
-0.044739
0.027063
0.027332
-0.059706
0.039216
0.034499
0.004476
0.029458
0.027597
-0.035718
-0.042823
-0.026178
-0.002881
0.025189
-0.026657
0.010836
-0.004754
0.036613
0.003253
-0.015830
0.017534
0.024318
-0.043575
0.018062
-0.016854
0.027880
-0.009772
0.001255
-0.042549
-0.042674
0.005967
0.007125
-0.046602
-0.010952
-0.012213
-0.009881
-0.058298
-0.059052
0.039020
0.038737
-0.015947
-0.060054
-0.015977
0.037208
-0.066651
-0.009538
0.033425
0.036542
0.026994
0.035932
-0.051358
-0.056410
-0.013589
-0.009467
0.036675
-0.014918
-0.009133
0.023243
0.032742
-0.041947
0.000037
0.030897
-0.046864
0.024724
0.027243
0.035611
0.007496
-0.039883
-0.022928
-0.003362
-0.053302
0.024610
0.003271
0.017132
0.035003
0.014287
-0.039254
-0.039414
-0.009892
-0.031505
0.019970
0.024696
0.032405
-0.007098
0.006454
-0.023776
-0.013766
0.009225
-0.012336
0.031110
-0.049356
0.031599
-0.013221
-0.035667
-0.001530
-0.050018
0.028279
0.034262
-0.006244
0.025415
-0.048371
-0.007637
-0.047164
0.000829
-0.045520
0.024582
0.003584
-0.060012
0.038829
0.024152
-0.063991
0.031658
0.001843
0.032656
-0.051862
-0.026513
-0.044638
-0.040951
0.021060
-0.017452
-0.012469
0.024454
-0.029501
0.016698
-0.004286
0.020939
0.004047
-0.042595
0.000655
-0.008992
0.024587
-0.019139
0.013181
-0.042596
-0.036164
0.020810
0.036850
-0.058792
-0.012064
-0.064289
-0.055199
-0.010216
-0.008659
-0.016035
-0.015743
-0.016644
-0.015552
-0.049609
-0.013031
-0.008329
-0.006897
-0.048184
-0.063071
-0.057767
-0.059699
0.025097
0.032220
0.038900
0.041236
0.039243
-0.056886
-0.060076
0.036170
-0.009355
0.037103
-0.058653
-0.041840
0.038568
0.037627
-0.006646
-0.013127
-0.007761
-0.045641
-0.047889
0.023081
-0.005159
-0.038587
-0.059448
0.000123
-0.035985
0.016833
-0.047520
0.027858
-0.004594
0.031351
-0.026766
0.021839
0.004601
-0.053968
-0.062540
-0.029614
0.035268
0.030788
0.022335
0.026573
-0.012489
-0.011916
0.021591
-0.044318
-0.020555
-0.019405
0.002359
-0.009974
0.021098
0.014224
-0.061949
0.005297
-0.039362
0.011140
-0.039365
-0.016892
-0.008175
-0.047192
-0.057244
-0.053298
-0.041853
0.029669
0.031339
-0.046254
-0.044304
0.018859
0.031319
-0.000770
-0.064644
0.032654
-0.042797
0.001560
-0.002438
-0.059571
-0.040337
0.030391
0.024654
0.037653
0.000630
-0.005344
-0.014339
0.017657
0.031497
0.024621
0.011030
0.004206
-0.039595
0.015476
0.024535
0.022161
-0.039311
0.035069
-0.009449
-0.026276
0.007744
-0.011027
0.035360
-0.036181
-0.058112
0.036630
0.036529
0.033133
-0.015095
-0.004280
-0.055641
-0.058067
0.024223
-0.051666
-0.010569
0.036351
-0.006665
-0.011510
-0.016876
-0.005902
-0.015005
-0.016829
-0.047848
-0.009264
0.037531
-0.011636
-0.006413
0.036807
-0.060761
-0.039131
-0.058820
0.035936
-0.007201
-0.058427
0.022770
-0.034066
-0.006592
-0.014453
0.020323
-0.005727
0.027892
0.028869
-0.045074
-0.041630
0.027388
-0.049639
0.002820
0.003758
-0.019613
-0.036776
0.013332
-0.003905
-0.010336
0.005112
-0.054882
-0.057479
-0.046747
-0.028171
0.015284
-0.036461
-0.039464
0.011118
0.022127
0.028034
-0.007720
0.018059
0.021852
-0.036113
-0.026425
-0.017663
-0.045667
-0.045951
-0.008868
-0.044827
-0.033043
-0.001318
-0.003320
0.035736
0.028308
-0.062785
-0.061867
0.028673
-0.012687
-0.061257
-0.009124
-0.008706
-0.044220
0.028978
-0.062561
-0.015736
0.025407
-0.024295
-0.055056
0.021926
-0.005931
-0.037774
0.021448
-0.056638
-0.063115
-0.049109
0.034065
0.032946
-0.012194
-0.060577
-0.002290
-0.017628
-0.036443
0.007991
0.020361
0.017969
-0.036148
0.021265
0.009381
0.012880
0.036170
-0.032893
-0.036231
0.006384
-0.043304
0.021781
0.036288
0.000915
-0.011924
0.032810
0.028946
-0.005758
-0.057927
0.024083
0.022573
0.035653
-0.059221
-0.004806
-0.014859
-0.016940
-0.017494
-0.058004
-0.001807
-0.016691
-0.052854
-0.010506
0.034393
0.030842
-0.060373
-0.009798
0.030839
0.020377
-0.045223
-0.005848
-0.000657
0.034945
-0.004409
0.033831
-0.003973
-0.057893
0.017983
-0.036420
0.019086
-0.003072
-0.041668
-0.046328
-0.000625
-0.057702
0.014208
0.027144
-0.060416
0.033954
0.019159
-0.007938
-0.033696
-0.023920
-0.043505
-0.006191
-0.061842
-0.053829
0.034051
-0.057147
0.018990
-0.041311
-0.054088
0.005835
-0.008739
-0.016534
-0.044133
0.018342
-0.050536
0.012264
-0.032993
0.027253
-0.018408
-0.061000
0.032961
0.031390
-0.056016
-0.009747
0.014256
-0.039310
-0.047518
0.028108
0.006855
-0.040289
0.023374
0.028283
-0.013052
-0.059760
-0.020438
-0.012733
0.029270
-0.002244
0.027383
-0.035522
0.027991
0.001763
0.010996
0.014681
-0.017869
0.003900
-0.029654
-0.042623
0.000758
0.007786
-0.022966
-0.060289
-0.014989
0.019197
-0.033216
0.025575
-0.044300
-0.044939
-0.004165
-0.033393
-0.032985
-0.036081
0.021854
-0.045249
-0.037218
0.023854
0.028617
-0.045849
0.038045
0.020047
-0.006821
-0.012886
-0.017939
-0.007456
-0.011122
-0.017697
-0.012738
0.028615
-0.003600
0.030680
-0.016025
0.033910
0.032986
-0.004177
-0.016253
0.034799
0.000109
-0.060779
-0.014692
0.000395
-0.056989
-0.062804
-0.046435
0.036090
-0.004813
-0.042527
-0.010928
-0.058874
-0.064689
-0.031322
0.021428
-0.004446
-0.057791
-0.005526
-0.051565
0.034521
0.033522
-0.014040
-0.018914
-0.006789
-0.003473
0.025510
-0.040987
-0.043863
0.025224
-0.001213
-0.033368
0.025715
0.033113
-0.052659
0.000786
-0.059538
-0.016350
-0.030750
-0.023180
0.020578
0.025486
-0.061288
-0.020091
0.009286
-0.039818
-0.025226
0.023793
-0.010743
-0.037109
0.011839
-0.003638
-0.043495
-0.015386
0.002022
0.010265
-0.029914
-0.032966
0.004487
-0.034183
0.034085
0.025773
-0.002812
-0.030701
0.032799
0.024774
0.015203
0.025779
0.026272
0.032048
0.029397
0.013050
-0.055156
-0.002254
0.025870
-0.055506
-0.060795
-0.010450
-0.042610
-0.059964
0.032956
-0.043932
-0.062849
-0.047763
0.000990
0.018637
-0.052246
0.007293
0.019227
-0.057592
-0.033175
-0.058339
0.036197
-0.042510
-0.002465
-0.009166
-0.034793
0.017577
0.014985
0.004211
-0.042870
-0.005873
-0.039093
-0.033896
0.018040
0.009033
0.019658
-0.011656
-0.012537
0.022484
-0.042492
0.021349
-0.059941
-0.059318
-0.015855
-0.017946
0.020114
-0.008481
-0.005737
-0.017901
-0.001577
0.032660
0.028807
-0.000881
-0.056391
0.031005
-0.018557
-0.059371
-0.005070
-0.044345
-0.015833
0.033768
-0.002891
0.018961
-0.011872
-0.049809
-0.004170
-0.057010
0.037320
0.032215
-0.014514
0.001794
-0.045289
-0.063893
-0.000062
0.033567
-0.036625
-0.038433
0.015675
-0.015394
-0.036270
-0.001930
-0.005048
-0.041686
-0.042845
-0.055077
0.000825
0.022272
0.012396
0.026393
-0.051356
0.030223
0.016577
-0.011269
-0.041067
-0.005009
0.034389
-0.001130
-0.036716
-0.019119
-0.057976
-0.009253
-0.041948
-0.060761
-0.034209
-0.011755
0.004867
0.000983
0.008484
-0.021924
-0.060674
-0.042003
-0.007871
0.021612
0.015977
-0.040356
0.032646
-0.011341
-0.051289
-0.058737
0.032524
-0.054170
0.025546
0.024559
-0.039616
-0.049400
-0.012120
0.015575
-0.017414
-0.033848
-0.045185
0.019967
0.019060
-0.000190
0.010943
-0.029881
0.016486
0.030881
0.024648
-0.026467
-0.031334
0.034775
0.003189
0.007328
-0.019854
0.025866
0.024827
0.016162
-0.031096
-0.006790
0.011742
0.017813
-0.030153
-0.002863
0.025401
-0.032606
0.019471
-0.055893
-0.018651
-0.042152
-0.002251
-0.063512
-0.015662
-0.009370
-0.001397
-0.007066
-0.003728
-0.017564
-0.056995
-0.058738
-0.019371
0.036397
-0.039949
-0.012984
0.000665
-0.048118
-0.017018
-0.002971
0.016519
0.032052
0.012051
-0.028659
-0.057068
-0.010057
0.037161
0.024827
0.027594
0.031931
-0.005051
-0.003838
-0.012783
0.031460
-0.013342
-0.041534
-0.004637
-0.035491
0.017355
-0.060435
-0.059590
0.031920
-0.014075
0.001573
-0.033659
0.022913
-0.003730
-0.001603
0.014288
-0.032606
-0.039264
0.022420
0.021967
0.020153
-0.049841
-0.000358
-0.028591
0.010085
0.033482
0.014583
-0.009834
0.031399
-0.006030
-0.019311
-0.039344
-0.058380
0.022943
0.032784
0.024869
-0.059428
-0.042853
0.000023
-0.002093
-0.056495
-0.019452
-0.026910
0.013362
0.003466
-0.040114
-0.028333
0.034504
-0.030514
0.023974
0.012758
-0.048279
0.030354
-0.018975
0.029300
0.017592
-0.056409
-0.052723
-0.052839
0.010919
-0.012830
-0.006452
-0.061853
-0.046623
0.030582
-0.055151
0.009265
-0.039685
-0.015289
0.006411
0.016893
-0.001622
0.017854
-0.012179
-0.000521
0.037203
0.016509
-0.030424
0.022247
0.023641
-0.031941
-0.058352
-0.009387
0.004376
0.014797
0.002170
-0.040899
0.022942
-0.012271
-0.038633
-0.037159
-0.027993
0.016924
-0.017288
0.022675
-0.040688
0.015745
-0.003467
0.010176
-0.031838
-0.011505
-0.006161
-0.000882
0.017373
-0.009506
0.022661
0.029098
-0.010247
-0.015405
-0.014848
-0.019501
-0.016929
-0.018913
-0.059629
0.031221
0.030524
-0.017234
-0.007980
-0.005655
-0.036309
-0.002614
-0.046350
-0.002144
-0.020059
0.012774
0.031253
-0.059895
-0.014014
-0.014583
-0.056201
0.027997
0.000731
0.000544
0.031602
-0.033902
-0.057027
0.025205
-0.057285
-0.058883
-0.058267
-0.001165
-0.061270
0.022896
-0.002401
-0.002703
-0.016983
0.020603
-0.033555
-0.040707
-0.002879
-0.037603
-0.031030
-0.043994
0.018008
-0.054435
0.024094
-0.001926
-0.057223
0.028601
-0.002632
0.030348
-0.025928
-0.058207
-0.036989
-0.012682
0.032607
-0.016804
0.028676
0.003581
0.014446
0.030036
0.007221
-0.027388
-0.059102
-0.010984
-0.029150
-0.059609
0.000537
-0.003041
-0.016186
-0.007163
0.021834
0.018681
0.009851
-0.058577
0.000447
-0.045106
-0.001157
0.009517
-0.014026
0.024140
0.035483
-0.016522
-0.048115
-0.011044
-0.027777
-0.044161
-0.008363
0.020995
0.014602
-0.029775
-0.023085
0.021972
0.022942
0.001493
0.010946
0.013963
-0.040169
-0.039775
-0.037887
0.032289
-0.009354
0.000914
-0.004409
-0.038016
-0.039901
0.020526
-0.031259
-0.031585
-0.021745
0.021965
0.009439
0.014037
-0.056969
-0.056504
-0.034281
-0.008348
0.015486
-0.056795
-0.056352
0.013407
0.022482
-0.025039
0.000875
-0.028773
-0.038679
-0.019650
-0.010385
0.026243
-0.004652
-0.013940
-0.001774
-0.013232
0.021992
-0.011254
0.007220
-0.001313
0.022676
-0.008747
-0.016716
0.030304
-0.020531
-0.006685
-0.018775
-0.004235
0.035525
0.034713
-0.000469
-0.020474
0.027585
0.030769
-0.059232
0.029541
-0.015272
-0.004552
-0.060358
-0.040979
-0.011436
-0.008565
0.001913
-0.001140
0.030108
0.000703
0.030210
0.010737
-0.058343
-0.018290
-0.057123
-0.015533
-0.055417
0.013821
-0.049859
-0.051526
-0.054211
0.015303
-0.001385
0.020213
-0.015128
0.018614
0.013120
-0.039003
-0.001687
-0.042261
0.019901
0.018731
0.019310
0.000119
-0.055460
0.008765
0.026433
0.026957
-0.010419
0.030749
-0.019418
-0.031299
-0.047238
-0.019622
-0.010173
-0.036632
0.007595
0.032635
-0.035416
-0.035355
-0.005478
-0.017715
0.020200
-0.057421
-0.028531
-0.052882
-0.058164
0.012022
-0.006418
-0.003334
0.008759
-0.005363
0.033852
0.000693
0.007198
0.011286
-0.018503
-0.037755
0.029237
-0.042099
-0.046059
0.031543
-0.036177
-0.003368
-0.011821
0.020197
-0.023744
-0.020848
-0.057567
-0.014222
0.012006
0.005142
-0.003268
-0.054693
-0.026610
0.020682
0.020351
0.010606
-0.039109
-0.038061
0.029179
-0.014729
0.015909
0.025818
-0.029976
0.012255
0.019337
0.002697
0.022575
0.015455
0.002147
0.020443
-0.027782
0.007947
-0.007601
-0.029854
-0.031253
0.031625
0.012128
-0.025476
-0.051301
-0.000705
0.013443
-0.025676
0.019302
0.015015
-0.008882
0.024188
0.000091
-0.016005
-0.005395
-0.012376
0.004803
0.000964
-0.020698
-0.009622
-0.059850
-0.058148
-0.055636
-0.017888
-0.013491
-0.007412
0.003486
-0.005586
-0.016833
0.033546
-0.021441
0.025822
0.027868
-0.000279
-0.009889
-0.038331
-0.020505
-0.050293
-0.059218
-0.006626
0.001277
-0.053247
0.029521
0.029370
0.029451
0.029276
-0.058625
0.012666
-0.056913
-0.011817
0.004745
-0.056489
-0.055744
0.029836
0.017976
-0.035926
0.013718
-0.025982
-0.044355
0.016737
0.017418
-0.052407
0.023631
-0.011590
0.024162
-0.006419
0.006654
-0.023829
-0.056884
0.028854
0.029199
0.009405
0.031899
0.028097
-0.034764
-0.032548
-0.048436
-0.028674
0.021883
0.011077
-0.002529
0.027438
0.002063
0.005702
-0.053926
-0.004825
0.000905
-0.058021
-0.016214
-0.014019
-0.019113
0.017951
0.019218
0.016042
0.018566
-0.057822
-0.026844
-0.024765
0.016601
0.009418
0.002402
-0.055883
0.025684
-0.043125
0.031412
-0.058076
-0.038183
-0.008928
0.020178
0.019842
0.009788
0.018307
0.021869
-0.035994
0.029376
-0.038553
0.022295
0.000587
0.027211
0.018725
0.027982
-0.016988
-0.004734
-0.040011
0.001898
-0.029445
-0.022875
-0.026707
-0.021210
0.007380
-0.033399
-0.055521
0.011054
0.013085
-0.031577
-0.009688
0.019779
0.020520
0.031275
-0.003027
-0.000394
-0.007357
-0.010466
0.031602
0.012507
0.000137
-0.020824
-0.014904
-0.011003
-0.013526
0.001952
-0.054877
-0.001642
-0.010629
-0.049122
-0.004124
0.027651
0.008464
-0.002536
-0.021946
-0.017272
0.026438
-0.036792
-0.059111
-0.008111
0.001977
-0.007700
-0.006222
-0.033222
0.030430
-0.021974
-0.023076
-0.052201
-0.020289
-0.039583