# vtk DataFile Version 2.0
Test
ASCII
DATASET POLYDATA
POINTS 4677 float
0.000000 0.000000 0.000000
0.080000 0.000000 0.000000
0.080000 0.160000 0.000000
0.000000 0.160000 0.000000
0.036000 0.073072 0.000000
0.044000 0.086928 0.000000
0.024500 0.065566 0.000000
0.055500 0.093560 0.000000
0.001000 0.050000 0.000000
0.079000 0.110000 0.000000
0.002963 0.000000 0.000000
0.005926 0.000000 0.000000
0.008889 0.000000 0.000000
0.011852 0.000000 0.000000
0.014815 0.000000 0.000000
0.017778 0.000000 0.000000
0.020741 0.000000 0.000000
0.023704 0.000000 0.000000
0.026667 0.000000 0.000000
0.029630 0.000000 0.000000
0.032593 0.000000 0.000000
0.035556 0.000000 0.000000
0.038519 0.000000 0.000000
0.041481 0.000000 0.000000
0.044444 0.000000 0.000000
0.047407 0.000000 0.000000
0.050370 0.000000 0.000000
0.053333 0.000000 0.000000
0.056296 0.000000 0.000000
0.059259 0.000000 0.000000
0.062222 0.000000 0.000000
0.065185 0.000000 0.000000
0.068148 0.000000 0.000000
0.071111 0.000000 0.000000
0.074074 0.000000 0.000000
0.077037 0.000000 0.000000
0.080000 0.002963 0.000000
0.080000 0.005926 0.000000
0.080000 0.008889 0.000000
0.080000 0.011852 0.000000
0.080000 0.014815 0.000000
0.080000 0.017778 0.000000
0.080000 0.020741 0.000000
0.080000 0.023704 0.000000
0.080000 0.026667 0.000000
0.080000 0.029630 0.000000
0.080000 0.032593 0.000000
0.080000 0.035556 0.000000
0.080000 0.038519 0.000000
0.080000 0.041481 0.000000
0.080000 0.044444 0.000000
0.080000 0.047407 0.000000
0.080000 0.050370 0.000000
0.080000 0.053333 0.000000
0.080000 0.056296 0.000000
0.080000 0.059259 0.000000
0.080000 0.062222 0.000000
0.080000 0.065185 0.000000
0.080000 0.068148 0.000000
0.080000 0.071111 0.000000
0.080000 0.074074 0.000000
0.080000 0.077037 0.000000
0.080000 0.080000 0.000000
0.080000 0.082963 0.000000
0.080000 0.085926 0.000000
0.080000 0.088889 0.000000
0.080000 0.091852 0.000000
0.080000 0.094815 0.000000
0.080000 0.097778 0.000000
0.080000 0.100741 0.000000
0.080000 0.103704 0.000000
0.080000 0.106667 0.000000
0.080000 0.109630 0.000000
0.080000 0.112593 0.000000
0.080000 0.115556 0.000000
0.080000 0.118519 0.000000
0.080000 0.121481 0.000000
0.080000 0.124444 0.000000
0.080000 0.127407 0.000000
0.080000 0.130370 0.000000
0.080000 0.133333 0.000000
0.080000 0.136296 0.000000
0.080000 0.139259 0.000000
0.080000 0.142222 0.000000
0.080000 0.145185 0.000000
0.080000 0.148148 0.000000
0.080000 0.151111 0.000000
0.080000 0.154074 0.000000
0.080000 0.157037 0.000000
0.077037 0.160000 0.000000
0.074074 0.160000 0.000000
0.071111 0.160000 0.000000
0.068148 0.160000 0.000000
0.065185 0.160000 0.000000
0.062222 0.160000 0.000000
0.059259 0.160000 0.000000
0.056296 0.160000 0.000000
0.053333 0.160000 0.000000
0.050370 0.160000 0.000000
0.047407 0.160000 0.000000
0.044444 0.160000 0.000000
0.041481 0.160000 0.000000
0.038519 0.160000 0.000000
0.035556 0.160000 0.000000
0.032593 0.160000 0.000000
0.029630 0.160000 0.000000
0.026667 0.160000 0.000000
0.023704 0.160000 0.000000
0.020741 0.160000 0.000000
0.017778 0.160000 0.000000
0.014815 0.160000 0.000000
0.011852 0.160000 0.000000
0.008889 0.160000 0.000000
0.005926 0.160000 0.000000
0.002963 0.160000 0.000000
0.000000 0.157037 0.000000
0.000000 0.154074 0.000000
0.000000 0.151111 0.000000
0.000000 0.148148 0.000000
0.000000 0.145185 0.000000
0.000000 0.142222 0.000000
0.000000 0.139259 0.000000
0.000000 0.136296 0.000000
0.000000 0.133333 0.000000
0.000000 0.130370 0.000000
0.000000 0.127407 0.000000
0.000000 0.124444 0.000000
0.000000 0.121481 0.000000
0.000000 0.118519 0.000000
0.000000 0.115556 0.000000
0.000000 0.112593 0.000000
0.000000 0.109630 0.000000
0.000000 0.106667 0.000000
0.000000 0.103704 0.000000
0.000000 0.100741 0.000000
0.000000 0.097778 0.000000
0.000000 0.094815 0.000000
0.000000 0.091852 0.000000
0.000000 0.088889 0.000000
0.000000 0.085926 0.000000
0.000000 0.082963 0.000000
0.000000 0.080000 0.000000
0.000000 0.077037 0.000000
0.000000 0.074074 0.000000
0.000000 0.071111 0.000000
0.000000 0.068148 0.000000
0.000000 0.065185 0.000000
0.000000 0.062222 0.000000
0.000000 0.059259 0.000000
0.000000 0.056296 0.000000
0.000000 0.053333 0.000000
0.000000 0.050370 0.000000
0.000000 0.047407 0.000000
0.000000 0.044444 0.000000
0.000000 0.041481 0.000000
0.000000 0.038519 0.000000
0.000000 0.035556 0.000000
0.000000 0.032593 0.000000
0.000000 0.029630 0.000000
0.000000 0.026667 0.000000
0.000000 0.023704 0.000000
0.000000 0.020741 0.000000
0.000000 0.017778 0.000000
0.000000 0.014815 0.000000
0.000000 0.011852 0.000000
0.000000 0.008889 0.000000
0.000000 0.005926 0.000000
0.000000 0.002963 0.000000
0.035500 0.072746 0.000000
0.035000 0.072419 0.000000
0.034500 0.072093 0.000000
0.034000 0.071767 0.000000
0.033500 0.071440 0.000000
0.033000 0.071114 0.000000
0.032500 0.070788 0.000000
0.032000 0.070461 0.000000
0.031500 0.070135 0.000000
0.031000 0.069809 0.000000
0.030500 0.069482 0.000000
0.030000 0.069156 0.000000
0.029500 0.068829 0.000000
0.029000 0.068503 0.000000
0.028500 0.068177 0.000000
0.028000 0.067850 0.000000
0.027500 0.067524 0.000000
0.027000 0.067198 0.000000
0.026500 0.066871 0.000000
0.026000 0.066545 0.000000
0.025500 0.066219 0.000000
0.025000 0.065892 0.000000
0.044500 0.087216 0.000000
0.045000 0.087505 0.000000
0.045500 0.087793 0.000000
0.046000 0.088081 0.000000
0.046500 0.088370 0.000000
0.047000 0.088658 0.000000
0.047500 0.088946 0.000000
0.048000 0.089235 0.000000
0.048500 0.089523 0.000000
0.049000 0.089811 0.000000
0.049500 0.090100 0.000000
0.050000 0.090388 0.000000
0.050500 0.090677 0.000000
0.051000 0.090965 0.000000
0.051500 0.091253 0.000000
0.052000 0.091542 0.000000
0.052500 0.091830 0.000000
0.053000 0.092118 0.000000
0.053500 0.092407 0.000000
0.054000 0.092695 0.000000
0.054500 0.092983 0.000000
0.055000 0.093272 0.000000
0.043704 0.086415 0.000000
0.043407 0.085902 0.000000
0.043111 0.085388 0.000000
0.042815 0.084875 0.000000
0.042519 0.084362 0.000000
0.042222 0.083849 0.000000
0.041926 0.083336 0.000000
0.041630 0.082823 0.000000
0.041333 0.082309 0.000000
0.041037 0.081796 0.000000
0.040741 0.081283 0.000000
0.040444 0.080770 0.000000
0.040148 0.080257 0.000000
0.039852 0.079743 0.000000
0.039556 0.079230 0.000000
0.039259 0.078717 0.000000
0.038963 0.078204 0.000000
0.038667 0.077691 0.000000
0.038370 0.077177 0.000000
0.038074 0.076664 0.000000
0.037778 0.076151 0.000000
0.037481 0.075638 0.000000
0.037185 0.075125 0.000000
0.036889 0.074612 0.000000
0.036593 0.074098 0.000000
0.036296 0.073585 0.000000
0.024000 0.065235 0.000000
0.023500 0.064904 0.000000
0.023000 0.064572 0.000000
0.022500 0.064241 0.000000
0.022000 0.063910 0.000000
0.021500 0.063579 0.000000
0.021000 0.063248 0.000000
0.020500 0.062916 0.000000
0.020000 0.062585 0.000000
0.019500 0.062254 0.000000
0.019000 0.061923 0.000000
0.018500 0.061592 0.000000
0.018000 0.061261 0.000000
0.017500 0.060929 0.000000
0.017000 0.060598 0.000000
0.016500 0.060267 0.000000
0.016000 0.059936 0.000000
0.015500 0.059605 0.000000
0.015000 0.059273 0.000000
0.014500 0.058942 0.000000
0.014000 0.058611 0.000000
0.013500 0.058280 0.000000
0.013000 0.057949 0.000000
0.012500 0.057617 0.000000
0.012000 0.057286 0.000000
0.011500 0.056955 0.000000
0.011000 0.056624 0.000000
0.010500 0.056293 0.000000
0.010000 0.055961 0.000000
0.009500 0.055630 0.000000
0.009000 0.055299 0.000000
0.008500 0.054968 0.000000
0.008000 0.054637 0.000000
0.007500 0.054305 0.000000
0.007000 0.053974 0.000000
0.006500 0.053643 0.000000
0.006000 0.053312 0.000000
0.005500 0.052981 0.000000
0.005000 0.052650 0.000000
0.004500 0.052318 0.000000
0.004000 0.051987 0.000000
0.003500 0.051656 0.000000
0.003000 0.051325 0.000000
0.002500 0.050994 0.000000
0.002000 0.050662 0.000000
0.001500 0.050331 0.000000
0.055990 0.093902 0.000000
0.056479 0.094245 0.000000
0.056969 0.094587 0.000000
0.057458 0.094930 0.000000
0.057948 0.095272 0.000000
0.058437 0.095615 0.000000
0.058927 0.095957 0.000000
0.059417 0.096300 0.000000
0.059906 0.096642 0.000000
0.060396 0.096985 0.000000
0.060885 0.097327 0.000000
0.061375 0.097670 0.000000
0.061865 0.098012 0.000000
0.062354 0.098355 0.000000
0.062844 0.098697 0.000000
0.063333 0.099040 0.000000
0.063823 0.099382 0.000000
0.064312 0.099725 0.000000
0.064802 0.100067 0.000000
0.065292 0.100410 0.000000
0.065781 0.100752 0.000000
0.066271 0.101095 0.000000
0.066760 0.101437 0.000000
0.067250 0.101780 0.000000
0.067740 0.102122 0.000000
0.068229 0.102465 0.000000
0.068719 0.102807 0.000000
0.069208 0.103150 0.000000
0.069698 0.103492 0.000000
0.070187 0.103835 0.000000
0.070677 0.104177 0.000000
0.071167 0.104520 0.000000
0.071656 0.104862 0.000000
0.072146 0.105205 0.000000
0.072635 0.105547 0.000000
0.073125 0.105890 0.000000
0.073615 0.106232 0.000000
0.074104 0.106575 0.000000
0.074594 0.106917 0.000000
0.075083 0.107260 0.000000
0.075573 0.107602 0.000000
0.076062 0.107945 0.000000
0.076552 0.108287 0.000000
0.077042 0.108630 0.000000
0.077531 0.108972 0.000000
0.078021 0.109315 0.000000
0.078510 0.109658 0.000000
0.043942 0.087469 0.000000
0.035556 0.157037 0.000000
0.044420 0.002920 0.000000
0.077037 0.038519 0.000000
0.002963 0.121481 0.000000
0.077037 0.059259 0.000000
0.002963 0.109630 0.000000
0.002923 0.098139 0.000000
0.077153 0.126913 0.000000
0.002808 0.032596 0.000000
0.077140 0.071061 0.000000
0.002963 0.085926 0.000000
0.002963 0.136296 0.000000
0.077041 0.023701 0.000000
0.056296 0.157037 0.000000
0.032593 0.002963 0.000000
0.077037 0.080000 0.000000
0.002813 0.077135 0.000000
0.077037 0.142222 0.000000
0.017778 0.157037 0.000000
0.062222 0.002963 0.000000
0.076992 0.088722 0.000000
0.002945 0.020743 0.000000
0.017777 0.002962 0.000000
0.002801 0.068434 0.000000
0.002959 0.011851 0.000000
0.065186 0.157038 0.000000
0.002963 0.148148 0.000000
0.077037 0.011852 0.000000
0.076887 0.094740 0.000000
0.077092 0.115875 0.000000
0.002677 0.044265 0.000000
0.077038 0.148148 0.000000
0.002985 0.062165 0.000000
0.077037 0.047407 0.000000
0.011852 0.002963 0.000000
[...]
POINT_DATA 4677
SCALARS UX float 1
LOOKUP_TABLE default
-0.000000
0.000001
0.017861
-0.095345
-0.028240
-0.037115
-0.055234
-0.015086
-0.062863
-0.011982
-0.000000
-0.000000
-0.000000
-0.000000
-0.000000
-0.000000
-0.000000
-0.000000
-0.000000
-0.000000
-0.000000
-0.000000
-0.000000
0.000000
0.000000
0.000000
0.000000
0.000000
0.000000
0.000000
0.000000
0.000000
0.000000
0.000000
0.000000
-0.000000
0.005180
0.008376
0.010724
0.012767
0.014606
0.016277
0.017633
0.018668
0.019494
0.020283
0.021187
0.022000
0.022898
0.023782
0.023674
0.023583
0.023100
0.022272
0.020814
0.018586
0.016253
0.015570
0.015258
0.016069
0.018116
0.019916
0.017854
0.014873
0.010853
0.007807
0.004496
0.001363
-0.000912
-0.004409
-0.007744
-0.009324
-0.011253
-0.011231
-0.012895
-0.015576
-0.016425
-0.016952
-0.016764
-0.015795
-0.014130
-0.012522
-0.007643
-0.005891
0.000314
0.006166
0.014038
0.010352
0.014244
0.012636
0.006832
0.000947
-0.004295
-0.010012
-0.013474
-0.019010
-0.024137
-0.029835
-0.035252
-0.040720
-0.045943
-0.048685
-0.054077
-0.056937
-0.063535
-0.071982
-0.076717
-0.079839
-0.083064
-0.085444
-0.087546
-0.089352
-0.091143
-0.092580
-0.093861
-0.095561
-0.095074
-0.094645
-0.094291
-0.093574
-0.092888
-0.092296
-0.092094
-0.092660
-0.093204
-0.094738
-0.093761
-0.092652
-0.090404
-0.087481
-0.085371
-0.082872
-0.080176
-0.077849
-0.075115
-0.072922
-0.071715
-0.072802
-0.073190
-0.076797
-0.079736
-0.082529
-0.081927
-0.079605
-0.077030
-0.076423
-0.074082
-0.072174
-0.071100
-0.069457
-0.066712
-0.064316
-0.060156
-0.056612
-0.053213
-0.049618
-0.044978
-0.041956
-0.039040
-0.036412
-0.034276
-0.031815
-0.029356
-0.026053
-0.022567
-0.019314
-0.015913
-0.010838
-0.027136
-0.016531
-0.021399
-0.025654
-0.029772
-0.033110
-0.029831
-0.027722
-0.030824
-0.032854
-0.035031
-0.037483
-0.032883
-0.035600
-0.042525
-0.041007
-0.043091
-0.042040
-0.045042
-0.047669
-0.050124
-0.052676
-0.038422
-0.041228
-0.038961
-0.038934
-0.036700
-0.042573
-0.040494
-0.035691
-0.028758
-0.025931
-0.027409
-0.024340
-0.028423
-0.026726
-0.024678
-0.024351
-0.022698
-0.020235
-0.020491
-0.015209
-0.017500
-0.016226
-0.036652
-0.034955
-0.033718
-0.032802
-0.031412
-0.030475
-0.030559
-0.030204
-0.029910
-0.028505
-0.029681
-0.029221
-0.029234
-0.028840
-0.028746
-0.028377
-0.028533
-0.028297
-0.028351
-0.028090
-0.028266
-0.027737
-0.026969
-0.028008
-0.027458
-0.025199
-0.056106
-0.057175
-0.058025
-0.058561
-0.059013
-0.059390
-0.059722
-0.059990
-0.060231
-0.060431
-0.060552
-0.060682
-0.060794
-0.060870
-0.060949
-0.060888
-0.060915
-0.060943
-0.060875
-0.060848
-0.060867
-0.060933
-0.061029
-0.061140
-0.061258
-0.061389
-0.061537
-0.061699
-0.061883
-0.062158
-0.062495
-0.062750
-0.062735
-0.062702
-0.062656
-0.062596
-0.062530
-0.062471
-0.062419
-0.062374
-0.062363
-0.062370
-0.062422
-0.062468
-0.062660
-0.062684
-0.014321
-0.013763
-0.013528
-0.013486
-0.013240
-0.013299
-0.013236
-0.013479
-0.013639
-0.013887
-0.014113
-0.014338
-0.014578
-0.014810
-0.015037
-0.015279
-0.015357
-0.015324
-0.015630
-0.016006
-0.015876
-0.015955
-0.015950
-0.015929
-0.015946
-0.016432
-0.016545
-0.016719
-0.016947
-0.016831
-0.016986
-0.017056
-0.016900
-0.016614
-0.016415
-0.015936
-0.016170
-0.015731
-0.015287
-0.015116
-0.014845
-0.014507
-0.014247
-0.013893
-0.013415
-0.012920
-0.012484
-0.037979
-0.062186
0.000417
0.022043
-0.089737
0.016883
-0.081501
-0.071004
-0.021005
-0.038870
0.013680
-0.071821
-0.090148
0.016765
-0.028160
0.000553
0.013873
-0.075746
-0.010399
-0.085702
0.000514
0.005935
-0.028597
-0.000450
-0.073770
-0.020222
-0.010648
-0.092687
0.010012
-0.000451
-0.020261
-0.053589
0.000741
-0.070233
0.022387
-0.001044
0.000410
-0.092854
0.001388
-0.068564
-0.006202
-0.019020
-0.053264
-0.045438
0.000160
-0.091498
0.018758
-0.080441
0.000281
0.009743
-0.022001
-0.049872
-0.037780
-0.022389
-0.046534
-0.068461
-0.075189
0.011859
-0.069067
-0.075237
0.012846
0.014282
0.020735
-0.076441
-0.010001
-0.086030
-0.035941
-0.032916
0.022621
-0.072585
-0.016393
0.000258
0.000559
-0.091498
0.019792
0.000680
-0.026156
-0.000155
-0.023415
-0.040253
-0.091023
0.013821
-0.015783
-0.001576
-0.009245
-0.089712
0.000903
0.007007
-0.002980
-0.001838
-0.093851
0.004900
-0.094297
0.001812
-0.013902
-0.038499
-0.061351
-0.064264
-0.012063
-0.038344
0.000894
0.020975
0.008500
-0.033225
-0.067724
-0.026515
-0.043465
-0.087831
-0.021690
-0.000150
-0.048136
-0.023168
-0.068328
0.010095
-0.011263
-0.033357
-0.016874
-0.002295
-0.007443
-0.005726
-0.092598
0.002787
-0.015145
-0.057669
-0.002316
-0.072482
0.002911
-0.073745
-0.063491
0.009543
-0.021258
-0.042989
-0.012146
-0.076482
0.014837
-0.069925
-0.069271
0.012732
0.013975
-0.073718
-0.078997
0.019277
-0.083948
0.021752
-0.019832
0.022737
-0.088125
-0.059217
-0.090895
0.020864
-0.067252
0.000314
-0.050960
-0.030667
-0.077529
0.000240
0.000668
-0.011916
-0.090775
0.017831
-0.032820
0.000337
-0.083466
0.000371
-0.023926
-0.000384
-0.017497
-0.090533
0.015481
-0.001265
-0.091980
0.012004
-0.005865
-0.005212
-0.087832
0.000690
0.005576
0.004599
-0.091422
0.001132
-0.093312
0.007720
-0.061768
-0.012961
-0.014056
-0.066450
-0.061766
-0.039187
-0.036996
-0.010776
-0.066212
-0.027328
-0.046673
-0.038042
-0.033056
-0.033073
0.012030
-0.066920
-0.077452
-0.029101
-0.047638
-0.071039
-0.083758
-0.071638
0.000549
0.015879
0.001600
-0.088836
-0.087953
-0.004332
0.009369
-0.090602
0.001461
-0.015344
-0.060518
-0.024926
0.017322
-0.082489
0.020189
-0.086296
-0.053687
-0.087989
-0.021927
-0.001424
-0.002627
-0.091960
-0.011021
-0.000437
-0.060255
-0.014421
-0.054715
-0.020721
0.010869
-0.070713
-0.025941
-0.070208
-0.065022
0.006629
0.009059
-0.071920
-0.012301
-0.039160
-0.042354
-0.051097
0.009294
0.008257
-0.065141
0.019845
0.000983
0.000998
-0.030519
0.021623
0.021638
0.000612
0.000752
-0.065523
-0.024241
-0.049104
-0.078770
-0.037131
-0.087758
-0.088017
-0.018097
-0.010659
-0.023088
-0.063195
-0.027526
0.000476
-0.027947
-0.020870
-0.000605
0.012912
0.000854
-0.025229
-0.012917
-0.003302
-0.000227
-0.091308
0.002190
0.004945
-0.036063
-0.038211
-0.040023
-0.015133
-0.061175
-0.063148
-0.012085
-0.061423
-0.012914
-0.036552
-0.038874
-0.033081
-0.042672
-0.038779
0.001163
0.021120
0.003770
-0.061275
-0.055192
-0.085203
-0.032912
-0.028292
0.005998
0.000172
-0.039779
-0.025092
-0.020506
-0.004628
-0.059587
-0.016631
-0.028707
-0.029565
-0.072539
0.018619
0.000971
-0.026805
-0.001437
-0.031956
-0.016501
-0.085166
-0.090583
0.003439
-0.030926
-0.071761
-0.001327
-0.037378
-0.069285
-0.075424
-0.071619
-0.065976
-0.067692
0.017248
0.010325
-0.025629
0.015293
-0.080407
0.019217
0.005147
-0.084710
-0.025070
0.004104
-0.060603
-0.058084
0.000762
-0.074593
-0.088115
0.020994
0.000538
-0.081084
-0.027500
-0.049608
0.018663
-0.087327
0.000657
-0.086033
-0.014690
0.014503
-0.017748
-0.008433
0.011241
-0.008054
-0.015187
-0.001697
-0.089694
0.001123
-0.066562
-0.089752
-0.091233
-0.005176
0.007271
0.001807
-0.044794
-0.029556
-0.050458
-0.037962
-0.063886
-0.039142
-0.039459
-0.013221
-0.056699
-0.018453
-0.035137
-0.039122
-0.015092
-0.063060
-0.058812
-0.013459
-0.016677
-0.040656
-0.029704
-0.033393
-0.061642
-0.052460
-0.039576
-0.026940
0.011836
-0.069533
-0.057714
-0.034446
-0.031582
-0.056437
-0.069030
-0.048094
-0.078347
0.000575
-0.087099
0.000894
0.013579
-0.025198
-0.068322
-0.085658
-0.078928
0.001822
0.008811
0.017143
0.001132
-0.021454
-0.062566
-0.082850
-0.085076
-0.020046
-0.017443
-0.003618
0.005096
-0.089067
0.003007
-0.054921
-0.027411
-0.028838
-0.070162
-0.064925
-0.062885
-0.062441
0.000849
0.007793
0.016618
-0.073562
0.020711
-0.058205
0.001093
-0.040617
-0.029638
-0.026941
-0.066561
0.004866
0.006658
-0.044300
0.018439
-0.023898
-0.030208
-0.085096
-0.081103
-0.000716
0.019997
-0.022890
-0.036518
-0.002412
0.004193
0.001100
-0.071304
-0.026113
-0.016606
-0.085346
0.012041
-0.013614
-0.012342
-0.005533
0.000858
-0.087987
-0.089705
0.002268
0.002769
-0.044846
-0.040026
-0.029936
-0.030847
-0.060374
-0.061548
-0.016098
-0.015467
-0.037550
-0.063157
-0.039201
-0.014781
-0.071340
-0.038287
-0.025048
0.005127
-0.028264
0.004762
-0.051116
-0.057456
-0.030850
-0.038186
-0.018799
-0.034217
-0.037904
0.019864
0.003728
-0.082579
0.001250
0.003101
-0.046027
-0.030299
-0.030256
0.002465
-0.042265
-0.082896
-0.078217
-0.000600
-0.053339
-0.028006
0.001231
0.011782
-0.021295
-0.035310
-0.085265
-0.088168
-0.026136
-0.027606
0.015418
-0.031813
-0.000761
-0.004650
0.002579
-0.019994
-0.011692
0.003893
-0.027520
-0.026268
-0.058798
0.016381
-0.027221
-0.031405
0.000909
-0.066792
0.019787
0.009623
-0.060451
-0.031991
-0.076819
-0.037056
-0.081502
0.001161
-0.084339
-0.030334
-0.046982
-0.067322
0.002191
-0.032067
-0.069479
0.000292
0.000816
0.002956
-0.057550
-0.022884
-0.041695
-0.082487
0.018011
-0.014675
-0.067018
-0.019590
-0.083527
0.010448
-0.001580
-0.020151
0.001415
-0.086073
-0.051105
-0.006009
-0.025121
-0.074126
0.007009
-0.088934
-0.087404
0.015182
-0.016067
-0.061829
-0.039023
-0.069268
-0.056159
-0.038955
-0.027759
-0.037149
-0.036080
-0.038919
-0.039846
-0.049017
-0.026701
-0.037142
-0.038528
-0.060309
-0.069793
-0.064084
-0.063214
-0.030865
0.014210
-0.015930
0.007908
0.009863
-0.058631
-0.062838
-0.015136
-0.032725
-0.018285
-0.060940
-0.037766
-0.013800
-0.015443
-0.037347
-0.039897
-0.024939
-0.074683
-0.055211
-0.033483
-0.059799
-0.079786
-0.065608
0.001323
-0.032438
0.013846
-0.047231
-0.028755
-0.001571
0.000713
-0.023789
-0.034253
-0.047012
-0.055024
-0.067294
-0.082578
-0.020129
0.008679
-0.035537
0.016970
-0.067627
-0.025561
-0.032861
-0.079933
-0.017565
-0.075033
0.001056
-0.006617
-0.025466
0.008192
-0.067952
0.002060
-0.084181
0.005258
-0.087306
-0.037966
-0.037313
-0.065919
-0.062811
-0.058921
-0.039065
0.013046
0.006121
-0.057010
-0.042582
0.014128
0.002727
0.001194
-0.069863
-0.000208
-0.081987
0.001050
0.000265
-0.063447
-0.082598
0.000759
-0.030508
-0.016675
-0.052222
-0.002785
-0.012332
-0.029721
-0.001530
0.019901
-0.039164
0.001578
-0.083315
0.009665
-0.022244
0.019378
-0.086208
-0.016377
-0.063973
-0.080499
0.003162
-0.008838
-0.014402
-0.086513
-0.061700
-0.000565
-0.016879
-0.024886
-0.033471
-0.038617
-0.057311
-0.060453
-0.032310
-0.051480
-0.039280
0.000885
-0.025293
-0.027326
-0.038552
-0.032488
-0.040418
-0.039734
-0.063588
-0.038018
-0.016337
-0.025285
-0.034213
-0.013793
-0.064112
-0.035685
-0.061575
-0.016436
-0.027252
-0.061701
-0.034240
-0.029673
-0.030523
-0.040945
-0.037684
-0.023838
0.005713
-0.002624
-0.053458
-0.040109
-0.001080
-0.049122
0.001272
-0.050395
-0.074557
-0.080635
0.008040
-0.027765
-0.024183
0.002141
-0.056912
-0.060770
-0.067811
-0.025382
0.010908
-0.033808
-0.079965
-0.040863
0.018124
-0.003209
-0.004723
-0.032085
-0.034142
-0.084360
-0.079805
-0.038761
-0.060965
-0.071999
-0.038185
-0.078348
-0.029711
0.000943
-0.000495
-0.013235
0.014523
-0.068586
-0.068150
0.000721
-0.026946
-0.064847
-0.064575
-0.024503
-0.044070
0.000892
-0.067973
-0.071159
0.018957
-0.021285
-0.059789
-0.035416
-0.003073
-0.079877
-0.031950
-0.058974
-0.067299
-0.054509
-0.001589
-0.000343
-0.009728
-0.066510
-0.056467
-0.015401
-0.081594
-0.044283
0.017668
0.015464
-0.085527
-0.028780
0.004196
0.006850
-0.017844
-0.084677
-0.082544
0.002755
-0.080952
-0.035099
-0.002071
0.001308
-0.039221
-0.024199
-0.026551
-0.037235
-0.060756
-0.032632
-0.033226
-0.017262
-0.063382
-0.025857
-0.033029
-0.036802
-0.039365
-0.063633
-0.038581
-0.040585
-0.053996
-0.025107
-0.015226
-0.025590
-0.064042
-0.038848
0.011121
-0.036472
-0.076556
-0.025086
0.001228
-0.017334
-0.027607
-0.016558
-0.035286
-0.061752
-0.039027
-0.077420
0.015390
-0.024961
-0.041414
-0.052810
0.001174
-0.063689
0.011515
-0.001513
-0.067052
-0.002922
-0.039250
-0.004914
-0.078550
-0.022074
-0.071197
-0.061251
-0.066468
-0.055942
-0.019457
-0.060724
-0.038799
-0.078278
-0.058723
0.002677
-0.023827
-0.072039
-0.054883
-0.035633
-0.054933
0.006767
-0.082788
0.010057
-0.039933
-0.066491
-0.023192
-0.002378
-0.058677
-0.038348
0.009208
-0.037120
-0.047584
-0.003970
-0.047033
-0.079307
0.016555
-0.000301
-0.068050
-0.066281
-0.018737
-0.010073
-0.001226
0.000359
-0.002242
-0.077324
0.002915
0.001223
0.005455
-0.036684
-0.015256
0.001545
-0.081870
-0.073309
-0.053567
0.003405
-0.077248
-0.064192
-0.012876
0.016837
-0.030619
-0.028597
-0.066424
-0.063304
-0.001374
-0.079665
-0.083785
-0.083415
-0.034487
-0.045575
-0.080065
-0.031155
0.008736
-0.058797
-0.001536
-0.037848
-0.023428
-0.040239
-0.040327
-0.037144
-0.025065
-0.038166
-0.027450
-0.025555
-0.038208
-0.024534
-0.035704
-0.017314
-0.017358
-0.024008
-0.041463
-0.014197
0.001333
-0.066955
-0.032647
-0.032251
-0.059862
-0.066287
-0.069811
-0.011185
-0.023954
-0.077557
-0.039382
-0.063254
-0.068369
-0.027926
-0.034772
-0.030137
-0.061951
-0.034498
-0.052713
-0.020276
-0.016181
-0.041686
-0.040861
-0.023158
-0.023500
0.001471
-0.069806
-0.051040
-0.004348
0.000660
-0.074957
-0.027181
-0.004726
-0.054897
-0.055650
-0.066343
-0.071346
-0.076614
-0.076321
0.014704
-0.005360
-0.065765
-0.019721
-0.044564
-0.075556
-0.023742
0.014313
-0.039585
-0.077219
0.007360
-0.026231
-0.059419
-0.012827
0.001448
0.005366
-0.081052
-0.081708
0.001891
-0.077914
-0.013316
0.006378
-0.000301
-0.028128
-0.018511
-0.005682
-0.038294
-0.002359
0.012591
-0.003645
-0.001360
0.009524
-0.058045
-0.058001
-0.003485
-0.060808
-0.065873
-0.007562
-0.043008
-0.066693
-0.016161
-0.056846
-0.066883
-0.052907
0.001449
-0.037714
-0.056666
0.003463
-0.039014
-0.062056
-0.080762
-0.064271
-0.004031
-0.062344
-0.022932
-0.064634
-0.077618
0.015128
0.012974
-0.051648
-0.051920
-0.002984
-0.038406
-0.032011
-0.039928
0.004353
-0.037706
-0.025872
-0.027489
-0.030689
-0.075581
-0.032986
-0.064088
-0.063634
-0.034639
-0.037904
-0.037452
-0.037549
-0.035593
-0.041154
0.000674
-0.021752
-0.024115
-0.035806
-0.059552
-0.023577
-0.039438
-0.065610
-0.022727
-0.069397
-0.041956
-0.018491
-0.025308
-0.037396
-0.040237
-0.050841
-0.022683
-0.060920
-0.009311
-0.017498
-0.031475
-0.029553
-0.045666
-0.067587
-0.029546
-0.015331
-0.035085
-0.076486
-0.041097
-0.042419
-0.036344
-0.022395
-0.022281
-0.049584
-0.043800
-0.059831
-0.056863
-0.028916
0.010115
-0.002902
-0.053557
-0.004359
-0.042611
-0.025662
-0.058656
-0.002955
-0.011275
-0.023481
-0.073871
-0.041605
-0.064376
-0.066151
-0.053384
-0.065139
-0.075058
-0.040746
0.001908
0.001660
0.004365
-0.021653
-0.064844
-0.064978
-0.023547
0.013039
-0.042231
-0.071693
-0.015056
-0.009301
-0.054518
-0.065930
-0.019912
-0.057267
-0.001249
-0.003981
-0.040003
-0.053424
-0.067365
-0.040076
-0.016640
-0.033085
-0.050681
-0.032515
-0.035237
0.001332
0.006130
-0.079852
0.012753
-0.022298
-0.006297
-0.078655
-0.076102
-0.003935
0.001528
-0.048740
-0.074243
-0.024865
0.008290
0.014252
-0.029069
-0.004832
0.008558
-0.040199
-0.077508
-0.060579
0.004275
-0.075132
-0.038371
-0.059405
-0.038894
-0.067824
-0.000155
-0.067310
-0.034230
-0.038601
-0.023115
-0.036042
-0.034991
-0.041907
-0.061168
-0.063158
-0.040543
-0.008922
-0.073324
-0.041469
-0.033248
-0.049279
-0.036614
-0.022307
-0.039238
-0.016710
-0.042003
-0.026217
-0.061682
-0.024378
-0.003771
-0.005199
0.015777
-0.018642
-0.028079
-0.021929
-0.028042
-0.017381
-0.010564
-0.056222
-0.028054
-0.074642
-0.041142
-0.065247
-0.065180
-0.005056
-0.031657
-0.025237
-0.034420
-0.002950
-0.021793
-0.021657
-0.040867
-0.072667
-0.056911
-0.006016
-0.007884
-0.030607
-0.052230
0.001022
-0.074431
0.006768
-0.005436
-0.044556
-0.024314
-0.006506
-0.004599
-0.019782
-0.066232
-0.064453
0.004144
-0.012920
-0.002845
-0.064607
-0.049027
-0.022060
-0.059440
-0.060875
-0.073224
-0.077876
0.011221
0.001553
-0.060922
-0.026513
-0.009390
-0.072607
0.010202
-0.044563
-0.051601
-0.020807
-0.042341
-0.003523
-0.035502
-0.061857
-0.056073
-0.055885
0.007392
-0.041812
-0.063866
-0.065962
-0.050741
-0.005557
-0.058828
0.004981
-0.053996
-0.069922
0.002914
-0.037460
0.000303
0.012330
-0.027580
-0.026174
-0.006548
-0.043077
-0.079073
-0.006882
-0.026932
-0.075715
-0.065348
-0.006813
-0.053030
0.012308
0.001589
-0.050749
-0.000633
-0.068061
-0.068569
-0.072243
-0.075071
-0.041174
-0.017834
-0.007319
-0.041707
-0.041994
-0.001396
-0.045813
-0.030450
-0.026241
-0.022974
-0.022151
-0.040894
-0.023841
0.011557
-0.023311
-0.039633
-0.033809
-0.033103
-0.040018
-0.036425
-0.038645
-0.063909
-0.018418
-0.018017
-0.042382
-0.036992
-0.034062
-0.037741
-0.021582
-0.047765
-0.033333
-0.041341
-0.042860
-0.016222
-0.064389
-0.042298
-0.012964
-0.060195
-0.003183
-0.030513
-0.028193
-0.019599
-0.072043
-0.062928
0.013587
-0.062089
-0.066034
-0.062752
-0.024306
-0.065160
-0.004918
-0.026082
-0.027108
-0.042807
-0.006245
-0.035722
-0.047864
-0.021514
-0.055144
-0.070033
-0.045539
-0.033544
-0.059100
-0.004165
-0.000309
-0.064747
-0.005175
-0.060929
-0.006671
-0.072562
-0.065439
-0.065187
-0.067171
-0.010969
-0.017789
-0.021514
0.000966
-0.044448
-0.019188
0.003270
-0.075519
-0.063975
-0.025929
-0.073930
-0.064237
-0.023551
-0.000963
-0.035324
-0.022901
0.008070
0.011175
-0.047703
-0.062890
-0.021204
-0.048974
-0.028545
0.005545
-0.042614
-0.003517
-0.006133
-0.070018
-0.050580
-0.009420
-0.077085
-0.049088
-0.007061
-0.028841
-0.039368
-0.073242
-0.075248
-0.006748
0.002299
-0.057008
0.007260
0.010191
-0.052050
-0.048534
-0.039791
-0.006335
-0.065342
-0.024980
-0.002650
-0.070631
-0.063472
-0.004396
-0.072464
-0.031635
-0.022091
-0.008097
0.005487
-0.045476
-0.061604
-0.061136
-0.071071
-0.023369
-0.042774
-0.063967
-0.062870
-0.042855
0.006147
-0.023984
0.001400
-0.027375
-0.059035
-0.039508
-0.024926
-0.024467
-0.021951
-0.031774
-0.026197
-0.012532
-0.007495
-0.040686
-0.050483
-0.020931
-0.006549
-0.038028
-0.036039
-0.016036
-0.040919
-0.035139
-0.042981
-0.032658
-0.007004
-0.005592
-0.021483
-0.042147
-0.004614
-0.019818
-0.063558
-0.020161
-0.042880
-0.062282
-0.064650
-0.042597
-0.026704
-0.023509
-0.026189
-0.030946
-0.017663
-0.022191
-0.002150
0.006977
-0.063881
-0.037935
-0.061777
-0.015020
-0.059519
-0.045460
-0.052558
-0.054571
-0.057945
-0.037236
-0.025696
0.004322
-0.043379
-0.007246
-0.038507
-0.047197
-0.021093
-0.044397
-0.007763
-0.031077
-0.009595
-0.059419
-0.062650
0.004109
-0.022894
-0.006180
-0.065953
-0.007946
-0.020768
-0.069551
-0.050187
-0.039073
-0.025123
-0.057269
0.003977
-0.007144
-0.037933
-0.069598
-0.003827
-0.037224
-0.008989
-0.063398
-0.070021
-0.056497
-0.063309
-0.042396
-0.022757
-0.021855
0.004672
-0.063464
-0.008030
-0.020603
-0.051993
-0.048151
-0.043436
-0.062811
-0.006928
-0.047599
-0.048169
-0.013311
-0.067497
-0.001402
-0.010710
0.009911
-0.074872
-0.073261
-0.065084
-0.068200
-0.047020
0.001457
-0.030943
-0.058916
-0.072265
-0.001944
-0.007848
-0.048199
-0.049808
-0.053017
-0.005925
-0.014883
-0.035387
-0.004300
-0.070240
0.009115
-0.009821
-0.022478
-0.004697
0.010102
0.000983
0.002291
-0.070562
0.003829
-0.006200
-0.029004
-0.032829
-0.014723
-0.047024
-0.073342
-0.054199
0.000377
-0.043798
-0.024815
-0.008729
-0.043329
-0.023844
-0.025635
-0.026741
-0.035205
-0.022435
-0.041704
-0.053719
-0.022401
-0.040508
-0.039114
-0.064292
-0.062388
-0.061366
-0.037430
-0.031623
-0.036161
-0.024389
-0.033501
-0.043591
-0.007275
-0.041825
-0.001414
-0.021239
-0.020845
-0.024690
-0.040819
-0.042852
-0.053132
-0.065945
-0.063681
-0.021032
-0.056969
-0.018526
-0.016089
-0.020277
-0.017841
-0.063381
0.008441
-0.061499
-0.027355
-0.027061
-0.061113
-0.060268
-0.007887
0.000885
-0.038947
-0.036575
-0.068125
-0.046891
-0.011433
-0.009679
-0.056909
-0.005728
-0.066559
-0.024227
-0.004976
0.000743
-0.070493
-0.064662
-0.008073
-0.009082
-0.049462
-0.009379
-0.019043
-0.063978
-0.068728
-0.051480
-0.068357
-0.005155
0.007401
-0.001620
-0.017558
0.000328
0.001915
-0.058174
-0.022418
-0.020170
-0.065121
-0.017445
-0.014516
-0.038416
-0.010257
0.006624
0.009039
-0.005458
-0.062738
-0.071303
-0.074042
-0.033639
-0.049318
-0.057258
-0.063626
-0.005689
-0.047794
-0.007900
-0.062697
-0.047964
-0.024122
-0.007071
-0.029131
0.005933
-0.008944
-0.005838
-0.054376
-0.015157
-0.051372
-0.027330
0.000178
-0.020085
-0.010313
-0.007761
-0.069121
-0.031987
-0.042561