# vtk DataFile Version 2.0
Test
ASCII
DATASET POLYDATA
POINTS 4677 float
0.000000 0.000000 0.000000
0.080000 0.000000 0.000000
0.080000 0.160000 0.000000
0.000000 0.160000 0.000000
0.036000 0.073072 0.000000
0.044000 0.086928 0.000000
0.024500 0.065566 0.000000
0.055500 0.093560 0.000000
0.001000 0.050000 0.000000
0.079000 0.110000 0.000000
0.002963 0.000000 0.000000
0.005926 0.000000 0.000000
0.008889 0.000000 0.000000
0.011852 0.000000 0.000000
0.014815 0.000000 0.000000
0.017778 0.000000 0.000000
0.020741 0.000000 0.000000
0.023704 0.000000 0.000000
0.026667 0.000000 0.000000
0.029630 0.000000 0.000000
0.032593 0.000000 0.000000
0.035556 0.000000 0.000000
0.038519 0.000000 0.000000
0.041481 0.000000 0.000000
0.044444 0.000000 0.000000
0.047407 0.000000 0.000000
0.050370 0.000000 0.000000
0.053333 0.000000 0.000000
0.056296 0.000000 0.000000
0.059259 0.000000 0.000000
0.062222 0.000000 0.000000
0.065185 0.000000 0.000000
0.068148 0.000000 0.000000
0.071111 0.000000 0.000000
0.074074 0.000000 0.000000
0.077037 0.000000 0.000000
0.080000 0.002963 0.000000
0.080000 0.005926 0.000000
0.080000 0.008889 0.000000
0.080000 0.011852 0.000000
0.080000 0.014815 0.000000
0.080000 0.017778 0.000000
0.080000 0.020741 0.000000
0.080000 0.023704 0.000000
0.080000 0.026667 0.000000
0.080000 0.029630 0.000000
0.080000 0.032593 0.000000
0.080000 0.035556 0.000000
0.080000 0.038519 0.000000
0.080000 0.041481 0.000000
0.080000 0.044444 0.000000
0.080000 0.047407 0.000000
0.080000 0.050370 0.000000
0.080000 0.053333 0.000000
0.080000 0.056296 0.000000
0.080000 0.059259 0.000000
0.080000 0.062222 0.000000
0.080000 0.065185 0.000000
0.080000 0.068148 0.000000
0.080000 0.071111 0.000000
0.080000 0.074074 0.000000
0.080000 0.077037 0.000000
0.080000 0.080000 0.000000
0.080000 0.082963 0.000000
0.080000 0.085926 0.000000
0.080000 0.088889 0.000000
0.080000 0.091852 0.000000
0.080000 0.094815 0.000000
0.080000 0.097778 0.000000
0.080000 0.100741 0.000000
0.080000 0.103704 0.000000
0.080000 0.106667 0.000000
0.080000 0.109630 0.000000
0.080000 0.112593 0.000000
0.080000 0.115556 0.000000
0.080000 0.118519 0.000000
0.080000 0.121481 0.000000
0.080000 0.124444 0.000000
0.080000 0.127407 0.000000
0.080000 0.130370 0.000000
0.080000 0.133333 0.000000
0.080000 0.136296 0.000000
0.080000 0.139259 0.000000
0.080000 0.142222 0.000000
0.080000 0.145185 0.000000
0.080000 0.148148 0.000000
0.080000 0.151111 0.000000
0.080000 0.154074 0.000000
0.080000 0.157037 0.000000
0.077037 0.160000 0.000000
0.074074 0.160000 0.000000
0.071111 0.160000 0.000000
0.068148 0.160000 0.000000
0.065185 0.160000 0.000000
0.062222 0.160000 0.000000
0.059259 0.160000 0.000000
0.056296 0.160000 0.000000
0.053333 0.160000 0.000000
0.050370 0.160000 0.000000
0.047407 0.160000 0.000000
0.044444 0.160000 0.000000
0.041481 0.160000 0.000000
0.038519 0.160000 0.000000
0.035556 0.160000 0.000000
0.032593 0.160000 0.000000
0.029630 0.160000 0.000000
0.026667 0.160000 0.000000
0.023704 0.160000 0.000000
0.020741 0.160000 0.000000
0.017778 0.160000 0.000000
0.014815 0.160000 0.000000
0.011852 0.160000 0.000000
0.008889 0.160000 0.000000
0.005926 0.160000 0.000000
0.002963 0.160000 0.000000
0.000000 0.157037 0.000000
0.000000 0.154074 0.000000
0.000000 0.151111 0.000000
0.000000 0.148148 0.000000
0.000000 0.145185 0.000000
0.000000 0.142222 0.000000
0.000000 0.139259 0.000000
0.000000 0.136296 0.000000
0.000000 0.133333 0.000000
0.000000 0.130370 0.000000
0.000000 0.127407 0.000000
0.000000 0.124444 0.000000
0.000000 0.121481 0.000000
0.000000 0.118519 0.000000
0.000000 0.115556 0.000000
0.000000 0.112593 0.000000
0.000000 0.109630 0.000000
0.000000 0.106667 0.000000
0.000000 0.103704 0.000000
0.000000 0.100741 0.000000
0.000000 0.097778 0.000000
0.000000 0.094815 0.000000
0.000000 0.091852 0.000000
0.000000 0.088889 0.000000
0.000000 0.085926 0.000000
0.000000 0.082963 0.000000
0.000000 0.080000 0.000000
0.000000 0.077037 0.000000
0.000000 0.074074 0.000000
0.000000 0.071111 0.000000
0.000000 0.068148 0.000000
0.000000 0.065185 0.000000
0.000000 0.062222 0.000000
0.000000 0.059259 0.000000
0.000000 0.056296 0.000000
0.000000 0.053333 0.000000
0.000000 0.050370 0.000000
0.000000 0.047407 0.000000
0.000000 0.044444 0.000000
0.000000 0.041481 0.000000
0.000000 0.038519 0.000000
0.000000 0.035556 0.000000
0.000000 0.032593 0.000000
0.000000 0.029630 0.000000
0.000000 0.026667 0.000000
0.000000 0.023704 0.000000
0.000000 0.020741 0.000000
0.000000 0.017778 0.000000
0.000000 0.014815 0.000000
0.000000 0.011852 0.000000
0.000000 0.008889 0.000000
0.000000 0.005926 0.000000
0.000000 0.002963 0.000000
0.035500 0.072746 0.000000
0.035000 0.072419 0.000000
0.034500 0.072093 0.000000
0.034000 0.071767 0.000000
0.033500 0.071440 0.000000
0.033000 0.071114 0.000000
0.032500 0.070788 0.000000
0.032000 0.070461 0.000000
0.031500 0.070135 0.000000
0.031000 0.069809 0.000000
0.030500 0.069482 0.000000
0.030000 0.069156 0.000000
0.029500 0.068829 0.000000
0.029000 0.068503 0.000000
0.028500 0.068177 0.000000
0.028000 0.067850 0.000000
0.027500 0.067524 0.000000
0.027000 0.067198 0.000000
0.026500 0.066871 0.000000
0.026000 0.066545 0.000000
0.025500 0.066219 0.000000
0.025000 0.065892 0.000000
0.044500 0.087216 0.000000
0.045000 0.087505 0.000000
0.045500 0.087793 0.000000
0.046000 0.088081 0.000000
0.046500 0.088370 0.000000
0.047000 0.088658 0.000000
0.047500 0.088946 0.000000
0.048000 0.089235 0.000000
0.048500 0.089523 0.000000
0.049000 0.089811 0.000000
0.049500 0.090100 0.000000
0.050000 0.090388 0.000000
0.050500 0.090677 0.000000
0.051000 0.090965 0.000000
0.051500 0.091253 0.000000
0.052000 0.091542 0.000000
0.052500 0.091830 0.000000
0.053000 0.092118 0.000000
0.053500 0.092407 0.000000
0.054000 0.092695 0.000000
0.054500 0.092983 0.000000
0.055000 0.093272 0.000000
0.043704 0.086415 0.000000
0.043407 0.085902 0.000000
0.043111 0.085388 0.000000
0.042815 0.084875 0.000000
0.042519 0.084362 0.000000
0.042222 0.083849 0.000000
0.041926 0.083336 0.000000
0.041630 0.082823 0.000000
0.041333 0.082309 0.000000
0.041037 0.081796 0.000000
0.040741 0.081283 0.000000
0.040444 0.080770 0.000000
0.040148 0.080257 0.000000
0.039852 0.079743 0.000000
0.039556 0.079230 0.000000
0.039259 0.078717 0.000000
0.038963 0.078204 0.000000
0.038667 0.077691 0.000000
0.038370 0.077177 0.000000
0.038074 0.076664 0.000000
0.037778 0.076151 0.000000
0.037481 0.075638 0.000000
0.037185 0.075125 0.000000
0.036889 0.074612 0.000000
0.036593 0.074098 0.000000
0.036296 0.073585 0.000000
0.024000 0.065235 0.000000
0.023500 0.064904 0.000000
0.023000 0.064572 0.000000
0.022500 0.064241 0.000000
0.022000 0.063910 0.000000
0.021500 0.063579 0.000000
0.021000 0.063248 0.000000
0.020500 0.062916 0.000000
0.020000 0.062585 0.000000
0.019500 0.062254 0.000000
0.019000 0.061923 0.000000
0.018500 0.061592 0.000000
0.018000 0.061261 0.000000
0.017500 0.060929 0.000000
0.017000 0.060598 0.000000
0.016500 0.060267 0.000000
0.016000 0.059936 0.000000
0.015500 0.059605 0.000000
0.015000 0.059273 0.000000
0.014500 0.058942 0.000000
0.014000 0.058611 0.000000
0.013500 0.058280 0.000000
0.013000 0.057949 0.000000
0.012500 0.057617 0.000000
0.012000 0.057286 0.000000
0.011500 0.056955 0.000000
0.011000 0.056624 0.000000
0.010500 0.056293 0.000000
0.010000 0.055961 0.000000
0.009500 0.055630 0.000000
0.009000 0.055299 0.000000
0.008500 0.054968 0.000000
0.008000 0.054637 0.000000
0.007500 0.054305 0.000000
0.007000 0.053974 0.000000
0.006500 0.053643 0.000000
0.006000 0.053312 0.000000
0.005500 0.052981 0.000000
0.005000 0.052650 0.000000
0.004500 0.052318 0.000000
0.004000 0.051987 0.000000
0.003500 0.051656 0.000000
0.003000 0.051325 0.000000
0.002500 0.050994 0.000000
0.002000 0.050662 0.000000
0.001500 0.050331 0.000000
0.055990 0.093902 0.000000
0.056479 0.094245 0.000000
0.056969 0.094587 0.000000
0.057458 0.094930 0.000000
0.057948 0.095272 0.000000
0.058437 0.095615 0.000000
0.058927 0.095957 0.000000
0.059417 0.096300 0.000000
0.059906 0.096642 0.000000
0.060396 0.096985 0.000000
0.060885 0.097327 0.000000
0.061375 0.097670 0.000000
0.061865 0.098012 0.000000
0.062354 0.098355 0.000000
0.062844 0.098697 0.000000
0.063333 0.099040 0.000000
0.063823 0.099382 0.000000
0.064312 0.099725 0.000000
0.064802 0.100067 0.000000
0.065292 0.100410 0.000000
0.065781 0.100752 0.000000
0.066271 0.101095 0.000000
0.066760 0.101437 0.000000
0.067250 0.101780 0.000000
0.067740 0.102122 0.000000
0.068229 0.102465 0.000000
0.068719 0.102807 0.000000
0.069208 0.103150 0.000000
0.069698 0.103492 0.000000
0.070187 0.103835 0.000000
0.070677 0.104177 0.000000
0.071167 0.104520 0.000000
0.071656 0.104862 0.000000
0.072146 0.105205 0.000000
0.072635 0.105547 0.000000
0.073125 0.105890 0.000000
0.073615 0.106232 0.000000
0.074104 0.106575 0.000000
0.074594 0.106917 0.000000
0.075083 0.107260 0.000000
0.075573 0.107602 0.000000
0.076062 0.107945 0.000000
0.076552 0.108287 0.000000
0.077042 0.108630 0.000000
0.077531 0.108972 0.000000
0.078021 0.109315 0.000000
0.078510 0.109658 0.000000
0.043942 0.087469 0.000000
0.035556 0.157037 0.000000
0.044420 0.002920 0.000000
0.077037 0.038519 0.000000
0.002963 0.121481 0.000000
0.077037 0.059259 0.000000
0.002963 0.109630 0.000000
0.002923 0.098139 0.000000
0.077153 0.126913 0.000000
0.002808 0.032596 0.000000
0.077140 0.071061 0.000000
0.002963 0.085926 0.000000
0.002963 0.136296 0.000000
0.077041 0.023701 0.000000
0.056296 0.157037 0.000000
0.032593 0.002963 0.000000
0.077037 0.080000 0.000000
0.002813 0.077135 0.000000
0.077037 0.142222 0.000000
0.017778 0.157037 0.000000
0.062222 0.002963 0.000000
0.076992 0.088722 0.000000
0.002945 0.020743 0.000000
0.017777 0.002962 0.000000
0.002801 0.068434 0.000000
0.002959 0.011851 0.000000
0.065186 0.157038 0.000000
0.002963 0.148148 0.000000
0.077037 0.011852 0.000000
0.076887 0.094740 0.000000
0.077092 0.115875 0.000000
0.002677 0.044265 0.000000
0.077038 0.148148 0.000000
0.002985 0.062165 0.000000
0.077037 0.047407 0.000000
0.011852 0.002963 0.000000
[...]
POINT_DATA 4677
SCALARS UX float 1
LOOKUP_TABLE default
-0.000001
0.000001
0.064160
-0.097612
-0.033160
-0.067728
-0.085136
-0.018653
-0.100880
0.001572
-0.000000
-0.000000
-0.000000
-0.000000
-0.000000
-0.000000
-0.000000
-0.000000
-0.000000
-0.000000
-0.000000
-0.000000
-0.000000
0.000000
0.000000
0.000000
0.000000
0.000000
0.000000
0.000000
0.000000
0.000000
0.000000
0.000000
0.000000
-0.000000
0.002370
0.004390
0.006396
0.008294
0.010278
0.012494
0.014891
0.017302
0.019730
0.022289
0.024815
0.027681
0.030920
0.034586
0.038222
0.043182
0.045581
0.046759
0.045358
0.044861
0.043897
0.043063
0.040370
0.038339
0.046734
0.040808
0.038889
0.036651
0.025440
0.019830
0.011928
0.007414
0.004804
0.000116
0.000420
-0.000100
0.001926
0.006341
0.008070
0.009601
0.009922
0.009097
0.005554
0.004496
0.009453
0.017609
0.026060
0.036624
0.045340
0.050304
0.055152
0.060080
0.062052
0.061282
0.057487
0.052538
0.046792
0.040746
0.037593
0.029647
0.022694
0.014171
0.005700
-0.002477
-0.010970
-0.023952
-0.032388
-0.039315
-0.043397
-0.050990
-0.055361
-0.058830
-0.063890
-0.069718
-0.075992
-0.080598
-0.083606
-0.088998
-0.093690
-0.101451
-0.104394
-0.107343
-0.109862
-0.112887
-0.115598
-0.118523
-0.119744
-0.124424
-0.128786
-0.133036
-0.136120
-0.137487
-0.137169
-0.136839
-0.136328
-0.135300
-0.134065
-0.129561
-0.125093
-0.121627
-0.119073
-0.121524
-0.119726
-0.121126
-0.121195
-0.123432
-0.122428
-0.123601
-0.122460
-0.118793
-0.115605
-0.112376
-0.111171
-0.107603
-0.103784
-0.101915
-0.100582
-0.099154
-0.097595
-0.096830
-0.093639
-0.089852
-0.085731
-0.081066
-0.073757
-0.071577
-0.069889
-0.063452
-0.051467
-0.026936
-0.017459
-0.006269
-0.032919
-0.033810
-0.035161
-0.037698
-0.039881
-0.040444
-0.040589
-0.048438
-0.051704
-0.046257
-0.051052
-0.054880
-0.059057
-0.064362
-0.067687
-0.071083
-0.075132
-0.075271
-0.076068
-0.074672
-0.078178
-0.081815
-0.067378
-0.067434
-0.068004
-0.061431
-0.065024
-0.060327
-0.057549
-0.056449
-0.053154
-0.051549
-0.046924
-0.047452
-0.044963
-0.042222
-0.039410
-0.041025
-0.037657
-0.035193
-0.031135
-0.026939
-0.022274
-0.020414
-0.067864
-0.061634
-0.057712
-0.055020
-0.053754
-0.052478
-0.051195
-0.049674
-0.048797
-0.047255
-0.045021
-0.044504
-0.042872
-0.041102
-0.040219
-0.037863
-0.037329
-0.036778
-0.036259
-0.035561
-0.035133
-0.034742
-0.034396
-0.034049
-0.033864
-0.033545
-0.087780
-0.088971
-0.089240
-0.089755
-0.090425
-0.090279
-0.090292
-0.090193
-0.089722
-0.088968
-0.088221
-0.087659
-0.087679
-0.087741
-0.086817
-0.086315
-0.086887
-0.087403
-0.087947
-0.088484
-0.089020
-0.089597
-0.090208
-0.090838
-0.091508
-0.092152
-0.092553
-0.093039
-0.093524
-0.093977
-0.094365
-0.094758
-0.095006
-0.095257
-0.095513
-0.095975
-0.096315
-0.096612
-0.096936
-0.097172
-0.097720
-0.098359
-0.098893
-0.099158
-0.099458
-0.100175
-0.017118
-0.019661
-0.020956
-0.022011
-0.022890
-0.023560
-0.024130
-0.024588
-0.025046
-0.025448
-0.025807
-0.026174
-0.026576
-0.027025
-0.027495
-0.027908
-0.028130
-0.028133
-0.027957
-0.028007
-0.027021
-0.026220
-0.025300
-0.024504
-0.023934
-0.023182
-0.022363
-0.021505
-0.020587
-0.019756
-0.018857
-0.018072
-0.017177
-0.016193
-0.015350
-0.014324
-0.012923
-0.011536
-0.010224
-0.008853
-0.007314
-0.005994
-0.004594
-0.003206
-0.001944
-0.000733
0.000469
-0.067748
-0.043528
0.000230
0.028847
-0.134091
0.042417
-0.132280
-0.118708
-0.003529
-0.084534
0.035102
-0.117633
-0.117151
0.013966
0.014065
-0.000216
0.029984
-0.118515
0.028606
-0.071562
0.000063
0.016385
-0.064788
-0.000321
-0.115732
-0.040287
0.036084
-0.106062
0.005432
0.003621
-0.000992
-0.095102
0.041999
-0.109357
0.042373
-0.000916
0.047968
-0.093341
0.000217
-0.105116
-0.003551
0.005963
-0.026257
-0.010584
-0.000659
-0.124500
0.019079
-0.063239
0.000104
0.058465
-0.002286
-0.092785
-0.063827
-0.002214
-0.090341
-0.104843
-0.118094
0.029386
-0.116927
-0.118062
0.040434
0.032297
0.045691
-0.127094
-0.004388
-0.134634
-0.080054
-0.074705
0.032819
-0.053425
0.009935
0.000160
0.000296
-0.128717
0.021950
0.000287
-0.061231
-0.001132
0.021871
-0.002589
-0.111443
0.009282
-0.015726
-0.000186
-0.004254
-0.083056
0.000097
0.049086
-0.000459
-0.000187
-0.100689
0.001741
-0.097480
0.000353
-0.001169
-0.068154
-0.098363
-0.100933
-0.002552
-0.067717
0.000355
0.026916
0.022580
-0.074414
-0.110955
-0.010363
-0.010501
-0.119995
0.004568
-0.001653
-0.088098
-0.052555
-0.104362
0.024991
-0.010899
0.005261
-0.026289
-0.002163
-0.002307
0.034492
-0.096519
0.000431
0.000651
-0.096997
0.001317
-0.113267
0.008836
-0.117927
-0.100823
0.022914
-0.001237
-0.088796
0.000140
-0.119666
0.030995
-0.116464
-0.116972
0.036187
0.041943
-0.122652
-0.131312
0.043385
-0.134142
0.044737
-0.000116
0.036820
-0.135105
-0.036185
-0.132358
0.025175
-0.047828
0.000190
-0.018850
-0.069964
-0.058751
0.000129
0.000183
0.018705
-0.120023
0.016501
0.005947
-0.000769
-0.067569
0.000081
-0.057093
-0.001333
0.029744
-0.114155
0.011522
-0.001073
-0.108676
0.007234
0.041530
0.038683
-0.077157
0.000060
0.053979
0.055552
-0.087803
0.000153
-0.103413
0.003458
-0.099424
0.000403
-0.002316
-0.100602
-0.098439
-0.067841
-0.065841
-0.003378
-0.102448
-0.011245
-0.087687
-0.061213
-0.057433
-0.056807
0.039692
-0.113126
-0.129935
-0.018855
-0.084119
-0.052516
-0.072501
-0.113095
0.000279
0.013255
0.006571
-0.110008
-0.081631
-0.002490
0.004385
-0.104458
0.000182
-0.003122
-0.097390
-0.011963
0.041676
-0.131883
0.041885
-0.132684
-0.026246
-0.116506
0.021317
-0.002423
-0.002066
-0.099278
0.034648
0.042125
-0.097861
-0.001064
-0.093455
-0.005472
0.021648
-0.108590
-0.012124
-0.113503
-0.099714
0.017570
0.021983
-0.119594
-0.006541
-0.082713
-0.084469
-0.090453
0.031855
0.024902
-0.110673
0.023173
0.000067
0.000290
-0.069886
0.036470
0.031536
0.000392
0.000406
-0.112555
-0.005720
-0.018471
-0.063177
-0.002296
-0.127451
-0.123926
0.011279
0.026781
-0.001233
-0.040564
-0.063748
-0.001044
0.013744
-0.043354
-0.002163
0.008407
0.000193
-0.058117
-0.005566
-0.000784
0.049361
-0.091857
0.000261
0.001353
-0.078851
-0.068151
-0.067996
-0.004059
-0.097661
-0.099749
0.002389
-0.099753
-0.001996
-0.062245
-0.068013
-0.057572
-0.063750
-0.066944
0.000159
0.029366
0.020886
-0.106020
-0.031545
-0.122084
-0.072383
-0.012564
0.018233
-0.001935
-0.008644
-0.059011
-0.038879
-0.005564
-0.096123
-0.005380
-0.019493
-0.053048
-0.113296
0.019891
0.000491
-0.001904
-0.003763
0.005957
0.018982
-0.115111
-0.094926
0.000493
-0.054163
-0.111579
0.001107
-0.077795
-0.106655
-0.125377
-0.113250
-0.109997
-0.113020
0.016228
0.038286
-0.011206
0.040909
-0.131143
0.043562
0.014508
-0.132601
-0.009578
0.012215
-0.104730
-0.033728
-0.000418
-0.057481
-0.112618
0.040942
0.000336
-0.068387
-0.062627
-0.025993
0.020726
-0.131282
0.000227
-0.076709
0.019826
0.010702
-0.030266
-0.000773
0.006224
0.034244
0.028161
-0.001239
-0.107229
0.000173
-0.047820
-0.087282
-0.102004
0.041416
0.002700
0.000203
-0.083254
-0.018656
-0.086947
-0.066083
-0.098934
-0.066774
-0.068373
-0.005462
-0.094608
-0.005230
-0.057919
-0.068033
-0.005340
-0.099093
-0.096083
-0.003957
-0.003579
-0.059531
-0.053138
-0.056089
-0.097520
-0.089866
-0.067247
-0.049693
0.037495
-0.115687
-0.101481
-0.071265
-0.025842
-0.037376
-0.108808
-0.082899
-0.067194
0.004008
-0.105824
0.000438
0.010120
-0.056469
-0.104252
-0.081572
-0.128799
0.000323
0.003816
0.041003
-0.000121
-0.008852
-0.045802
-0.129490
-0.125719
0.011799
-0.036044
-0.001856
0.001183
-0.090634
0.012900
-0.092360
-0.018037
-0.015107
-0.109109
-0.109972
-0.105611
-0.107090
-0.000953
0.033632
0.016215
-0.121738
0.033380
-0.038112
0.000341
-0.080193
-0.019679
-0.007495
-0.109128
0.014328
0.016416
-0.016333
0.039798
0.002670
-0.067507
-0.112080
-0.073267
-0.002850
0.024467
-0.048127
-0.001603
-0.004281
0.027133
0.000379
-0.054614
0.013173
0.026526
-0.118453
0.007578
-0.014028
0.026699
0.000048
0.000529
-0.103352
-0.097739
0.000322
0.000357
-0.079604
-0.068528
-0.053218
-0.054461
-0.096203
-0.096760
-0.006007
-0.007309
-0.062624
-0.097628
-0.066920
-0.009626
-0.110135
-0.068486
-0.012951
0.014771
-0.017772
0.013165
-0.086616
-0.094317
-0.053330
-0.061624
-0.006991
-0.055329
-0.065945
0.027130
0.029683
-0.121121
0.000350
0.008841
-0.079119
-0.016538
-0.024257
0.007735
-0.016411
-0.110238
-0.071573
-0.003871
-0.089687
-0.003034
0.000621
0.007869
-0.010589
-0.002063
-0.101718
-0.093548
-0.048490
-0.059715
0.015053
-0.026019
0.013395
-0.006924
0.000511
-0.042875
-0.008767
0.000613
-0.050501
-0.018610
-0.102479
0.040863
-0.050325
-0.068014
-0.000850
-0.111733
0.037734
0.036520
-0.045242
-0.024928
-0.128029
-0.063173
-0.129632
0.000585
-0.128681
-0.012706
-0.024694
-0.107934
0.007643
-0.024607
-0.107681
0.005426
0.000503
0.008834
-0.100770
-0.049557
-0.077611
-0.117462
0.018223
-0.022236
-0.052015
0.019004
-0.076744
0.005446
-0.004954
0.019925
0.000340
-0.108584
-0.031379
-0.005793
0.003816
-0.060588
0.002401
-0.100469
-0.086090
0.012895
-0.010126
-0.096099
-0.068627
-0.105453
-0.092518
-0.068748
-0.051058
-0.057722
-0.056505
-0.065860
-0.066924
-0.083245
-0.050783
-0.066853
-0.061893
-0.104859
-0.108732
-0.106911
-0.097137
-0.019086
0.038488
-0.006809
0.020814
0.021462
-0.094350
-0.097647
-0.011123
-0.056862
-0.007959
-0.096513
-0.075267
-0.007856
-0.008985
-0.063733
-0.068876
-0.046201
-0.123676
-0.097385
-0.030886
-0.045958
-0.116277
-0.104520
0.000326
-0.066300
0.012784
-0.079898
-0.024917
-0.005725
0.004027
-0.053279
-0.022021
-0.028445
-0.090244
-0.101983
-0.082050
-0.011645
0.035651
-0.030500
0.038024
-0.053445
-0.047826
-0.010497
-0.127384
-0.039487
-0.065647
0.000661
-0.006483
0.011572
0.003365
-0.105482
0.000527
-0.103880
0.001208
-0.096300
-0.059275
-0.062969
-0.110924
-0.105036
-0.101752
-0.073119
0.037465
0.031011
-0.099575
-0.075974
0.011955
0.011339
-0.000099
-0.107443
0.021859
-0.125148
0.000662
-0.002704
-0.096817
-0.113553
0.006553
-0.008297
-0.008546
-0.036210
-0.007691
-0.012947
0.005072
0.007948
0.031044
-0.009042
0.000568
-0.106761
0.004814
0.011199
0.022511
-0.099115
-0.012590
-0.048387
-0.076772
0.000520
-0.006018
-0.012046
-0.089411
-0.095087
0.001091
-0.010230
-0.014536
-0.054184
-0.060319
-0.092603
-0.095594
-0.023458
-0.086372
-0.069333
0.004231
-0.046647
-0.050126
-0.063686
-0.058378
-0.067858
-0.066789
-0.108589
-0.067481
-0.008793
-0.048129
-0.057471
-0.009560
-0.098425
-0.072421
-0.096260
-0.011605
-0.051530
-0.095596
-0.031683
-0.062967
-0.055913
-0.069309
-0.036057
-0.043573
0.031833
0.013783
-0.094234
-0.071467
0.001283
-0.082687
0.000801
-0.035208
-0.070706
-0.104975
0.003581
-0.053404
-0.045418
0.000788
-0.091395
-0.094359
-0.113881
-0.055734
0.007998
-0.065063
-0.119908
-0.017008
0.028569
0.002206
-0.009942
-0.002205
-0.016746
-0.094993
-0.080140
-0.063305
-0.105948
-0.119782
-0.063470
-0.126960
-0.062597
-0.000688
-0.003832
-0.009852
0.037546
-0.104225
-0.104742
0.003949
-0.048423
-0.098581
-0.053631
-0.045368
-0.075335
0.025983
-0.102748
-0.058411
0.033764
-0.044109
-0.103022
-0.017811
-0.006758
-0.112528
-0.004607
-0.093598
-0.101724
-0.096605
-0.001553
0.001057
-0.006231
-0.104387
-0.041043
-0.033112
-0.102225
-0.022515
0.023426
0.013449
-0.092180
0.003707
0.000814
0.002308
-0.010508
-0.084896
-0.099562
0.000765
-0.126493
-0.029818
-0.002402
0.000579
-0.070315
-0.015376
-0.024248
-0.061673
-0.095004
-0.030087
-0.023674
-0.011635
-0.096612
-0.049201
-0.053387
-0.058063
-0.065660
-0.103581
-0.058069
-0.067546
-0.088101
-0.047057
-0.013488
-0.020137
-0.097709
-0.067908
0.036888
-0.036127
-0.126488
-0.046670
-0.000059
-0.012787
-0.052135
-0.014512
-0.054144
-0.094513
-0.041799
-0.115075
0.023953
-0.047699
-0.071503
-0.092419
-0.000265
-0.101021
0.010924
-0.001722
-0.101748
-0.005280
-0.026696
-0.009893
-0.100615
-0.046189
-0.119106
-0.052361
-0.099811
-0.089453
-0.014025
-0.093586
-0.023008
-0.124483
-0.099545
0.001055
-0.044240
-0.064498
-0.096671
-0.011061
-0.097277
0.002352
-0.090875
0.034505
-0.065474
-0.099687
-0.015605
-0.004450
-0.092430
-0.066336
0.005018
-0.070380
-0.079692
0.006124
-0.030631
-0.123033
0.032047
0.004377
-0.058838
-0.102104
-0.038123
-0.014984
0.020296
-0.002069
0.001973
-0.111103
0.027661
0.000727
0.001343
-0.008973
-0.030779
0.000827
-0.085261
-0.121814
-0.039873
0.000757
-0.076133
-0.097585
-0.019862
0.018519
-0.062322
-0.028978
-0.112543
-0.108771
-0.005120
-0.096867
-0.088393
-0.097402
-0.028011
-0.076669
-0.108720
-0.030970
0.034654
-0.102758
-0.000889
-0.035256
-0.043291
-0.070788
-0.066862
-0.062245
-0.045763
-0.059864
-0.047417
-0.025139
-0.059988
-0.020516
-0.056966
-0.014628
-0.015789
-0.045383
-0.068709
-0.012187
0.000139
-0.100207
-0.052677
-0.055033
-0.093738
-0.101063
-0.116337
-0.008590
-0.043367
-0.125331
-0.068734
-0.096046
-0.104380
-0.057385
-0.034844
-0.054258
-0.094641
-0.053449
-0.085712
-0.012695
-0.014698
-0.070432
-0.067197
-0.042489
-0.042171
0.025565
-0.118351
-0.088724
-0.002250
-0.001104
-0.109735
-0.030044
-0.008521
-0.087267
-0.043762
-0.099705
-0.068816
-0.096427
-0.079374
0.027737
0.008293
-0.098856
-0.036295
-0.026170
-0.122546
-0.048753
0.033876
-0.066847
-0.118040
0.003711
-0.048302
-0.104045
-0.020309
0.000758
0.001628
-0.087029
-0.092209
0.001006
-0.104088
-0.013678
0.031288
-0.002982
-0.058284
-0.016397
-0.000214
-0.015537
0.000994
0.035499
-0.005997
-0.001814
0.007528
-0.091351
-0.044313
0.015615
-0.099946
-0.098865
-0.015327
-0.074462
-0.102096
-0.015233
-0.100108
-0.101211
-0.092464
0.000498
-0.017104
-0.098379
0.001057
-0.024398
-0.094256
-0.095141
-0.100706
-0.004553
-0.107952
-0.043950
-0.057650
-0.107486
0.019343
0.008807
-0.038950
-0.091209
-0.007590
-0.069631
-0.061378
-0.040382
0.001061
-0.033504
-0.045683
-0.045783
-0.034473
-0.124678
-0.035202
-0.097277
-0.096414
-0.056186
-0.058068
-0.028253
-0.065052
-0.061208
-0.068089
-0.001193
-0.016689
-0.025777
-0.056940
-0.092783
-0.020454
-0.063314
-0.097011
-0.041725
-0.116496
-0.069983
-0.015107
-0.047483
-0.039404
-0.069052
-0.082619
-0.040879
-0.093463
-0.007199
-0.016839
-0.050704
-0.053242
-0.076547
-0.102814
-0.051101
-0.014046
-0.065267
-0.121176
-0.045915
-0.070937
-0.066106
-0.040505
-0.040253
-0.085358
-0.074042
-0.095570
-0.046985
-0.035354
0.007500
-0.004015
-0.084942
-0.007748
-0.032958
-0.043930
-0.103673
-0.006685
-0.012717
-0.043769
-0.119029
-0.068763
-0.099631
-0.062004
-0.094381
-0.098185
-0.113054
-0.067945
0.001208
0.000376
0.001421
-0.041039
-0.098257
-0.111502
-0.042964
0.030385
-0.026999
-0.120846
-0.015834
-0.016031
-0.094507
-0.099741
-0.017824
-0.089531
0.021449
-0.002836
-0.070235
-0.093257
-0.062614
-0.021955
-0.028310
-0.060922
-0.087823
-0.038033
-0.038792
-0.000150
0.002278
-0.088536
0.020610
-0.020955
0.002782
-0.083249
-0.099532
-0.005981
0.000942
-0.035099
-0.074141
-0.029304
0.032418
0.013930
-0.058993
-0.008187
0.007948
-0.038826
-0.092554
-0.049144
0.029358
-0.106231
-0.031422
-0.091876
-0.060515
-0.115357
-0.002362
-0.102024
-0.054279
-0.064849
-0.043777
-0.062646
-0.058806
-0.069457
-0.093446
-0.095624
-0.065816
-0.008815
-0.121622
-0.069624
-0.055176
-0.080141
-0.056977
-0.040366
-0.044701
-0.016408
-0.021733
-0.055238
-0.093395
-0.043468
-0.002604
-0.001732
0.037947
-0.017843
-0.048667
-0.039122
-0.046064
-0.017684
-0.015885
-0.099551
-0.048512
-0.116725
-0.032865
-0.097805
-0.096804
-0.009144
-0.047924
-0.050738
-0.061777
0.017737
-0.038414
-0.038467
-0.048134
-0.111784
-0.102223
-0.006682
-0.002634
-0.039192
-0.082241
-0.000606
-0.095553
0.006512
-0.009410
-0.039407
-0.042012
-0.011458
-0.008273
-0.038313
-0.114233
-0.095577
0.028388
-0.015613
-0.004436
-0.096181
-0.083787
-0.041015
-0.052417
-0.092787
-0.076067
-0.085302
0.011524
0.000977
-0.107015
-0.052507
-0.011830
-0.104631
0.034054
-0.031669
-0.088699
-0.021830
-0.070287
-0.006136
-0.041970
-0.098239
-0.095185
-0.087146
0.005596
-0.069085
-0.057579
-0.099581
-0.087961
-0.009907
-0.091025
0.002254
-0.095509
-0.071139
0.001385
-0.043197
-0.001689
0.023381
-0.042616
-0.042527
-0.005476
-0.031341
-0.090226
-0.005858
-0.034516
-0.103033
-0.099571
-0.011991
-0.043520
0.017016
0.000765
-0.088740
0.021341
-0.066180
-0.116517
-0.119143
-0.092431
-0.035974
-0.029601
0.004233
-0.071777
-0.043829
-0.004175
-0.031489
-0.057359
-0.042784
-0.040866
-0.041256
-0.037307
-0.044011
0.033034
-0.025752
-0.065829
-0.052176
-0.049244
-0.063979
-0.056590
-0.058536
-0.096830
-0.018766
-0.019358
-0.070746
-0.063350
-0.060444
-0.067540
-0.038997
-0.077916
-0.056848
-0.067767
-0.026100
-0.017192
-0.096876
-0.070347
-0.018738
-0.092566
-0.005553
-0.054190
-0.052781
-0.019486
-0.115032
-0.098467
0.035006
-0.093584
-0.099453
-0.094840
-0.043265
-0.099047
0.013181
-0.045680
-0.045617
-0.071831
0.010610
-0.063256
-0.080730
-0.037952
-0.098811
-0.110389
-0.074513
-0.041730
-0.094143
-0.007056
-0.002291
-0.098021
-0.009173
-0.055350
-0.012508
-0.091614
-0.099693
-0.113589
-0.068602
-0.014921
-0.028778
-0.026330
0.001030
-0.040199
-0.021322
0.001765
-0.089662
-0.095491
-0.041410
-0.098439
-0.096505
-0.041144
-0.003414
-0.052737
-0.041650
0.030732
0.025614
-0.036612
-0.095152
-0.039090
-0.082847
-0.054430
0.003128
-0.070336
-0.005916
-0.007814
-0.074360
-0.079781
-0.015410
-0.087458
-0.083754
-0.010570
-0.038636
-0.048007
-0.101830
-0.080839
-0.007092
0.027743
-0.050117
0.008622
0.017778
-0.092210
-0.082857
-0.070848
-0.011254
-0.064615
-0.041393
-0.005629
-0.118857
-0.110284
0.013943
-0.107929
-0.057590
-0.043344
0.000103
0.005889
-0.036758
-0.092858
-0.092445
-0.115724
-0.041287
-0.042299
-0.097528
-0.096892
-0.048919
0.030294
-0.046344
0.000163
-0.054973
-0.105523
-0.061935
-0.041357
-0.029409
-0.039538
-0.046452
-0.049141
-0.018020
-0.004478
-0.067054
-0.039600
-0.036729
0.008103
-0.064236
-0.054875
-0.017935
-0.066398
-0.061618
-0.071679
-0.058893
-0.008108
-0.008259
-0.039059
-0.069542
-0.007617
-0.020672
-0.096234
-0.023074
-0.071405
-0.056589
-0.097814
-0.071614
-0.041012
-0.042573
-0.040745
-0.055386
-0.019743
-0.040903
-0.003733
0.004281
-0.095369
-0.057176
-0.093244
-0.024195
-0.091155
-0.033997
-0.089373
-0.084757
-0.089175
-0.046457
-0.044076
0.026111
-0.071793
0.008773
-0.050854
-0.079032
-0.036356
-0.072341
-0.011877
-0.042194
-0.007199
-0.054686
-0.095264
0.008241
-0.029106
-0.010801
-0.068296
-0.013763
-0.036920
-0.111516
-0.083859
-0.059629
-0.039082
-0.102998
0.002417
-0.012700
-0.069378
-0.116471
-0.006881
-0.054910
0.001083
-0.093673
-0.104157
-0.090603
-0.094356
-0.050085
-0.040175
-0.037604
0.004490
-0.060032
-0.011641
-0.037172
-0.043722
-0.041942
-0.072885
-0.110680
-0.013263
-0.079612
-0.077251
-0.016313
-0.115737
-0.004018
-0.016893
0.028371
-0.083171
-0.079118
-0.098554
-0.073025
-0.044478
0.001432
-0.056811
-0.089665
-0.094383
0.018267
0.005898
-0.039869
-0.086877
-0.094577
-0.010817
-0.025692
-0.045640
-0.007434
-0.107675
0.014300
-0.005119
-0.038939
-0.006149
0.019703
0.000587
0.024857
-0.100906
0.005532
-0.009275
-0.055187
-0.058136
-0.016702
-0.042139
-0.088790
-0.089673
-0.001014
-0.047117
-0.046774
-0.011138
-0.041117
-0.039970
-0.033798
-0.052134
-0.051583
-0.039557
-0.068478
-0.046152
-0.040299
-0.064705
-0.065195
-0.096968
-0.094343
-0.096289
-0.056516
-0.044100
-0.063227
-0.045916
-0.059991
-0.072648
-0.011515
-0.068428
-0.000965
-0.026398
-0.037135
-0.039327
-0.070711
-0.071211
-0.082555
-0.098647
-0.060382
-0.039232
-0.087396
-0.021490
-0.019239
-0.023211
-0.021104
-0.094791
0.005465
-0.092538
-0.041785
-0.040982
-0.092214
-0.091399
-0.014370
0.020815
-0.068782
-0.049691
-0.099596
-0.075198
-0.009689
-0.015911
-0.091240
-0.010230
-0.070852
-0.033229
-0.007102
0.005709
-0.091970
-0.097833
-0.015406
-0.016252
-0.048615
-0.014911
-0.023884
-0.112134
-0.113560
-0.083444
-0.107430
-0.011170
0.014578
-0.002673
-0.022711
0.000548
0.001732
-0.088153
-0.038351
-0.035234
-0.095882
-0.028929
-0.023912
-0.057697
-0.000786
0.025387
0.022773
0.012071
-0.093561
-0.096568
-0.085767
-0.044335
-0.046756
-0.052309
-0.096146
-0.009811
-0.079109
-0.013611
-0.094067
-0.081752
-0.037472
-0.012466
-0.042429
0.011252
0.004075
-0.010834
-0.098193
-0.019074
-0.091309
-0.038723
-0.000321
-0.026637
-0.004049
-0.014189
-0.077285
-0.058349
-0.070583
-0.039316
-0.055087
-0.088317
-0.051874
-0.040336
0.004392
-0.064487
-0.090714
-0.052269