# vtk DataFile Version 2.0
Test
ASCII
DATASET POLYDATA
POINTS 4677 float
0.000000 0.000000 0.000000
0.080000 0.000000 0.000000
0.080000 0.160000 0.000000
0.000000 0.160000 0.000000
0.036000 0.073072 0.000000
0.044000 0.086928 0.000000
0.024500 0.065566 0.000000
0.055500 0.093560 0.000000
0.001000 0.050000 0.000000
0.079000 0.110000 0.000000
0.002963 0.000000 0.000000
0.005926 0.000000 0.000000
0.008889 0.000000 0.000000
0.011852 0.000000 0.000000
0.014815 0.000000 0.000000
0.017778 0.000000 0.000000
0.020741 0.000000 0.000000
0.023704 0.000000 0.000000
0.026667 0.000000 0.000000
0.029630 0.000000 0.000000
0.032593 0.000000 0.000000
0.035556 0.000000 0.000000
0.038519 0.000000 0.000000
0.041481 0.000000 0.000000
0.044444 0.000000 0.000000
0.047407 0.000000 0.000000
0.050370 0.000000 0.000000
0.053333 0.000000 0.000000
0.056296 0.000000 0.000000
0.059259 0.000000 0.000000
0.062222 0.000000 0.000000
0.065185 0.000000 0.000000
0.068148 0.000000 0.000000
0.071111 0.000000 0.000000
0.074074 0.000000 0.000000
0.077037 0.000000 0.000000
0.080000 0.002963 0.000000
0.080000 0.005926 0.000000
0.080000 0.008889 0.000000
0.080000 0.011852 0.000000
0.080000 0.014815 0.000000
0.080000 0.017778 0.000000
0.080000 0.020741 0.000000
0.080000 0.023704 0.000000
0.080000 0.026667 0.000000
0.080000 0.029630 0.000000
0.080000 0.032593 0.000000
0.080000 0.035556 0.000000
0.080000 0.038519 0.000000
0.080000 0.041481 0.000000
0.080000 0.044444 0.000000
0.080000 0.047407 0.000000
0.080000 0.050370 0.000000
0.080000 0.053333 0.000000
0.080000 0.056296 0.000000
0.080000 0.059259 0.000000
0.080000 0.062222 0.000000
0.080000 0.065185 0.000000
0.080000 0.068148 0.000000
0.080000 0.071111 0.000000
0.080000 0.074074 0.000000
0.080000 0.077037 0.000000
0.080000 0.080000 0.000000
0.080000 0.082963 0.000000
0.080000 0.085926 0.000000
0.080000 0.088889 0.000000
0.080000 0.091852 0.000000
0.080000 0.094815 0.000000
0.080000 0.097778 0.000000
0.080000 0.100741 0.000000
0.080000 0.103704 0.000000
0.080000 0.106667 0.000000
0.080000 0.109630 0.000000
0.080000 0.112593 0.000000
0.080000 0.115556 0.000000
0.080000 0.118519 0.000000
0.080000 0.121481 0.000000
0.080000 0.124444 0.000000
0.080000 0.127407 0.000000
0.080000 0.130370 0.000000
0.080000 0.133333 0.000000
0.080000 0.136296 0.000000
0.080000 0.139259 0.000000
0.080000 0.142222 0.000000
0.080000 0.145185 0.000000
0.080000 0.148148 0.000000
0.080000 0.151111 0.000000
0.080000 0.154074 0.000000
0.080000 0.157037 0.000000
0.077037 0.160000 0.000000
0.074074 0.160000 0.000000
0.071111 0.160000 0.000000
0.068148 0.160000 0.000000
0.065185 0.160000 0.000000
0.062222 0.160000 0.000000
0.059259 0.160000 0.000000
0.056296 0.160000 0.000000
0.053333 0.160000 0.000000
0.050370 0.160000 0.000000
0.047407 0.160000 0.000000
0.044444 0.160000 0.000000
0.041481 0.160000 0.000000
0.038519 0.160000 0.000000
0.035556 0.160000 0.000000
0.032593 0.160000 0.000000
0.029630 0.160000 0.000000
0.026667 0.160000 0.000000
0.023704 0.160000 0.000000
0.020741 0.160000 0.000000
0.017778 0.160000 0.000000
0.014815 0.160000 0.000000
0.011852 0.160000 0.000000
0.008889 0.160000 0.000000
0.005926 0.160000 0.000000
0.002963 0.160000 0.000000
0.000000 0.157037 0.000000
0.000000 0.154074 0.000000
0.000000 0.151111 0.000000
0.000000 0.148148 0.000000
0.000000 0.145185 0.000000
0.000000 0.142222 0.000000
0.000000 0.139259 0.000000
0.000000 0.136296 0.000000
0.000000 0.133333 0.000000
0.000000 0.130370 0.000000
0.000000 0.127407 0.000000
0.000000 0.124444 0.000000
0.000000 0.121481 0.000000
0.000000 0.118519 0.000000
0.000000 0.115556 0.000000
0.000000 0.112593 0.000000
0.000000 0.109630 0.000000
0.000000 0.106667 0.000000
0.000000 0.103704 0.000000
0.000000 0.100741 0.000000
0.000000 0.097778 0.000000
0.000000 0.094815 0.000000
0.000000 0.091852 0.000000
0.000000 0.088889 0.000000
0.000000 0.085926 0.000000
0.000000 0.082963 0.000000
0.000000 0.080000 0.000000
0.000000 0.077037 0.000000
0.000000 0.074074 0.000000
0.000000 0.071111 0.000000
0.000000 0.068148 0.000000
0.000000 0.065185 0.000000
0.000000 0.062222 0.000000
0.000000 0.059259 0.000000
0.000000 0.056296 0.000000
0.000000 0.053333 0.000000
0.000000 0.050370 0.000000
0.000000 0.047407 0.000000
0.000000 0.044444 0.000000
0.000000 0.041481 0.000000
0.000000 0.038519 0.000000
0.000000 0.035556 0.000000
0.000000 0.032593 0.000000
0.000000 0.029630 0.000000
0.000000 0.026667 0.000000
0.000000 0.023704 0.000000
0.000000 0.020741 0.000000
0.000000 0.017778 0.000000
0.000000 0.014815 0.000000
0.000000 0.011852 0.000000
0.000000 0.008889 0.000000
0.000000 0.005926 0.000000
0.000000 0.002963 0.000000
0.035500 0.072746 0.000000
0.035000 0.072419 0.000000
0.034500 0.072093 0.000000
0.034000 0.071767 0.000000
0.033500 0.071440 0.000000
0.033000 0.071114 0.000000
0.032500 0.070788 0.000000
0.032000 0.070461 0.000000
0.031500 0.070135 0.000000
0.031000 0.069809 0.000000
0.030500 0.069482 0.000000
0.030000 0.069156 0.000000
0.029500 0.068829 0.000000
0.029000 0.068503 0.000000
0.028500 0.068177 0.000000
0.028000 0.067850 0.000000
0.027500 0.067524 0.000000
0.027000 0.067198 0.000000
0.026500 0.066871 0.000000
0.026000 0.066545 0.000000
0.025500 0.066219 0.000000
0.025000 0.065892 0.000000
0.044500 0.087216 0.000000
0.045000 0.087505 0.000000
0.045500 0.087793 0.000000
0.046000 0.088081 0.000000
0.046500 0.088370 0.000000
0.047000 0.088658 0.000000
0.047500 0.088946 0.000000
0.048000 0.089235 0.000000
0.048500 0.089523 0.000000
0.049000 0.089811 0.000000
0.049500 0.090100 0.000000
0.050000 0.090388 0.000000
0.050500 0.090677 0.000000
0.051000 0.090965 0.000000
0.051500 0.091253 0.000000
0.052000 0.091542 0.000000
0.052500 0.091830 0.000000
0.053000 0.092118 0.000000
0.053500 0.092407 0.000000
0.054000 0.092695 0.000000
0.054500 0.092983 0.000000
0.055000 0.093272 0.000000
0.043704 0.086415 0.000000
0.043407 0.085902 0.000000
0.043111 0.085388 0.000000
0.042815 0.084875 0.000000
0.042519 0.084362 0.000000
0.042222 0.083849 0.000000
0.041926 0.083336 0.000000
0.041630 0.082823 0.000000
0.041333 0.082309 0.000000
0.041037 0.081796 0.000000
0.040741 0.081283 0.000000
0.040444 0.080770 0.000000
0.040148 0.080257 0.000000
0.039852 0.079743 0.000000
0.039556 0.079230 0.000000
0.039259 0.078717 0.000000
0.038963 0.078204 0.000000
0.038667 0.077691 0.000000
0.038370 0.077177 0.000000
0.038074 0.076664 0.000000
0.037778 0.076151 0.000000
0.037481 0.075638 0.000000
0.037185 0.075125 0.000000
0.036889 0.074612 0.000000
0.036593 0.074098 0.000000
0.036296 0.073585 0.000000
0.024000 0.065235 0.000000
0.023500 0.064904 0.000000
0.023000 0.064572 0.000000
0.022500 0.064241 0.000000
0.022000 0.063910 0.000000
0.021500 0.063579 0.000000
0.021000 0.063248 0.000000
0.020500 0.062916 0.000000
0.020000 0.062585 0.000000
0.019500 0.062254 0.000000
0.019000 0.061923 0.000000
0.018500 0.061592 0.000000
0.018000 0.061261 0.000000
0.017500 0.060929 0.000000
0.017000 0.060598 0.000000
0.016500 0.060267 0.000000
0.016000 0.059936 0.000000
0.015500 0.059605 0.000000
0.015000 0.059273 0.000000
0.014500 0.058942 0.000000
0.014000 0.058611 0.000000
0.013500 0.058280 0.000000
0.013000 0.057949 0.000000
0.012500 0.057617 0.000000
0.012000 0.057286 0.000000
0.011500 0.056955 0.000000
0.011000 0.056624 0.000000
0.010500 0.056293 0.000000
0.010000 0.055961 0.000000
0.009500 0.055630 0.000000
0.009000 0.055299 0.000000
0.008500 0.054968 0.000000
0.008000 0.054637 0.000000
0.007500 0.054305 0.000000
0.007000 0.053974 0.000000
0.006500 0.053643 0.000000
0.006000 0.053312 0.000000
0.005500 0.052981 0.000000
0.005000 0.052650 0.000000
0.004500 0.052318 0.000000
0.004000 0.051987 0.000000
0.003500 0.051656 0.000000
0.003000 0.051325 0.000000
0.002500 0.050994 0.000000
0.002000 0.050662 0.000000
0.001500 0.050331 0.000000
0.055990 0.093902 0.000000
0.056479 0.094245 0.000000
0.056969 0.094587 0.000000
0.057458 0.094930 0.000000
0.057948 0.095272 0.000000
0.058437 0.095615 0.000000
0.058927 0.095957 0.000000
0.059417 0.096300 0.000000
0.059906 0.096642 0.000000
0.060396 0.096985 0.000000
0.060885 0.097327 0.000000
0.061375 0.097670 0.000000
0.061865 0.098012 0.000000
0.062354 0.098355 0.000000
0.062844 0.098697 0.000000
0.063333 0.099040 0.000000
0.063823 0.099382 0.000000
0.064312 0.099725 0.000000
0.064802 0.100067 0.000000
0.065292 0.100410 0.000000
0.065781 0.100752 0.000000
0.066271 0.101095 0.000000
0.066760 0.101437 0.000000
0.067250 0.101780 0.000000
0.067740 0.102122 0.000000
0.068229 0.102465 0.000000
0.068719 0.102807 0.000000
0.069208 0.103150 0.000000
0.069698 0.103492 0.000000
0.070187 0.103835 0.000000
0.070677 0.104177 0.000000
0.071167 0.104520 0.000000
0.071656 0.104862 0.000000
0.072146 0.105205 0.000000
0.072635 0.105547 0.000000
0.073125 0.105890 0.000000
0.073615 0.106232 0.000000
0.074104 0.106575 0.000000
0.074594 0.106917 0.000000
0.075083 0.107260 0.000000
0.075573 0.107602 0.000000
0.076062 0.107945 0.000000
0.076552 0.108287 0.000000
0.077042 0.108630 0.000000
0.077531 0.108972 0.000000
0.078021 0.109315 0.000000
0.078510 0.109658 0.000000
0.043942 0.087469 0.000000
0.035556 0.157037 0.000000
0.044420 0.002920 0.000000
0.077037 0.038519 0.000000
0.002963 0.121481 0.000000
0.077037 0.059259 0.000000
0.002963 0.109630 0.000000
0.002923 0.098139 0.000000
0.077153 0.126913 0.000000
0.002808 0.032596 0.000000
0.077140 0.071061 0.000000
0.002963 0.085926 0.000000
0.002963 0.136296 0.000000
0.077041 0.023701 0.000000
0.056296 0.157037 0.000000
0.032593 0.002963 0.000000
0.077037 0.080000 0.000000
0.002813 0.077135 0.000000
0.077037 0.142222 0.000000
0.017778 0.157037 0.000000
0.062222 0.002963 0.000000
0.076992 0.088722 0.000000
0.002945 0.020743 0.000000
0.017777 0.002962 0.000000
0.002801 0.068434 0.000000
0.002959 0.011851 0.000000
0.065186 0.157038 0.000000
0.002963 0.148148 0.000000
0.077037 0.011852 0.000000
0.076887 0.094740 0.000000
0.077092 0.115875 0.000000
0.002677 0.044265 0.000000
0.077038 0.148148 0.000000
0.002985 0.062165 0.000000
0.077037 0.047407 0.000000
0.011852 0.002963 0.000000
[...]
POINT_DATA 4677
SCALARS UX float 1
LOOKUP_TABLE default
-0.000002
0.000002
0.075991
-0.026559
-0.004950
-0.002962
-0.047248
0.065243
-0.066285
0.098531
-0.000000
-0.000000
-0.000000
-0.000000
-0.000000
-0.000000
-0.000000
-0.000000
-0.000000
-0.000000
-0.000000
-0.000000
-0.000000
0.000000
0.000000
0.000000
0.000000
0.000000
0.000000
0.000000
0.000000
0.000000
0.000000
0.000000
0.000000
-0.000000
0.008375
0.013138
0.016865
0.020062
0.022967
0.025795
0.028566
0.030932
0.033809
0.035530
0.036778
0.038735
0.041013
0.043424
0.046000
0.049080
0.052228
0.055524
0.058507
0.060883
0.063540
0.065696
0.067770
0.071220
0.075492
0.079977
0.083615
0.086934
0.087315
0.088736
0.090821
0.093876
0.096730
0.099482
0.101213
0.101281
0.099723
0.097536
0.096863
0.095283
0.095329
0.086636
0.082709
0.079809
0.077736
0.076129
0.075350
0.075446
0.077121
0.076154
0.076385
0.076124
0.076099
0.072235
0.068463
0.064581
0.060579
0.056419
0.052198
0.048005
0.043968
0.040065
0.036241
0.032451
0.028656
0.024917
0.021306
0.017793
0.014305
0.010816
0.007303
0.003760
0.000174
-0.003467
-0.007171
-0.010937
-0.014767
-0.018674
-0.022581
-0.026671
-0.026904
-0.027275
-0.027784
-0.028431
-0.029215
-0.030136
-0.031191
-0.032342
-0.033644
-0.034977
-0.036531
-0.038198
-0.040061
-0.042113
-0.044358
-0.046822
-0.049575
-0.052122
-0.054401
-0.056675
-0.059398
-0.062433
-0.064980
-0.066372
-0.067754
-0.070364
-0.074298
-0.080227
-0.082916
-0.083485
-0.083202
-0.081611
-0.079337
-0.075992
-0.072153
-0.067955
-0.063759
-0.059717
-0.055949
-0.052484
-0.049367
-0.046417
-0.043679
-0.041246
-0.038944
-0.036415
-0.033672
-0.030225
-0.026309
-0.022140
-0.017356
-0.011555
-0.007611
-0.013931
-0.011307
-0.010008
-0.011121
-0.014358
-0.015852
-0.022465
-0.029954
-0.026653
-0.025673
-0.027989
-0.022474
-0.025888
-0.027726
-0.030212
-0.032814
-0.035160
-0.038035
-0.040610
-0.043111
-0.045886
-0.003072
0.006963
0.007398
0.009630
0.013179
0.007666
0.011252
0.016920
0.018566
0.022938
0.026993
0.030836
0.036858
0.039788
0.043365
0.046834
0.046876
0.051386
0.052761
0.053872
0.057356
0.064308
-0.003871
-0.006780
-0.008675
-0.009573
-0.009787
-0.009896
-0.010028
-0.010375
-0.010562
-0.010615
-0.010309
-0.009886
-0.008766
-0.007669
-0.005629
-0.005394
-0.008244
-0.009843
-0.010421
-0.009949
-0.009147
-0.008403
-0.007208
-0.006082
-0.005563
-0.005654
-0.049373
-0.050503
-0.051228
-0.051716
-0.052264
-0.052916
-0.053540
-0.054250
-0.055055
-0.055984
-0.056934
-0.057870
-0.058836
-0.059688
-0.060474
-0.061167
-0.061765
-0.062283
-0.062692
-0.063046
-0.063338
-0.063573
-0.063756
-0.063905
-0.064045
-0.064169
-0.064286
-0.064401
-0.064521
-0.064635
-0.064752
-0.064869
-0.064979
-0.065090
-0.065198
-0.065302
-0.065402
-0.065498
-0.065593
-0.065685
-0.065774
-0.065862
-0.065955
-0.066044
-0.066130
-0.066211
0.064657
0.065285
0.065944
0.066409
0.066585
0.066893
0.067297
0.067828
0.068460
0.069162
0.069899
0.070643
0.071416
0.072129
0.073162
0.074160
0.075176
0.076256
0.077488
0.078523
0.079752
0.081181
0.082588
0.084073
0.085466
0.086834
0.088347
0.089544
0.090743
0.091718
0.092586
0.093359
0.093923
0.094563
0.095080
0.095552
0.095972
0.096333
0.096642
0.096900
0.097146
0.097362
0.097546
0.097758
0.097958
0.098177
0.098359
-0.000236
0.017735
0.000506
0.037556
-0.034061
0.057909
-0.042771
-0.052961
0.077256
-0.043120
0.066435
-0.062349
-0.027094
0.027246
0.043981
-0.000096
0.080155
-0.069929
0.071526
-0.003528
0.001758
0.083207
-0.033135
-0.001901
-0.080427
-0.023194
0.056571
-0.023732
0.017078
0.089934
0.091532
-0.056251
0.071740
-0.078871
0.046130
-0.003192
0.064617
-0.018675
0.003638
-0.075356
0.096530
0.072581
0.024929
0.032456
-0.000514
-0.029488
0.030764
0.003714
0.001265
0.072164
0.088324
-0.052188
-0.002558
0.083526
-0.048975
-0.074336
-0.075211
0.081854
-0.058155
-0.064005
0.062079
0.070600
0.052652
-0.048572
0.098834
-0.038003
-0.040272
-0.037869
0.039965
0.010800
0.071807
0.000874
0.000335
-0.030900
0.032763
0.000167
-0.030210
-0.000964
0.048137
0.036224
-0.025141
0.022510
-0.018927
-0.004019
-0.012541
-0.011004
0.002500
0.072297
-0.005895
-0.006176
-0.022867
0.009893
-0.022642
0.004926
0.097082
-0.004285
-0.064493
-0.068528
0.099083
-0.001711
0.000681
0.034105
0.064863
-0.037417
-0.060342
0.080647
0.036240
-0.025532
0.067095
-0.001576
-0.050330
-0.026799
-0.074963
0.075832
0.095767
0.043817
-0.019875
-0.006866
-0.011005
0.067943
-0.018891
0.007485
0.094711
-0.060743
0.093463
-0.080606
0.086855
-0.079123
-0.067342
0.082471
0.080722
-0.046796
0.098998
-0.066459
0.075653
-0.060492
-0.055309
0.064203
0.060014
-0.051097
-0.045528
0.055672
-0.040320
0.049395
0.074567
0.042893
-0.035956
0.021288
-0.032439
0.035202
0.014305
0.000681
0.028721
-0.035626
0.007280
0.001051
0.000041
0.071314
-0.028233
0.028967
0.040056
-0.000301
0.000126
0.001486
-0.026906
-0.001385
0.052341
-0.026044
0.025118
-0.002511
-0.024369
0.019877
0.060679
0.072320
-0.007229
0.002073
0.068433
0.072169
-0.014806
0.003024
-0.023231
0.013819
-0.065038
0.097642
0.097277
-0.071118
-0.065012
0.004358
-0.006240
0.099659
-0.071316
0.083591
-0.048772
-0.000645
-0.002810
-0.000855
0.056587
-0.053125
-0.041680
0.077947
-0.048837
0.014255
-0.000033
-0.073720
0.002109
0.025163
0.083275
-0.022019
-0.007391
0.090672
0.016903
-0.020368
0.004285
0.096143
-0.063439
0.071450
0.052693
-0.036358
0.046365
-0.031985
0.028637
-0.024274
0.052701
-0.003272
-0.005486
-0.019248
0.060893
0.068402
-0.063265
0.096215
-0.056930
0.090499
0.074631
-0.077891
0.076080
-0.063284
-0.069276
0.079412
0.077087
-0.047950
0.098195
-0.042960
-0.045608
-0.053286
0.060597
0.061720
-0.056745
0.031845
-0.000009
0.000341
-0.035152
0.039989
0.036947
0.001377
0.001012
-0.058385
0.068856
0.032531
0.007153
0.040026
-0.028565
-0.027057
0.067095
0.067320
0.067691
0.021138
-0.032511
-0.000811
0.048256
-0.023557
-0.002298
0.021592
0.003013
-0.029689
-0.015962
-0.008580
0.068419
-0.014982
0.006010
0.011097
-0.039670
-0.005608
0.000472
0.096598
-0.064239
-0.067002
0.097881
-0.064733
0.098420
-0.008864
0.004350
-0.005222
0.001663
-0.000790
0.000539
0.033486
0.057744
-0.052696
0.029094
-0.024619
-0.036187
0.061967
0.072633
-0.001721
0.040516
-0.028837
-0.023350
-0.008570
-0.062305
0.095060
0.068654
-0.000266
-0.069494
0.029698
0.001515
0.062462
-0.004054
0.049287
0.063533
-0.021607
-0.015332
0.009024
-0.006795
-0.076675
0.085923
-0.040587
-0.076800
-0.044856
-0.065541
-0.054588
-0.051054
0.026836
0.058197
0.084504
0.054951
-0.038743
0.049407
0.068425
-0.033946
0.070444
0.080200
-0.055162
0.024523
-0.000357
0.010828
-0.023026
0.043195
0.001725
0.003647
-0.031429
0.032508
0.028223
-0.030178
0.002537
-0.003655
0.066760
0.023591
-0.020198
-0.012896
0.019345
0.064565
0.056911
-0.004294
-0.021130
0.003574
0.017696
-0.011129
-0.019741
0.064667
0.014191
0.005068
-0.046670
0.075209
-0.051784
-0.008937
-0.067848
-0.004567
0.001976
0.098106
-0.059364
0.092657
-0.010650
0.009719
0.096913
-0.066854
-0.061543
0.098079
0.094600
0.006169
0.003230
0.003372
-0.064853
-0.054622
-0.004855
0.003989
0.052845
-0.044666
-0.049380
-0.036783
0.070329
0.028954
-0.063820
-0.049577
0.007149
0.080307
-0.018075
0.003179
0.021535
-0.027886
-0.075133
-0.003999
-0.034877
0.005378
0.016373
0.045959
0.000129
0.090368
0.021351
-0.029782
-0.026381
0.062432
-0.020150
-0.006890
0.011762
-0.011488
0.059279
-0.057414
0.079871
0.063479
-0.071875
-0.049885
-0.057173
-0.050753
-0.000625
0.055927
0.025496
-0.041092
0.036391
0.025712
0.001005
-0.043520
0.071770
0.061871
-0.060900
0.076594
0.070724
0.036762
0.042994
0.062783
-0.034059
-0.020307
0.003262
-0.002853
0.030537
-0.026425
0.044589
-0.005408
0.056924
0.003808
0.014115
0.053613
0.061039
-0.023037
0.019829
-0.016724
0.064200
-0.010566
0.002044
-0.017205
-0.015816
0.006357
0.007530
-0.046330
-0.000287
-0.004368
0.007701
-0.063217
-0.064643
0.095820
0.096643
-0.011227
-0.066581
-0.008638
0.097043
-0.077956
0.004780
0.085751
0.074753
0.066097
0.063783
-0.052896
-0.060049
-0.008543
0.014255
0.093054
-0.011159
0.012398
0.029957
0.052959
-0.022989
0.001334
0.066347
-0.047323
0.056843
0.074181
0.074393
0.040002
-0.017750
0.006346
-0.002786
-0.055818
0.058328
0.004192
0.018749
0.091509
0.048357
-0.014182
-0.011968
-0.000126
-0.030026
0.022853
0.066569
0.054525
-0.007671
0.007041
-0.023223
-0.013950
0.009827
-0.005893
0.082927
-0.047516
0.049255
-0.007798
-0.033669
-0.000149
-0.047497
0.039483
0.054231
0.023920
0.067284
-0.037272
0.014646
-0.032365
0.002053
-0.027858
0.056819
0.035468
-0.060429
0.077842
0.063415
-0.073864
0.060082
0.002568
0.071917
-0.051338
-0.025617
-0.043700
-0.020858
0.024865
-0.017103
0.017632
0.060133
-0.000315
0.018159
-0.004331
0.057546
0.004520
-0.019082
0.032249
-0.009566
0.058740
0.010653
0.014214
-0.016435
-0.007707
0.023133
0.096241
-0.064733
-0.002696
-0.075829
-0.058632
0.000970
0.007814
-0.012394
-0.012787
-0.011662
-0.007729
-0.051035
-0.007296
0.007416
0.014304
-0.046161
-0.067968
-0.059148
-0.066386
0.058336
0.051126
0.096239
0.078510
0.070157
-0.061190
-0.066340
0.096673
0.010349
0.094183
-0.063907
-0.040203
0.097577
0.096641
0.011341
-0.004929
0.003648
-0.034440
-0.046097
0.063919
0.025043
-0.018970
-0.060105
0.001834
-0.033670
0.019737
-0.048992
0.077603
-0.003809
0.071530
-0.025354
0.052208
0.036121
-0.057323
-0.073290
-0.000788
0.093506
0.050756
0.058709
0.039325
0.017204
-0.005187
0.053579
-0.028831
-0.019831
0.010006
0.003397
-0.009917
0.056486
0.015232
-0.068501
0.005966
-0.015233
0.011917
-0.012604
-0.014422
0.007086
-0.044209
-0.057486
-0.053635
-0.040560
0.047103
0.051808
-0.043807
-0.043938
0.021184
0.069260
0.000630
-0.075884
0.053542
-0.025010
0.002695
-0.001337
-0.066468
-0.019182
0.062629
0.057513
0.095489
0.031777
-0.005900
-0.014368
0.052408
0.055952
0.033167
0.044568
0.005000
-0.016476
0.016505
0.059451
0.027215
-0.013373
0.095774
0.020433
0.002821
0.008302
-0.011570
0.096640
-0.008203
-0.064195
0.078426
0.095641
0.087681
-0.011944
0.016875
-0.059687
-0.063226
0.058466
-0.054150
-0.000661
0.076490
0.008087
-0.004020
-0.013633
0.012972
-0.008010
-0.011632
-0.045729
0.002287
0.096091
-0.004505
0.014476
0.097291
-0.067820
-0.037011
-0.064553
0.095981
0.010959
-0.064409
0.061917
-0.032287
0.012711
-0.007205
0.052989
0.007975
0.048348
0.050589
-0.043102
-0.041017
0.061151
-0.051924
0.004187
0.033653
0.009286
-0.014055
0.014276
0.017442
-0.001842
0.006138
-0.059073
-0.063156
-0.042395
-0.026566
0.017192
-0.034051
-0.020903
0.043179
0.030154
0.054426
-0.007734
0.051399
0.053633
-0.009596
0.002206
-0.015957
-0.042817
-0.037312
0.002345
-0.030493
-0.030982
0.000460
-0.002025
0.097282
0.044029
-0.074063
-0.070723
0.068289
-0.007255
-0.068768
0.019897
0.000798
-0.044911
0.049888
-0.073926
0.013805
0.035583
-0.023053
-0.055830
0.052909
-0.005656
-0.017056
0.054489
-0.061394
-0.073334
-0.047757
0.076586
0.074115
-0.012082
-0.063166
0.028286
-0.017151
-0.012722
0.039340
0.026429
0.021765
-0.008813
0.055795
0.010069
0.013845
0.094971
-0.004443
-0.011530
0.007243
-0.026559
0.055016
0.080259
0.002537
-0.002491
0.090027
0.083146
0.008392
-0.063413
0.069225
0.053114
0.095336
-0.066181
0.016000
-0.012134
-0.015048
-0.014745
-0.057971
0.014902
-0.011369
-0.056190
-0.002380
0.095901
0.085188
-0.067501
0.000400
0.049808
0.054445
-0.032218
0.013583
0.001154
0.095296
0.015962
0.095417
0.011230
-0.064072
0.047096
-0.017301
0.025754
0.021228
-0.041982
-0.044658
0.001540
-0.058147
0.017127
0.068607
-0.070544
0.078660
0.048731
-0.006870
-0.010400
-0.022599
-0.033471
0.022583
-0.071657
-0.057942
0.094413
-0.062911
0.049232
-0.025024
-0.054151
0.007091
0.001706
0.012449
-0.041697
0.050856
-0.049772
0.013107
-0.005906
0.044359
-0.017267
-0.071280
0.092143
0.074873
-0.060875
0.001209
0.015463
-0.037675
-0.049809
0.051780
0.037176
-0.022813
0.033171
0.065801
0.015945
-0.064689
-0.019609
-0.012114
0.050235
-0.000573
0.056976
-0.015276
0.049161
0.003272
0.011781
0.047471
-0.016984
0.005106
-0.001338
-0.030125
0.030591
0.008523
0.005840
-0.067579
-0.014421
0.023923
-0.030707
0.078761
-0.039476
-0.041382
-0.002720
-0.009116
-0.005134
-0.010466
0.053103
-0.046915
-0.015507
0.072894
0.047495
-0.043181
0.082582
0.052987
0.004760
-0.003957
-0.015355
0.004498
-0.003548
-0.016270
-0.008100
0.085795
0.009571
0.088238
-0.013942
0.095136
0.094864
0.018999
-0.010211
0.096330
0.002167
-0.071773
-0.012315
0.017058
-0.062242
-0.071020
-0.040529
0.097130
0.013995
-0.027387
-0.000569
-0.065861
-0.075284
-0.029548
0.065092
0.017246
-0.064121
0.015854
-0.054825
0.094036
0.095283
-0.005995
-0.017059
0.007050
0.021524
0.046319
-0.029110
-0.042168
0.055191
0.001184
-0.013560
0.081925
0.080132
-0.056700
0.029369
-0.069343
0.012036
-0.006901
0.005014
0.028617
0.047376
-0.070445
-0.019038
0.040002
-0.024337
-0.023787
0.035218
0.000040
-0.018959
0.013027
0.024153
-0.039696
-0.014240
0.003880
0.011157
-0.002318
-0.006779
0.005969
-0.011868
0.095013
0.044662
-0.000933
-0.028336
0.094459
0.050490
0.047310
0.063504
0.041209
0.076743
0.071488
0.015291
-0.059992
0.027735
0.046758
-0.055251
-0.070398
-0.009975
-0.044020
-0.067715
0.094792
-0.040931
-0.072408
-0.046411
0.002972
0.050142
-0.052272
0.008322
0.048804
-0.064048
-0.007941
-0.060372
0.084410
-0.037397
0.024684
0.019238
-0.013534
0.023048
0.018687
0.032733
-0.040944
-0.004682
-0.038448
-0.031277
0.046165
0.009867
0.050763
-0.005722
-0.008373
0.074686
-0.028371
0.069779
-0.067315
-0.066636
-0.014172
-0.016998
0.049691
0.002921
0.005941
-0.013900
0.000566
0.093066
0.089233
0.010967
-0.061679
0.091103
-0.017940
-0.068939
0.011087
-0.036884
-0.009255
0.094704
0.023199
0.057936
-0.001449
-0.052879
0.014554
-0.062937
0.096704
0.094481
-0.012290
0.016719
-0.047632
-0.072959
0.021885
0.095280
-0.034647
-0.021531
0.042396
-0.007861
-0.035506
0.028807
0.014706
-0.040063
-0.044814
-0.055335
0.028295
0.077979
0.015844
0.068915
-0.055210
0.074914
0.044713
-0.005300
-0.035843
-0.003533
0.094026
0.029370
-0.020316
-0.015662
-0.061251
0.018137
-0.039410
-0.069302
-0.015375
0.000557
0.006636
0.003329
0.009575
-0.020766
-0.068581
-0.035619
0.005745
0.031709
0.045534
-0.027200
0.093973
-0.010173
-0.050858
-0.066193
0.093921
-0.058971
0.046505
0.057612
-0.039935
-0.048542
0.016243
0.046695
-0.016408
-0.031674
-0.043665
0.071628
0.064723
0.002233
0.011908
-0.003195
0.022264
0.092110
0.048125
0.001538
-0.008454
0.081602
0.004878
0.036419
0.008471
0.086311
0.041803
0.020683
-0.028147
-0.005524
0.014536
0.047799
-0.005155
0.025864
0.045173
-0.011819
0.049730
-0.061287
-0.018180
-0.033472
-0.000000
-0.072827
-0.014153
0.002060
0.027657
0.004859
0.008097
-0.012122
-0.063083
-0.065969
-0.018641
0.094798
-0.025726
-0.003196
0.013298
-0.051073
-0.015769
0.023168
0.049620
0.093998
0.043217
-0.026584
-0.063468
-0.001289
0.087442
0.052580
0.041876
0.094214
0.024285
0.019395
-0.009440
0.093989
-0.012028
-0.037722
0.024885
-0.017837
0.046144
-0.069480
-0.068812
0.078334
-0.011718
0.022949
-0.032675
0.043447
0.024148
0.030555
0.045375
-0.014144
-0.034023
0.058637
0.047257
0.075312
-0.053533
0.002318
-0.005140
0.013198
0.082771
0.041683
-0.001013
0.079355
-0.004283
-0.017857
-0.029244
-0.067259
0.042278
0.092542
0.066837
-0.068249
-0.041340
0.032950
0.025327
-0.062573
0.008236
0.000307
0.017449
0.005473
-0.033405
-0.025658
0.092285
-0.010140
0.038785
0.041970
-0.047190
0.092854
-0.013690
0.073234
0.066289
-0.057335
-0.052246
-0.057415
0.013053
-0.001567
0.021318
-0.070541
-0.045312
0.076662
-0.060493
0.010545
-0.036256
0.012224
0.007885
0.059254
0.000955
0.024696
-0.008450
0.032258
0.093177
0.044915
-0.004462
0.051731
0.082393
-0.010133
-0.063816
-0.007719
0.032003
0.019711
0.004365
-0.039019
0.043156
0.015241
-0.025630
-0.021793
-0.003557
0.045969
-0.016103
0.044551
-0.041940
0.042218
-0.001611
0.039612
-0.028827
-0.006880
0.012465
0.030539
0.047167
0.000407
0.034998
0.090922
0.001565
-0.013854
-0.013123
-0.019310
-0.016068
-0.018586
-0.067231
0.093894
0.093430
-0.010890
0.002987
0.006908
-0.036769
0.025892
-0.049265
0.010420
-0.018153
0.043043
0.093057
-0.068380
-0.004355
-0.013205
-0.061967
0.071476
0.016527
0.021700
0.093635
-0.016620
-0.058740
0.038341
-0.063884
-0.067543
-0.065454
0.030503
-0.069088
0.043385
0.028344
0.029460
-0.009139
0.040198
-0.033799
-0.039165
0.026182
-0.032329
-0.012852
-0.046622
0.070819
-0.054849
0.067145
0.000866
-0.064130
0.073505
0.024076
0.077880
-0.001825
-0.067710
-0.024369
0.014074
0.090439
-0.015103
0.091669
0.005899
0.041572
0.093170
0.008821
-0.002098
-0.067558
-0.005815
-0.006766
-0.067724
0.034457
-0.000759
-0.015226
0.006223
0.036768
0.026982
0.038295
-0.066028
0.035990
-0.043608
0.014584
0.011070
-0.002829
0.064705
0.088407
0.010070
-0.051667
-0.009399
-0.001373
-0.042694
-0.006577
0.078800
0.052280
-0.008468
0.004215
0.055009
0.042501
0.028356
0.014552
0.019081
-0.037670
-0.038094
-0.039151
0.081222
0.017350
0.035439
-0.002426
-0.023538
-0.031835
0.039951
-0.011779
-0.029285
-0.019778
0.045225
0.012080
0.041153
-0.063747
-0.062824
-0.017738
0.003773
0.043024
-0.060438
-0.058473
0.039312
0.039982
-0.022940
0.003518
-0.025464
-0.031634
-0.019694
-0.003409
0.087863
0.021393
-0.011564
0.028324
-0.011908
0.049262
0.002283
0.035247
0.031751
0.043644
0.003829
-0.015908
0.091932
-0.019615
0.004723
-0.012361
0.008096
0.090793
0.085654
0.034106
-0.016924
0.071827
0.093511
-0.066841
0.092684
-0.005784
0.022870
-0.068412
-0.043086
-0.006820
0.003283
0.038683
0.012428
0.092846
0.034682
0.073098
0.012369
-0.066930
-0.017858
-0.063799
-0.014372
-0.061073
0.042039
-0.049012
-0.055911
-0.059411
0.059988
0.031119
0.037670
-0.003475
0.037124
0.052684
-0.037308
0.030524
-0.044932
0.054519
0.075084
0.046410
0.026127
-0.058241
0.012045
0.089029
0.072069
0.016151
0.080368
-0.017390
-0.013691
-0.045921
-0.019774
-0.003716
-0.029146
0.009483
0.084482
-0.036542
-0.019660
-0.002957
-0.017505
0.041847
-0.065885
-0.008462
-0.052709
-0.066472
0.041712
0.011165
0.027609
0.011077
0.021433
0.089512
0.037908
0.034351
0.038197
-0.010560
-0.027211
0.076156
-0.040563
-0.049236
0.090720
-0.021798
-0.000712
-0.010003
0.031266
0.002729
0.006047
-0.065808
0.012383
0.037535
0.007178
0.010433
-0.060282
-0.003657
0.039790
0.040788
0.038238
-0.037048
-0.034209
0.075079
-0.013354
0.065094
0.069518
-0.010948
0.016549
0.044303
0.041024
0.064565
0.021556
0.004663
0.039473
-0.006788
0.010830
-0.004960
-0.026485
-0.030190
0.092238
0.038364
-0.000291
-0.050697
0.002190
0.038499
-0.022874
0.051033
0.042859
0.001308
0.084552
0.018666
-0.015163
0.015448
0.000969
0.031639
0.035938
-0.020344
0.003213
-0.067857
-0.065572
-0.056854
-0.017572
-0.010638
0.004563
0.032456
0.006166
-0.006574
0.086871
-0.019120
0.066035
0.092068
0.035339
-0.002738
-0.040292
-0.015434
-0.054521
-0.069122
0.020755
0.037762
-0.058284
0.092785
0.090618
0.092808
0.092273
-0.066691
0.014196
-0.063863
-0.007235
0.039377
-0.062991
-0.061702
0.078758
0.035528
-0.037605
0.058746
-0.005258
-0.047579
0.043829
0.051880
-0.052421
0.067532
0.014533
0.085901
-0.003080
0.009795
-0.000540
-0.065214
0.077215
0.079434
0.034147
0.087759
0.092166
-0.020494
-0.015725
-0.047332
-0.010001
0.062571
0.015750
0.000506
0.090407
0.004869
0.007918
-0.059430
0.017682
0.038803
-0.067042
-0.014092
-0.012176
-0.019196
0.039071
0.033252
0.023723
0.036526
-0.065832
-0.004830
0.001218
0.070320
0.035298
0.028251
-0.061407
0.070250
-0.041527
0.082305
-0.065788
-0.036230
0.000911
0.057670
0.077566
0.013677
0.038096
0.064899
-0.029665
0.089373
-0.035848
0.080356
0.003507
0.091776
0.042224
0.074872
0.009226
0.008003
-0.042488
0.039129
-0.026902
0.001354
-0.023011
-0.018648
0.010010
-0.034181
-0.061607
0.036182
0.038530
-0.031461
-0.007328
0.049132
0.039288
0.088944
0.023018
0.034853
0.007751
-0.002882
0.085563
0.046633
0.036886
-0.020754
-0.013435
-0.003371
0.000039
0.024223
-0.056436
0.013960
0.002234
-0.053285
0.021640
0.073542
0.010483
0.029094
-0.020512
-0.016964
0.089642
-0.027762
-0.066883
0.004582
0.039224
0.019002
0.005382
-0.017011
0.090701
-0.018141
-0.020448
-0.057074
-0.013758
-0.037984
-0.009647
0.037519
-0.065651
0.039543
-0.063112
-0.065096
0.092477
0.091414
0.034534
-0.053260
-0.004173
-0.008471
0.042872
0.002790
0.042043
-0.030251
0.062776
0.038081
-0.062662
-0.031766
0.034466
-0.006041
-0.044883
0.064693
-0.017381