# vtk DataFile Version 2.0
Test
ASCII
DATASET POLYDATA
POINTS 4677 float
0.000000 0.000000 0.000000
0.080000 0.000000 0.000000
0.080000 0.160000 0.000000
0.000000 0.160000 0.000000
0.036000 0.073072 0.000000
0.044000 0.086928 0.000000
0.024500 0.065566 0.000000
0.055500 0.093560 0.000000
0.001000 0.050000 0.000000
0.079000 0.110000 0.000000
0.002963 0.000000 0.000000
0.005926 0.000000 0.000000
0.008889 0.000000 0.000000
0.011852 0.000000 0.000000
0.014815 0.000000 0.000000
0.017778 0.000000 0.000000
0.020741 0.000000 0.000000
0.023704 0.000000 0.000000
0.026667 0.000000 0.000000
0.029630 0.000000 0.000000
0.032593 0.000000 0.000000
0.035556 0.000000 0.000000
0.038519 0.000000 0.000000
0.041481 0.000000 0.000000
0.044444 0.000000 0.000000
0.047407 0.000000 0.000000
0.050370 0.000000 0.000000
0.053333 0.000000 0.000000
0.056296 0.000000 0.000000
0.059259 0.000000 0.000000
0.062222 0.000000 0.000000
0.065185 0.000000 0.000000
0.068148 0.000000 0.000000
0.071111 0.000000 0.000000
0.074074 0.000000 0.000000
0.077037 0.000000 0.000000
0.080000 0.002963 0.000000
0.080000 0.005926 0.000000
0.080000 0.008889 0.000000
0.080000 0.011852 0.000000
0.080000 0.014815 0.000000
0.080000 0.017778 0.000000
0.080000 0.020741 0.000000
0.080000 0.023704 0.000000
0.080000 0.026667 0.000000
0.080000 0.029630 0.000000
0.080000 0.032593 0.000000
0.080000 0.035556 0.000000
0.080000 0.038519 0.000000
0.080000 0.041481 0.000000
0.080000 0.044444 0.000000
0.080000 0.047407 0.000000
0.080000 0.050370 0.000000
0.080000 0.053333 0.000000
0.080000 0.056296 0.000000
0.080000 0.059259 0.000000
0.080000 0.062222 0.000000
0.080000 0.065185 0.000000
0.080000 0.068148 0.000000
0.080000 0.071111 0.000000
0.080000 0.074074 0.000000
0.080000 0.077037 0.000000
0.080000 0.080000 0.000000
0.080000 0.082963 0.000000
0.080000 0.085926 0.000000
0.080000 0.088889 0.000000
0.080000 0.091852 0.000000
0.080000 0.094815 0.000000
0.080000 0.097778 0.000000
0.080000 0.100741 0.000000
0.080000 0.103704 0.000000
0.080000 0.106667 0.000000
0.080000 0.109630 0.000000
0.080000 0.112593 0.000000
0.080000 0.115556 0.000000
0.080000 0.118519 0.000000
0.080000 0.121481 0.000000
0.080000 0.124444 0.000000
0.080000 0.127407 0.000000
0.080000 0.130370 0.000000
0.080000 0.133333 0.000000
0.080000 0.136296 0.000000
0.080000 0.139259 0.000000
0.080000 0.142222 0.000000
0.080000 0.145185 0.000000
0.080000 0.148148 0.000000
0.080000 0.151111 0.000000
0.080000 0.154074 0.000000
0.080000 0.157037 0.000000
0.077037 0.160000 0.000000
0.074074 0.160000 0.000000
0.071111 0.160000 0.000000
0.068148 0.160000 0.000000
0.065185 0.160000 0.000000
0.062222 0.160000 0.000000
0.059259 0.160000 0.000000
0.056296 0.160000 0.000000
0.053333 0.160000 0.000000
0.050370 0.160000 0.000000
0.047407 0.160000 0.000000
0.044444 0.160000 0.000000
0.041481 0.160000 0.000000
0.038519 0.160000 0.000000
0.035556 0.160000 0.000000
0.032593 0.160000 0.000000
0.029630 0.160000 0.000000
0.026667 0.160000 0.000000
0.023704 0.160000 0.000000
0.020741 0.160000 0.000000
0.017778 0.160000 0.000000
0.014815 0.160000 0.000000
0.011852 0.160000 0.000000
0.008889 0.160000 0.000000
0.005926 0.160000 0.000000
0.002963 0.160000 0.000000
0.000000 0.157037 0.000000
0.000000 0.154074 0.000000
0.000000 0.151111 0.000000
0.000000 0.148148 0.000000
0.000000 0.145185 0.000000
0.000000 0.142222 0.000000
0.000000 0.139259 0.000000
0.000000 0.136296 0.000000
0.000000 0.133333 0.000000
0.000000 0.130370 0.000000
0.000000 0.127407 0.000000
0.000000 0.124444 0.000000
0.000000 0.121481 0.000000
0.000000 0.118519 0.000000
0.000000 0.115556 0.000000
0.000000 0.112593 0.000000
0.000000 0.109630 0.000000
0.000000 0.106667 0.000000
0.000000 0.103704 0.000000
0.000000 0.100741 0.000000
0.000000 0.097778 0.000000
0.000000 0.094815 0.000000
0.000000 0.091852 0.000000
0.000000 0.088889 0.000000
0.000000 0.085926 0.000000
0.000000 0.082963 0.000000
0.000000 0.080000 0.000000
0.000000 0.077037 0.000000
0.000000 0.074074 0.000000
0.000000 0.071111 0.000000
0.000000 0.068148 0.000000
0.000000 0.065185 0.000000
0.000000 0.062222 0.000000
0.000000 0.059259 0.000000
0.000000 0.056296 0.000000
0.000000 0.053333 0.000000
0.000000 0.050370 0.000000
0.000000 0.047407 0.000000
0.000000 0.044444 0.000000
0.000000 0.041481 0.000000
0.000000 0.038519 0.000000
0.000000 0.035556 0.000000
0.000000 0.032593 0.000000
0.000000 0.029630 0.000000
0.000000 0.026667 0.000000
0.000000 0.023704 0.000000
0.000000 0.020741 0.000000
0.000000 0.017778 0.000000
0.000000 0.014815 0.000000
0.000000 0.011852 0.000000
0.000000 0.008889 0.000000
0.000000 0.005926 0.000000
0.000000 0.002963 0.000000
0.035500 0.072746 0.000000
0.035000 0.072419 0.000000
0.034500 0.072093 0.000000
0.034000 0.071767 0.000000
0.033500 0.071440 0.000000
0.033000 0.071114 0.000000
0.032500 0.070788 0.000000
0.032000 0.070461 0.000000
0.031500 0.070135 0.000000
0.031000 0.069809 0.000000
0.030500 0.069482 0.000000
0.030000 0.069156 0.000000
0.029500 0.068829 0.000000
0.029000 0.068503 0.000000
0.028500 0.068177 0.000000
0.028000 0.067850 0.000000
0.027500 0.067524 0.000000
0.027000 0.067198 0.000000
0.026500 0.066871 0.000000
0.026000 0.066545 0.000000
0.025500 0.066219 0.000000
0.025000 0.065892 0.000000
0.044500 0.087216 0.000000
0.045000 0.087505 0.000000
0.045500 0.087793 0.000000
0.046000 0.088081 0.000000
0.046500 0.088370 0.000000
0.047000 0.088658 0.000000
0.047500 0.088946 0.000000
0.048000 0.089235 0.000000
0.048500 0.089523 0.000000
0.049000 0.089811 0.000000
0.049500 0.090100 0.000000
0.050000 0.090388 0.000000
0.050500 0.090677 0.000000
0.051000 0.090965 0.000000
0.051500 0.091253 0.000000
0.052000 0.091542 0.000000
0.052500 0.091830 0.000000
0.053000 0.092118 0.000000
0.053500 0.092407 0.000000
0.054000 0.092695 0.000000
0.054500 0.092983 0.000000
0.055000 0.093272 0.000000
0.043704 0.086415 0.000000
0.043407 0.085902 0.000000
0.043111 0.085388 0.000000
0.042815 0.084875 0.000000
0.042519 0.084362 0.000000
0.042222 0.083849 0.000000
0.041926 0.083336 0.000000
0.041630 0.082823 0.000000
0.041333 0.082309 0.000000
0.041037 0.081796 0.000000
0.040741 0.081283 0.000000
0.040444 0.080770 0.000000
0.040148 0.080257 0.000000
0.039852 0.079743 0.000000
0.039556 0.079230 0.000000
0.039259 0.078717 0.000000
0.038963 0.078204 0.000000
0.038667 0.077691 0.000000
0.038370 0.077177 0.000000
0.038074 0.076664 0.000000
0.037778 0.076151 0.000000
0.037481 0.075638 0.000000
0.037185 0.075125 0.000000
0.036889 0.074612 0.000000
0.036593 0.074098 0.000000
0.036296 0.073585 0.000000
0.024000 0.065235 0.000000
0.023500 0.064904 0.000000
0.023000 0.064572 0.000000
0.022500 0.064241 0.000000
0.022000 0.063910 0.000000
0.021500 0.063579 0.000000
0.021000 0.063248 0.000000
0.020500 0.062916 0.000000
0.020000 0.062585 0.000000
0.019500 0.062254 0.000000
0.019000 0.061923 0.000000
0.018500 0.061592 0.000000
0.018000 0.061261 0.000000
0.017500 0.060929 0.000000
0.017000 0.060598 0.000000
0.016500 0.060267 0.000000
0.016000 0.059936 0.000000
0.015500 0.059605 0.000000
0.015000 0.059273 0.000000
0.014500 0.058942 0.000000
0.014000 0.058611 0.000000
0.013500 0.058280 0.000000
0.013000 0.057949 0.000000
0.012500 0.057617 0.000000
0.012000 0.057286 0.000000
0.011500 0.056955 0.000000
0.011000 0.056624 0.000000
0.010500 0.056293 0.000000
0.010000 0.055961 0.000000
0.009500 0.055630 0.000000
0.009000 0.055299 0.000000
0.008500 0.054968 0.000000
0.008000 0.054637 0.000000
0.007500 0.054305 0.000000
0.007000 0.053974 0.000000
0.006500 0.053643 0.000000
0.006000 0.053312 0.000000
0.005500 0.052981 0.000000
0.005000 0.052650 0.000000
0.004500 0.052318 0.000000
0.004000 0.051987 0.000000
0.003500 0.051656 0.000000
0.003000 0.051325 0.000000
0.002500 0.050994 0.000000
0.002000 0.050662 0.000000
0.001500 0.050331 0.000000
0.055990 0.093902 0.000000
0.056479 0.094245 0.000000
0.056969 0.094587 0.000000
0.057458 0.094930 0.000000
0.057948 0.095272 0.000000
0.058437 0.095615 0.000000
0.058927 0.095957 0.000000
0.059417 0.096300 0.000000
0.059906 0.096642 0.000000
0.060396 0.096985 0.000000
0.060885 0.097327 0.000000
0.061375 0.097670 0.000000
0.061865 0.098012 0.000000
0.062354 0.098355 0.000000
0.062844 0.098697 0.000000
0.063333 0.099040 0.000000
0.063823 0.099382 0.000000
0.064312 0.099725 0.000000
0.064802 0.100067 0.000000
0.065292 0.100410 0.000000
0.065781 0.100752 0.000000
0.066271 0.101095 0.000000
0.066760 0.101437 0.000000
0.067250 0.101780 0.000000
0.067740 0.102122 0.000000
0.068229 0.102465 0.000000
0.068719 0.102807 0.000000
0.069208 0.103150 0.000000
0.069698 0.103492 0.000000
0.070187 0.103835 0.000000
0.070677 0.104177 0.000000
0.071167 0.104520 0.000000
0.071656 0.104862 0.000000
0.072146 0.105205 0.000000
0.072635 0.105547 0.000000
0.073125 0.105890 0.000000
0.073615 0.106232 0.000000
0.074104 0.106575 0.000000
0.074594 0.106917 0.000000
0.075083 0.107260 0.000000
0.075573 0.107602 0.000000
0.076062 0.107945 0.000000
0.076552 0.108287 0.000000
0.077042 0.108630 0.000000
0.077531 0.108972 0.000000
0.078021 0.109315 0.000000
0.078510 0.109658 0.000000
0.043942 0.087469 0.000000
0.035556 0.157037 0.000000
0.044420 0.002920 0.000000
0.077037 0.038519 0.000000
0.002963 0.121481 0.000000
0.077037 0.059259 0.000000
0.002963 0.109630 0.000000
0.002923 0.098139 0.000000
0.077153 0.126913 0.000000
0.002808 0.032596 0.000000
0.077140 0.071061 0.000000
0.002963 0.085926 0.000000
0.002963 0.136296 0.000000
0.077041 0.023701 0.000000
0.056296 0.157037 0.000000
0.032593 0.002963 0.000000
0.077037 0.080000 0.000000
0.002813 0.077135 0.000000
0.077037 0.142222 0.000000
0.017778 0.157037 0.000000
0.062222 0.002963 0.000000
0.076992 0.088722 0.000000
0.002945 0.020743 0.000000
0.017777 0.002962 0.000000
0.002801 0.068434 0.000000
0.002959 0.011851 0.000000
0.065186 0.157038 0.000000
0.002963 0.148148 0.000000
0.077037 0.011852 0.000000
0.076887 0.094740 0.000000
0.077092 0.115875 0.000000
0.002677 0.044265 0.000000
0.077038 0.148148 0.000000
0.002985 0.062165 0.000000
0.077037 0.047407 0.000000
0.011852 0.002963 0.000000
[...]
POINT_DATA 4677
SCALARS UX float 1
LOOKUP_TABLE default
-0.000001
0.000002
-0.019661
-0.123159
-0.046817
-0.061514
-0.065543
-0.033850
-0.080540
-0.020193
-0.000000
-0.000000
-0.000000
-0.000000
-0.000000
-0.000000
-0.000000
-0.000000
-0.000000
-0.000000
-0.000000
-0.000000
-0.000000
0.000000
0.000000
0.000000
0.000000
0.000000
0.000000
0.000000
0.000000
0.000000
0.000000
0.000000
0.000000
-0.000000
0.006599
0.010507
0.013643
0.016322
0.018672
0.020792
0.022717
0.024436
0.025959
0.027244
0.028511
0.029339
0.029887
0.030306
0.030318
0.030473
0.030333
0.029776
0.028533
0.026481
0.023390
0.021374
0.020049
0.020810
0.021115
0.019446
0.020788
0.011453
0.004524
-0.001262
-0.005720
-0.008612
-0.011843
-0.014194
-0.016199
-0.017825
-0.019068
-0.019586
-0.020229
-0.022076
-0.022017
-0.025155
-0.023644
-0.023163
-0.023894
-0.023868
-0.023453
-0.027449
-0.029445
-0.026889
-0.022158
-0.024620
-0.021813
-0.023662
-0.029786
-0.036207
-0.041173
-0.046860
-0.052321
-0.064422
-0.069612
-0.073779
-0.077623
-0.080581
-0.083353
-0.086029
-0.088939
-0.091973
-0.095236
-0.097491
-0.099060
-0.101562
-0.104902
-0.107793
-0.110495
-0.113111
-0.115676
-0.118193
-0.120698
-0.123131
-0.123099
-0.123071
-0.123018
-0.122919
-0.122762
-0.122546
-0.122270
-0.121941
-0.121503
-0.121030
-0.120310
-0.119405
-0.118227
-0.116801
-0.115152
-0.113337
-0.111425
-0.109477
-0.107539
-0.105682
-0.103972
-0.102424
-0.101116
-0.100032
-0.099073
-0.098548
-0.097941
-0.097429
-0.096790
-0.095950
-0.094926
-0.093596
-0.091612
-0.088809
-0.085444
-0.081900
-0.078852
-0.075875
-0.071464
-0.066615
-0.062335
-0.059520
-0.056679
-0.053997
-0.049539
-0.045648
-0.044665
-0.039852
-0.031213
-0.023668
-0.017695
-0.011451
-0.048088
-0.049859
-0.052345
-0.051708
-0.052808
-0.052591
-0.053785
-0.055349
-0.056765
-0.057614
-0.058487
-0.059144
-0.059888
-0.063103
-0.064814
-0.067245
-0.069438
-0.053867
-0.053620
-0.056892
-0.060159
-0.063299
-0.058534
-0.063423
-0.060871
-0.059568
-0.057087
-0.054487
-0.050738
-0.050745
-0.050784
-0.046829
-0.048650
-0.044932
-0.043895
-0.041717
-0.042498
-0.043595
-0.041923
-0.040190
-0.038791
-0.037406
-0.037315
-0.036240
-0.062866
-0.063030
-0.062942
-0.062513
-0.062057
-0.061524
-0.060720
-0.060049
-0.059477
-0.058881
-0.058151
-0.057582
-0.057066
-0.056506
-0.055930
-0.055323
-0.054643
-0.053848
-0.053159
-0.052314
-0.051433
-0.050547
-0.049740
-0.048760
-0.048068
-0.047652
-0.069897
-0.070014
-0.070297
-0.070778
-0.071448
-0.072163
-0.072938
-0.073643
-0.074328
-0.074868
-0.075476
-0.076015
-0.076510
-0.076963
-0.077787
-0.078512
-0.079068
-0.079436
-0.079584
-0.079718
-0.079836
-0.079933
-0.079940
-0.079982
-0.080069
-0.080192
-0.080367
-0.080503
-0.080632
-0.080716
-0.080763
-0.080774
-0.080742
-0.080711
-0.080622
-0.080531
-0.080439
-0.080361
-0.080294
-0.080249
-0.080235
-0.080237
-0.080279
-0.080343
-0.080398
-0.080474
-0.033717
-0.032663
-0.032165
-0.031812
-0.031480
-0.031175
-0.030935
-0.030698
-0.030603
-0.030391
-0.030294
-0.030288
-0.030281
-0.030273
-0.030255
-0.030194
-0.030156
-0.030107
-0.030054
-0.030036
-0.029973
-0.029949
-0.029794
-0.029507
-0.029188
-0.028814
-0.028336
-0.027796
-0.027450
-0.026921
-0.026291
-0.025675
-0.025035
-0.024479
-0.023950
-0.023589
-0.023180
-0.022776
-0.022475
-0.022291
-0.022043
-0.021894
-0.021624
-0.021301
-0.020963
-0.020605
-0.020414
-0.062175
-0.093358
0.000249
0.028459
-0.116800
0.024356
-0.110778
-0.103186
-0.029398
-0.055605
0.016626
-0.096963
-0.119587
0.022377
-0.070103
-0.000072
0.014738
-0.095395
-0.033015
-0.108013
0.001555
-0.004210
-0.041043
-0.001382
-0.093801
-0.025776
-0.053009
-0.120478
0.014159
-0.011876
-0.026499
-0.072166
-0.033559
-0.091445
0.028852
-0.002824
-0.040577
-0.118213
0.002998
-0.088733
-0.016693
-0.029538
-0.087211
-0.081747
-0.000076
-0.118846
0.025410
-0.101712
0.001066
-0.027234
-0.027905
-0.066693
-0.059382
-0.028633
-0.062312
-0.087702
-0.094829
0.005502
-0.099718
-0.095972
0.018438
0.015720
0.027876
-0.107012
-0.018401
-0.114280
-0.052083
-0.048445
0.028742
-0.098400
-0.031069
0.000631
0.000037
-0.118315
0.026663
-0.000146
-0.037735
-0.000544
-0.065718
-0.078763
-0.120132
0.018674
-0.020025
-0.003846
-0.012737
-0.113138
0.002164
-0.033386
-0.005921
-0.006295
-0.120642
0.008038
-0.120689
0.003926
-0.021627
-0.063795
-0.079012
-0.082491
-0.019910
-0.063426
0.000250
0.026941
0.007439
-0.048284
-0.093422
-0.032462
-0.078514
-0.116150
-0.034997
-0.001014
-0.063985
-0.032249
-0.088566
0.004759
-0.020760
-0.071364
-0.021992
-0.006683
-0.011222
-0.043534
-0.118165
0.006221
-0.023092
-0.076092
-0.014181
-0.092968
-0.008242
-0.094516
-0.081422
0.001280
-0.028950
-0.059332
-0.019911
-0.096053
0.012297
-0.098525
-0.101555
0.016667
0.021608
-0.105224
-0.108958
0.026848
-0.112694
0.028689
-0.029130
0.028863
-0.115713
-0.090213
-0.117685
0.027688
-0.097023
0.000427
-0.084525
-0.044363
-0.099477
0.000833
-0.000151
-0.030969
-0.119252
0.023990
-0.074666
-0.000057
-0.105521
0.001295
-0.033269
-0.000918
-0.057177
-0.119887
0.020608
-0.001851
-0.120330
0.016550
-0.046535
-0.036676
-0.110579
0.001829
-0.035222
-0.030513
-0.115687
0.002549
-0.120579
0.011380
-0.079511
-0.020910
-0.021634
-0.085521
-0.079434
-0.059426
-0.064527
-0.018888
-0.085050
-0.031801
-0.061856
-0.059666
-0.060325
-0.059269
0.020199
-0.098648
-0.106534
-0.035343
-0.061588
-0.097565
-0.105509
-0.092320
0.001800
0.021954
-0.009887
-0.117226
-0.110617
-0.016193
0.014483
-0.117741
0.003806
-0.022747
-0.078066
-0.034843
0.024671
-0.110241
0.026128
-0.113169
-0.084803
-0.116563
-0.061048
-0.002490
-0.004858
-0.118086
-0.050752
-0.040761
-0.078003
-0.022007
-0.072148
-0.027440
0.004874
-0.090688
-0.034624
-0.093208
-0.083564
-0.003934
0.001087
-0.102623
-0.020216
-0.055033
-0.057792
-0.068070
0.012903
0.009925
-0.095392
0.026140
-0.000287
-0.000074
-0.044921
0.027229
0.027276
0.000991
0.000598
-0.094222
-0.034615
-0.081635
-0.099902
-0.074810
-0.115021
-0.115607
-0.037177
-0.043053
-0.035577
-0.090749
-0.039637
-0.000467
-0.066890
-0.027427
-0.001510
0.018504
0.002716
-0.035209
-0.016834
-0.008592
-0.039148
-0.115662
0.005124
0.009336
-0.051168
-0.065083
-0.062695
-0.022469
-0.078739
-0.081177
-0.020356
-0.079395
-0.020566
-0.064435
-0.061196
-0.061119
-0.060088
-0.063199
0.000066
0.025466
0.004492
-0.092695
-0.084206
-0.112416
-0.047910
-0.039057
-0.002906
-0.001439
-0.074213
-0.034256
-0.027422
-0.009072
-0.076961
-0.024388
-0.039437
-0.058481
-0.092440
0.025210
0.001020
-0.042324
-0.003352
-0.065902
-0.048260
-0.113452
-0.115597
0.007781
-0.060581
-0.091583
-0.012376
-0.052444
-0.089846
-0.105034
-0.092729
-0.096853
-0.099965
0.023653
0.016849
-0.030934
0.022701
-0.108650
0.025541
-0.000849
-0.111929
-0.034648
-0.007326
-0.091722
-0.087957
-0.000351
-0.099239
-0.116911
0.026702
0.001377
-0.101742
-0.039301
-0.081503
0.024501
-0.114165
0.002250
-0.108132
-0.039490
0.020287
-0.023266
-0.013568
0.016593
-0.047355
-0.055089
-0.003588
-0.117498
0.003220
-0.093890
-0.113136
-0.117942
-0.045288
0.012077
0.004415
-0.058930
-0.036854
-0.065360
-0.065526
-0.082138
-0.064719
-0.061170
-0.020699
-0.074166
-0.026144
-0.064142
-0.059574
-0.022346
-0.081102
-0.076389
-0.021041
-0.024561
-0.059255
-0.058186
-0.058614
-0.079329
-0.069241
-0.064304
-0.056273
0.019345
-0.099409
-0.090302
-0.048701
-0.040199
-0.084039
-0.090456
-0.061493
-0.100670
-0.011211
-0.114575
0.002911
0.019901
-0.034562
-0.088532
-0.108331
-0.106223
0.004961
0.014643
0.022961
-0.000189
-0.028442
-0.090250
-0.109445
-0.111853
-0.045084
-0.023674
-0.006712
0.010274
-0.113127
0.001636
-0.072136
-0.034205
-0.038912
-0.090419
-0.096232
-0.091044
-0.094020
-0.000436
0.011980
0.023039
-0.102432
0.025406
-0.086871
0.000483
-0.055414
-0.039077
-0.039731
-0.090940
-0.007034
-0.000920
-0.077428
0.023915
-0.043897
-0.044456
-0.113885
-0.102976
-0.001958
0.025150
-0.031041
-0.070357
-0.005123
0.007583
0.003551
-0.096963
-0.061289
-0.051964
-0.112974
0.018253
-0.018274
-0.048956
-0.011094
0.001646
-0.114878
-0.115417
0.005748
0.006640
-0.058137
-0.061885
-0.059500
-0.057951
-0.077803
-0.079222
-0.023652
-0.022853
-0.065413
-0.081219
-0.065958
-0.021784
-0.091138
-0.060111
-0.031266
-0.005851
-0.039122
0.001908
-0.066031
-0.074707
-0.061258
-0.059312
-0.026267
-0.063406
-0.057583
0.023567
0.007608
-0.109258
0.000546
-0.006561
-0.058181
-0.043366
-0.037770
-0.010227
-0.073645
-0.110779
-0.100348
-0.001942
-0.070084
-0.048093
0.004113
0.018431
-0.028234
-0.066045
-0.111899
-0.112908
-0.057075
-0.039159
0.021542
-0.041672
-0.001569
-0.007931
0.006683
-0.026705
-0.015283
0.008837
-0.059448
-0.033542
-0.091180
0.022969
-0.059852
-0.045537
-0.000436
-0.098122
0.024705
0.016331
-0.087450
-0.041405
-0.104788
-0.056377
-0.108176
0.001482
-0.111026
-0.044847
-0.077736
-0.089812
-0.010008
-0.042612
-0.089636
-0.004760
0.002244
-0.008477
-0.089424
-0.030543
-0.055594
-0.109783
0.022596
-0.019471
-0.093492
-0.055163
-0.105788
0.016515
-0.002867
-0.056695
0.004219
-0.114230
-0.081289
-0.010074
-0.049812
-0.099400
0.012567
-0.115163
-0.110695
0.021501
-0.023316
-0.079566
-0.062958
-0.088886
-0.073221
-0.060271
-0.057029
-0.065110
-0.064208
-0.066258
-0.065720
-0.062900
-0.059852
-0.059128
-0.059030
-0.092535
-0.090359
-0.090688
-0.081290
-0.042257
0.021268
-0.023295
-0.002147
0.003571
-0.075826
-0.080834
-0.022139
-0.058056
-0.025756
-0.078486
-0.052126
-0.021061
-0.022768
-0.058971
-0.064044
-0.054510
-0.101922
-0.088105
-0.042913
-0.086073
-0.106618
-0.088411
0.000865
-0.045705
0.019478
-0.059925
-0.036948
-0.002433
-0.012429
-0.031735
-0.049225
-0.076207
-0.071778
-0.087129
-0.105301
-0.027495
0.015208
-0.044713
0.022015
-0.092716
-0.057864
-0.053675
-0.105874
-0.022510
-0.098535
0.003219
-0.009865
-0.057850
0.014540
-0.088695
0.005790
-0.111558
0.010916
-0.112607
-0.065773
-0.059486
-0.096223
-0.088668
-0.088802
-0.052221
0.019272
0.011439
-0.089103
-0.055355
0.020477
-0.006821
-0.000225
-0.089603
0.002623
-0.108224
0.002341
-0.001260
-0.081604
-0.110344
-0.006588
-0.047200
-0.024398
-0.080735
-0.005318
-0.016310
-0.061801
-0.004367
0.023718
-0.069625
0.004917
-0.111210
0.016249
-0.055211
0.023236
-0.112256
-0.023886
-0.090187
-0.102670
0.007658
-0.012796
-0.021786
-0.110421
-0.079454
-0.013005
-0.024730
-0.031145
-0.062679
-0.058522
-0.074383
-0.077907
-0.041764
-0.067568
-0.061651
-0.011821
-0.054959
-0.058671
-0.066192
-0.054942
-0.065267
-0.066606
-0.094799
-0.059648
-0.023696
-0.057873
-0.052896
-0.021098
-0.082414
-0.049039
-0.079258
-0.023718
-0.055459
-0.079434
-0.043841
-0.043043
-0.056859
-0.064999
-0.046151
-0.052143
0.011098
-0.002569
-0.086161
-0.052311
-0.011222
-0.064235
0.004275
-0.075900
-0.097857
-0.108160
0.014745
-0.053729
-0.055894
0.006389
-0.073958
-0.078369
-0.097438
-0.035793
0.017749
-0.046120
-0.105871
-0.069119
0.021657
-0.008984
-0.007437
-0.062579
-0.051593
-0.109646
-0.102176
-0.066756
-0.092373
-0.100020
-0.060356
-0.104641
-0.043209
-0.000552
-0.002008
-0.020592
0.019950
-0.087952
-0.087928
-0.011737
-0.058554
-0.083352
-0.089571
-0.055212
-0.055694
0.005025
-0.087262
-0.095701
0.023009
-0.027617
-0.088629
-0.049706
-0.003931
-0.107207
-0.056526
-0.076221
-0.087442
-0.087374
-0.014477
-0.013563
-0.013240
-0.088418
-0.083419
-0.019394
-0.108552
-0.072175
0.021319
0.020314
-0.110041
-0.059013
0.009547
0.012863
-0.025487
-0.107881
-0.108906
0.007349
-0.106902
-0.045079
-0.014255
0.001921
-0.062576
-0.030579
-0.035324
-0.057644
-0.078288
-0.041244
-0.046526
-0.025206
-0.081584
-0.053530
-0.061888
-0.065259
-0.066882
-0.087910
-0.052057
-0.066608
-0.070426
-0.056818
-0.022603
-0.033636
-0.082340
-0.060785
0.017996
-0.045363
-0.103280
-0.054021
-0.000107
-0.025069
-0.055464
-0.023976
-0.051539
-0.079535
-0.047486
-0.103383
0.019094
-0.052865
-0.052961
-0.085478
0.000255
-0.086705
0.017355
-0.015156
-0.086010
-0.015785
-0.054757
-0.004385
-0.105485
-0.027626
-0.098377
-0.086441
-0.086289
-0.072839
-0.026894
-0.078362
-0.056730
-0.103719
-0.086490
0.007809
-0.054297
-0.095634
-0.087020
-0.061148
-0.086933
0.013227
-0.107048
0.015908
-0.067468
-0.085700
-0.029335
-0.016394
-0.075915
-0.060600
0.016152
-0.049276
-0.061419
-0.007694
-0.072694
-0.104797
0.020641
-0.010599
-0.092653
-0.086811
-0.022232
-0.012552
0.001348
-0.001203
-0.010108
-0.104141
0.007962
0.003014
0.011495
-0.065438
-0.019283
0.005359
-0.104748
-0.099645
-0.079333
0.008369
-0.099756
-0.082579
-0.015949
0.020955
-0.042822
-0.037831
-0.095468
-0.093717
-0.003161
-0.105900
-0.107475
-0.109227
-0.045783
-0.057829
-0.107701
-0.040373
0.014715
-0.090627
-0.013191
-0.047660
-0.052782
-0.063416
-0.067336
-0.058657
-0.056010
-0.066438
-0.058344
-0.034724
-0.055927
-0.032858
-0.063839
-0.024950
-0.024890
-0.052117
-0.066297
-0.021269
0.001183
-0.085701
-0.061218
-0.051829
-0.077290
-0.085136
-0.098659
-0.019839
-0.051357
-0.103123
-0.061486
-0.081475
-0.088828
-0.040547
-0.043421
-0.051830
-0.079782
-0.050952
-0.068740
-0.027325
-0.023535
-0.064535
-0.067980
-0.051831
-0.049870
0.006156
-0.096362
-0.083658
-0.013691
0.000217
-0.100937
-0.036970
-0.017376
-0.071355
-0.078886
-0.084689
-0.094554
-0.102830
-0.099082
0.018255
-0.007383
-0.085498
-0.022533
-0.070132
-0.100412
-0.032620
0.019084
-0.061141
-0.102417
0.014396
-0.049742
-0.090313
-0.014908
0.003969
0.011658
-0.104427
-0.106604
0.006666
-0.105104
-0.021920
0.010915
-0.001529
-0.039715
-0.026190
-0.012297
-0.064214
-0.014504
0.017731
-0.017145
-0.015366
0.016185
-0.075230
-0.082891
-0.002104
-0.086071
-0.085354
-0.009710
-0.054994
-0.086287
-0.023674
-0.088473
-0.086810
-0.085071
0.002413
-0.058913
-0.086631
0.008864
-0.056030
-0.079951
-0.106236
-0.086260
-0.015378
-0.091886
-0.050009
-0.089046
-0.104636
0.019141
0.017972
-0.075301
-0.084328
-0.001394
-0.049942
-0.043348
-0.049087
0.010051
-0.048704
-0.056593
-0.057781
-0.040806
-0.101459
-0.042202
-0.082594
-0.082199
-0.063092
-0.066120
-0.052325
-0.059554
-0.056737
-0.067447
-0.000470
-0.028666
-0.033857
-0.053772
-0.076993
-0.031498
-0.067331
-0.084151
-0.050657
-0.097499
-0.065896
-0.026128
-0.051098
-0.045365
-0.062197
-0.065909
-0.049582
-0.078624
-0.019218
-0.025109
-0.060562
-0.051013
-0.059042
-0.086842
-0.050927
-0.022411
-0.046420
-0.101538
-0.050220
-0.065484
-0.047364
-0.047702
-0.050037
-0.081942
-0.056197
-0.084713
-0.078622
-0.039834
0.015537
-0.017774
-0.069451
-0.018626
-0.060045
-0.055757
-0.088578
-0.004050
-0.021581
-0.047650
-0.098188
-0.068269
-0.085147
-0.088901
-0.085198
-0.084587
-0.100226
-0.061944
0.007836
0.002803
0.010562
-0.027849
-0.083748
-0.093485
-0.052120
0.017237
-0.061248
-0.097456
-0.023388
-0.009783
-0.084543
-0.084752
-0.027565
-0.074316
0.002470
-0.015302
-0.051275
-0.084714
-0.091526
-0.063062
-0.018237
-0.043170
-0.083288
-0.042478
-0.044316
0.001239
0.012843
-0.104000
0.016605
-0.030350
-0.010838
-0.101557
-0.102556
-0.016015
0.005353
-0.071818
-0.097046
-0.035612
0.013330
0.018651
-0.039002
-0.003246
0.015241
-0.050731
-0.103075
-0.083077
0.008358
-0.101568
-0.049705
-0.076916
-0.067086
-0.095494
-0.001163
-0.086958
-0.062370
-0.059971
-0.049279
-0.057820
-0.055435
-0.067299
-0.078942
-0.081753
-0.068109
-0.019557
-0.098584
-0.063203
-0.051694
-0.063482
-0.064822
-0.048218
-0.047804
-0.024380
-0.067260
-0.037894
-0.079543
-0.053948
-0.015277
-0.013288
0.021083
-0.026140
-0.049180
-0.048528
-0.057851
-0.025479
-0.012295
-0.086996
-0.051377
-0.099414
-0.057351
-0.084810
-0.084238
-0.018245
-0.059513
-0.049762
-0.044641
0.000049
-0.047846
-0.046462
-0.050076
-0.097313
-0.086431
-0.018785
-0.015304
-0.041364
-0.067059
0.001565
-0.099990
0.013297
-0.017687
-0.062246
-0.053367
-0.019449
-0.005747
-0.023654
-0.093071
-0.083247
0.008215
-0.023037
-0.017743
-0.083909
-0.081552
-0.046267
-0.081826
-0.078650
-0.097241
-0.101443
0.016086
0.006411
-0.089709
-0.036032
-0.020692
-0.098288
0.015472
-0.065719
-0.082644
-0.029520
-0.068254
-0.018218
-0.044492
-0.084951
-0.084339
-0.072501
0.014573
-0.062863
-0.086117
-0.085374
-0.082889
-0.019422
-0.076256
0.012052
-0.084550
-0.093768
0.009104
-0.046177
0.000094
0.015950
-0.056684
-0.048470
-0.017695
-0.059899
-0.103887
-0.017362
-0.037934
-0.102108
-0.084903
-0.005145
-0.075075
0.016576
0.004731
-0.082741
0.003142
-0.091241
-0.094444
-0.096439
-0.100279
-0.055191
-0.018683
-0.010834
-0.053321
-0.051807
-0.002292
-0.068745
-0.040034
-0.055823
-0.050189
-0.047083
-0.052802
-0.053933
0.016163
-0.032461
-0.060616
-0.061600
-0.060319
-0.068038
-0.064263
-0.066934
-0.082767
-0.026283
-0.026622
-0.067037
-0.058684
-0.056007
-0.048705
-0.047133
-0.061446
-0.053184
-0.068707
-0.066024
-0.024839
-0.083986
-0.064111
-0.013467
-0.077864
-0.018153
-0.049936
-0.046074
-0.027450
-0.096102
-0.084842
0.018770
-0.079988
-0.084379
-0.081392
-0.046196
-0.083842
-0.003693
-0.047977
-0.046012
-0.066604
-0.005812
-0.046155
-0.080004
-0.046988
-0.084307
-0.093922
-0.058462
-0.043453
-0.083267
-0.020084
0.000497
-0.083479
-0.020288
-0.081742
-0.020410
-0.097489
-0.083312
-0.091296
-0.090772
-0.022398
-0.019267
-0.031522
0.007262
-0.060489
-0.027486
0.010423
-0.100420
-0.083421
-0.055020
-0.099586
-0.083359
-0.044128
-0.001415
-0.062360
-0.050573
0.012677
0.014390
-0.069439
-0.081883
-0.044863
-0.080707
-0.050656
0.012852
-0.063870
-0.017377
-0.018018
-0.093614
-0.064607
-0.009196
-0.101353
-0.081394
-0.007175
-0.039798
-0.048357
-0.098946
-0.098841
-0.018408
0.005665
-0.077941
0.013367
0.013802
-0.083456
-0.080445
-0.051134
-0.018683
-0.088295
-0.044762
-0.002641
-0.095672
-0.091429
-0.002491
-0.097646
-0.040754
-0.026995
-0.013653
0.013441
-0.063382
-0.079987
-0.079048
-0.094335
-0.051570
-0.054010
-0.083495
-0.083611
-0.052732
0.011049
-0.032533
0.003265
-0.035427
-0.087627
-0.067883
-0.054239
-0.034132
-0.048493
-0.058939
-0.046045
-0.012667
-0.016609
-0.061397
-0.072116
-0.045622
-0.007546
-0.059316
-0.063550
-0.025573
-0.068856
-0.057064
-0.068036
-0.054543
-0.018481
-0.017398
-0.045629
-0.069072
-0.019988
-0.027361
-0.082540
-0.029200
-0.065187
-0.084419
-0.083771
-0.054936
-0.055629
-0.052299
-0.047838
-0.051704
-0.026872
-0.045419
-0.016297
0.014081
-0.083054
-0.065956
-0.079989
-0.015624
-0.077107
-0.064165
-0.082431
-0.070520
-0.075121
-0.046731
-0.045272
0.008551
-0.064907
-0.007730
-0.048771
-0.078851
-0.045583
-0.057130
-0.021542
-0.041722
-0.019167
-0.079086
-0.082313
0.010774
-0.032818
-0.021881
-0.088001
-0.020557
-0.023231
-0.091493
-0.080757
-0.067435
-0.053728
-0.085420
0.011335
-0.019343
-0.049077
-0.093828
-0.003532
-0.064534
-0.013035
-0.082402
-0.094918
-0.082805
-0.082609
-0.052464
-0.049171
-0.046683
0.012948
-0.084203
-0.019987
-0.044037
-0.072551
-0.067422
-0.067646
-0.089964
-0.021455
-0.079569
-0.061762
-0.024052
-0.092713
-0.000894
-0.011257
0.013565
-0.098529
-0.096539
-0.083240
-0.090412
-0.064286
0.008752
-0.052690
-0.076353
-0.097359
0.000802
-0.009260
-0.068386
-0.081274
-0.082910
-0.020746
-0.015671
-0.045532
-0.019931
-0.094674
0.013843
-0.017536
-0.042184
-0.020448
0.013241
0.005411
0.005757
-0.095662
0.011442
-0.006957
-0.037155
-0.042277
-0.024235
-0.065729
-0.097743
-0.082462
0.001966
-0.054668
-0.032545
-0.021117
-0.057171
-0.052052
-0.035818
-0.049303
-0.061714
-0.048713
-0.062296
-0.074943
-0.044283
-0.068803
-0.059994
-0.083410
-0.081495
-0.083603
-0.065117
-0.058224
-0.058048
-0.043936
-0.055708
-0.066243
-0.019350
-0.069500
-0.014853
-0.030849
-0.044848
-0.053317
-0.052664
-0.069135
-0.068510
-0.084139
-0.086149
-0.044187
-0.073824
-0.027706
-0.026433
-0.028663
-0.027804
-0.082578
0.015507
-0.080061
-0.056025
-0.044209
-0.079286
-0.077885
-0.021367
0.003642
-0.050603
-0.047436
-0.092313
-0.060117
-0.021299
-0.024081
-0.081662
-0.022090
-0.087971
-0.034163
-0.004433
0.008818
-0.095088
-0.082132
-0.022401
-0.022663
-0.068064
-0.021813
-0.029155
-0.088947
-0.091337
-0.080585
-0.091184
-0.020247
0.010602
0.000302
-0.028879
0.005991
0.009731
-0.075465
-0.047426
-0.043469
-0.082912
-0.017616
-0.014688
-0.066351
-0.014412
0.009968
0.011714
-0.004733
-0.081912
-0.096467
-0.098088
-0.044146
-0.069256
-0.077366
-0.082248
-0.021775
-0.079177
-0.020030
-0.081750
-0.079342
-0.052053
-0.021913
-0.040333
0.010929
-0.010944
-0.022428
-0.082847
-0.026136
-0.082157
-0.038137
0.003927
-0.030459