# vtk DataFile Version 2.0
Test
ASCII
DATASET POLYDATA
POINTS 4677 float
0.000000 0.000000 0.000000
0.080000 0.000000 0.000000
0.080000 0.160000 0.000000
0.000000 0.160000 0.000000
0.036000 0.073072 0.000000
0.044000 0.086928 0.000000
0.024500 0.065566 0.000000
0.055500 0.093560 0.000000
0.001000 0.050000 0.000000
0.079000 0.110000 0.000000
0.002963 0.000000 0.000000
0.005926 0.000000 0.000000
0.008889 0.000000 0.000000
0.011852 0.000000 0.000000
0.014815 0.000000 0.000000
0.017778 0.000000 0.000000
0.020741 0.000000 0.000000
0.023704 0.000000 0.000000
0.026667 0.000000 0.000000
0.029630 0.000000 0.000000
0.032593 0.000000 0.000000
0.035556 0.000000 0.000000
0.038519 0.000000 0.000000
0.041481 0.000000 0.000000
0.044444 0.000000 0.000000
0.047407 0.000000 0.000000
0.050370 0.000000 0.000000
0.053333 0.000000 0.000000
0.056296 0.000000 0.000000
0.059259 0.000000 0.000000
0.062222 0.000000 0.000000
0.065185 0.000000 0.000000
0.068148 0.000000 0.000000
0.071111 0.000000 0.000000
0.074074 0.000000 0.000000
0.077037 0.000000 0.000000
0.080000 0.002963 0.000000
0.080000 0.005926 0.000000
0.080000 0.008889 0.000000
0.080000 0.011852 0.000000
0.080000 0.014815 0.000000
0.080000 0.017778 0.000000
0.080000 0.020741 0.000000
0.080000 0.023704 0.000000
0.080000 0.026667 0.000000
0.080000 0.029630 0.000000
0.080000 0.032593 0.000000
0.080000 0.035556 0.000000
0.080000 0.038519 0.000000
0.080000 0.041481 0.000000
0.080000 0.044444 0.000000
0.080000 0.047407 0.000000
0.080000 0.050370 0.000000
0.080000 0.053333 0.000000
0.080000 0.056296 0.000000
0.080000 0.059259 0.000000
0.080000 0.062222 0.000000
0.080000 0.065185 0.000000
0.080000 0.068148 0.000000
0.080000 0.071111 0.000000
0.080000 0.074074 0.000000
0.080000 0.077037 0.000000
0.080000 0.080000 0.000000
0.080000 0.082963 0.000000
0.080000 0.085926 0.000000
0.080000 0.088889 0.000000
0.080000 0.091852 0.000000
0.080000 0.094815 0.000000
0.080000 0.097778 0.000000
0.080000 0.100741 0.000000
0.080000 0.103704 0.000000
0.080000 0.106667 0.000000
0.080000 0.109630 0.000000
0.080000 0.112593 0.000000
0.080000 0.115556 0.000000
0.080000 0.118519 0.000000
0.080000 0.121481 0.000000
0.080000 0.124444 0.000000
0.080000 0.127407 0.000000
0.080000 0.130370 0.000000
0.080000 0.133333 0.000000
0.080000 0.136296 0.000000
0.080000 0.139259 0.000000
0.080000 0.142222 0.000000
0.080000 0.145185 0.000000
0.080000 0.148148 0.000000
0.080000 0.151111 0.000000
0.080000 0.154074 0.000000
0.080000 0.157037 0.000000
0.077037 0.160000 0.000000
0.074074 0.160000 0.000000
0.071111 0.160000 0.000000
0.068148 0.160000 0.000000
0.065185 0.160000 0.000000
0.062222 0.160000 0.000000
0.059259 0.160000 0.000000
0.056296 0.160000 0.000000
0.053333 0.160000 0.000000
0.050370 0.160000 0.000000
0.047407 0.160000 0.000000
0.044444 0.160000 0.000000
0.041481 0.160000 0.000000
0.038519 0.160000 0.000000
0.035556 0.160000 0.000000
0.032593 0.160000 0.000000
0.029630 0.160000 0.000000
0.026667 0.160000 0.000000
0.023704 0.160000 0.000000
0.020741 0.160000 0.000000
0.017778 0.160000 0.000000
0.014815 0.160000 0.000000
0.011852 0.160000 0.000000
0.008889 0.160000 0.000000
0.005926 0.160000 0.000000
0.002963 0.160000 0.000000
0.000000 0.157037 0.000000
0.000000 0.154074 0.000000
0.000000 0.151111 0.000000
0.000000 0.148148 0.000000
0.000000 0.145185 0.000000
0.000000 0.142222 0.000000
0.000000 0.139259 0.000000
0.000000 0.136296 0.000000
0.000000 0.133333 0.000000
0.000000 0.130370 0.000000
0.000000 0.127407 0.000000
0.000000 0.124444 0.000000
0.000000 0.121481 0.000000
0.000000 0.118519 0.000000
0.000000 0.115556 0.000000
0.000000 0.112593 0.000000
0.000000 0.109630 0.000000
0.000000 0.106667 0.000000
0.000000 0.103704 0.000000
0.000000 0.100741 0.000000
0.000000 0.097778 0.000000
0.000000 0.094815 0.000000
0.000000 0.091852 0.000000
0.000000 0.088889 0.000000
0.000000 0.085926 0.000000
0.000000 0.082963 0.000000
0.000000 0.080000 0.000000
0.000000 0.077037 0.000000
0.000000 0.074074 0.000000
0.000000 0.071111 0.000000
0.000000 0.068148 0.000000
0.000000 0.065185 0.000000
0.000000 0.062222 0.000000
0.000000 0.059259 0.000000
0.000000 0.056296 0.000000
0.000000 0.053333 0.000000
0.000000 0.050370 0.000000
0.000000 0.047407 0.000000
0.000000 0.044444 0.000000
0.000000 0.041481 0.000000
0.000000 0.038519 0.000000
0.000000 0.035556 0.000000
0.000000 0.032593 0.000000
0.000000 0.029630 0.000000
0.000000 0.026667 0.000000
0.000000 0.023704 0.000000
0.000000 0.020741 0.000000
0.000000 0.017778 0.000000
0.000000 0.014815 0.000000
0.000000 0.011852 0.000000
0.000000 0.008889 0.000000
0.000000 0.005926 0.000000
0.000000 0.002963 0.000000
0.035500 0.072746 0.000000
0.035000 0.072419 0.000000
0.034500 0.072093 0.000000
0.034000 0.071767 0.000000
0.033500 0.071440 0.000000
0.033000 0.071114 0.000000
0.032500 0.070788 0.000000
0.032000 0.070461 0.000000
0.031500 0.070135 0.000000
0.031000 0.069809 0.000000
0.030500 0.069482 0.000000
0.030000 0.069156 0.000000
0.029500 0.068829 0.000000
0.029000 0.068503 0.000000
0.028500 0.068177 0.000000
0.028000 0.067850 0.000000
0.027500 0.067524 0.000000
0.027000 0.067198 0.000000
0.026500 0.066871 0.000000
0.026000 0.066545 0.000000
0.025500 0.066219 0.000000
0.025000 0.065892 0.000000
0.044500 0.087216 0.000000
0.045000 0.087505 0.000000
0.045500 0.087793 0.000000
0.046000 0.088081 0.000000
0.046500 0.088370 0.000000
0.047000 0.088658 0.000000
0.047500 0.088946 0.000000
0.048000 0.089235 0.000000
0.048500 0.089523 0.000000
0.049000 0.089811 0.000000
0.049500 0.090100 0.000000
0.050000 0.090388 0.000000
0.050500 0.090677 0.000000
0.051000 0.090965 0.000000
0.051500 0.091253 0.000000
0.052000 0.091542 0.000000
0.052500 0.091830 0.000000
0.053000 0.092118 0.000000
0.053500 0.092407 0.000000
0.054000 0.092695 0.000000
0.054500 0.092983 0.000000
0.055000 0.093272 0.000000
0.043704 0.086415 0.000000
0.043407 0.085902 0.000000
0.043111 0.085388 0.000000
0.042815 0.084875 0.000000
0.042519 0.084362 0.000000
0.042222 0.083849 0.000000
0.041926 0.083336 0.000000
0.041630 0.082823 0.000000
0.041333 0.082309 0.000000
0.041037 0.081796 0.000000
0.040741 0.081283 0.000000
0.040444 0.080770 0.000000
0.040148 0.080257 0.000000
0.039852 0.079743 0.000000
0.039556 0.079230 0.000000
0.039259 0.078717 0.000000
0.038963 0.078204 0.000000
0.038667 0.077691 0.000000
0.038370 0.077177 0.000000
0.038074 0.076664 0.000000
0.037778 0.076151 0.000000
0.037481 0.075638 0.000000
0.037185 0.075125 0.000000
0.036889 0.074612 0.000000
0.036593 0.074098 0.000000
0.036296 0.073585 0.000000
0.024000 0.065235 0.000000
0.023500 0.064904 0.000000
0.023000 0.064572 0.000000
0.022500 0.064241 0.000000
0.022000 0.063910 0.000000
0.021500 0.063579 0.000000
0.021000 0.063248 0.000000
0.020500 0.062916 0.000000
0.020000 0.062585 0.000000
0.019500 0.062254 0.000000
0.019000 0.061923 0.000000
0.018500 0.061592 0.000000
0.018000 0.061261 0.000000
0.017500 0.060929 0.000000
0.017000 0.060598 0.000000
0.016500 0.060267 0.000000
0.016000 0.059936 0.000000
0.015500 0.059605 0.000000
0.015000 0.059273 0.000000
0.014500 0.058942 0.000000
0.014000 0.058611 0.000000
0.013500 0.058280 0.000000
0.013000 0.057949 0.000000
0.012500 0.057617 0.000000
0.012000 0.057286 0.000000
0.011500 0.056955 0.000000
0.011000 0.056624 0.000000
0.010500 0.056293 0.000000
0.010000 0.055961 0.000000
0.009500 0.055630 0.000000
0.009000 0.055299 0.000000
0.008500 0.054968 0.000000
0.008000 0.054637 0.000000
0.007500 0.054305 0.000000
0.007000 0.053974 0.000000
0.006500 0.053643 0.000000
0.006000 0.053312 0.000000
0.005500 0.052981 0.000000
0.005000 0.052650 0.000000
0.004500 0.052318 0.000000
0.004000 0.051987 0.000000
0.003500 0.051656 0.000000
0.003000 0.051325 0.000000
0.002500 0.050994 0.000000
0.002000 0.050662 0.000000
0.001500 0.050331 0.000000
0.055990 0.093902 0.000000
0.056479 0.094245 0.000000
0.056969 0.094587 0.000000
0.057458 0.094930 0.000000
0.057948 0.095272 0.000000
0.058437 0.095615 0.000000
0.058927 0.095957 0.000000
0.059417 0.096300 0.000000
0.059906 0.096642 0.000000
0.060396 0.096985 0.000000
0.060885 0.097327 0.000000
0.061375 0.097670 0.000000
0.061865 0.098012 0.000000
0.062354 0.098355 0.000000
0.062844 0.098697 0.000000
0.063333 0.099040 0.000000
0.063823 0.099382 0.000000
0.064312 0.099725 0.000000
0.064802 0.100067 0.000000
0.065292 0.100410 0.000000
0.065781 0.100752 0.000000
0.066271 0.101095 0.000000
0.066760 0.101437 0.000000
0.067250 0.101780 0.000000
0.067740 0.102122 0.000000
0.068229 0.102465 0.000000
0.068719 0.102807 0.000000
0.069208 0.103150 0.000000
0.069698 0.103492 0.000000
0.070187 0.103835 0.000000
0.070677 0.104177 0.000000
0.071167 0.104520 0.000000
0.071656 0.104862 0.000000
0.072146 0.105205 0.000000
0.072635 0.105547 0.000000
0.073125 0.105890 0.000000
0.073615 0.106232 0.000000
0.074104 0.106575 0.000000
0.074594 0.106917 0.000000
0.075083 0.107260 0.000000
0.075573 0.107602 0.000000
0.076062 0.107945 0.000000
0.076552 0.108287 0.000000
0.077042 0.108630 0.000000
0.077531 0.108972 0.000000
0.078021 0.109315 0.000000
0.078510 0.109658 0.000000
0.043942 0.087469 0.000000
0.035556 0.157037 0.000000
0.044420 0.002920 0.000000
0.077037 0.038519 0.000000
0.002963 0.121481 0.000000
0.077037 0.059259 0.000000
0.002963 0.109630 0.000000
0.002923 0.098139 0.000000
0.077153 0.126913 0.000000
0.002808 0.032596 0.000000
0.077140 0.071061 0.000000
0.002963 0.085926 0.000000
0.002963 0.136296 0.000000
0.077041 0.023701 0.000000
0.056296 0.157037 0.000000
0.032593 0.002963 0.000000
0.077037 0.080000 0.000000
0.002813 0.077135 0.000000
0.077037 0.142222 0.000000
0.017778 0.157037 0.000000
0.062222 0.002963 0.000000
0.076992 0.088722 0.000000
0.002945 0.020743 0.000000
0.017777 0.002962 0.000000
0.002801 0.068434 0.000000
0.002959 0.011851 0.000000
0.065186 0.157038 0.000000
0.002963 0.148148 0.000000
0.077037 0.011852 0.000000
0.076887 0.094740 0.000000
0.077092 0.115875 0.000000
0.002677 0.044265 0.000000
0.077038 0.148148 0.000000
0.002985 0.062165 0.000000
0.077037 0.047407 0.000000
0.011852 0.002963 0.000000
[...]
POINT_DATA 4677
SCALARS UX float 1
LOOKUP_TABLE default
-0.000001
0.000001
-0.000775
-0.155412
-0.041926
-0.074737
-0.088145
-0.043200
-0.107918
-0.035535
-0.000000
-0.000000
-0.000000
-0.000000
-0.000000
-0.000000
-0.000000
-0.000000
-0.000000
-0.000000
-0.000000
-0.000000
-0.000000
0.000000
0.000000
0.000000
0.000000
0.000000
0.000000
0.000000
0.000000
0.000000
0.000000
0.000000
0.000000
-0.000000
0.002346
0.004236
0.006024
0.007707
0.009367
0.011183
0.013027
0.014994
0.017247
0.020165
0.023361
0.027566
0.032123
0.036656
0.039591
0.041798
0.042646
0.042655
0.042033
0.040243
0.038456
0.036478
0.034696
0.034419
0.037297
0.033446
0.025507
0.015024
0.005496
-0.004521
-0.012715
-0.019092
-0.026046
-0.030920
-0.033442
-0.034946
-0.034255
-0.033096
-0.032535
-0.033978
-0.039053
-0.046008
-0.043339
-0.045398
-0.049743
-0.045730
-0.048842
-0.041510
-0.033950
-0.025806
-0.017595
-0.008320
-0.006278
-0.003043
-0.013365
-0.022345
-0.031029
-0.039527
-0.048052
-0.056640
-0.064349
-0.072209
-0.083623
-0.090427
-0.097284
-0.102203
-0.110416
-0.115175
-0.120231
-0.127669
-0.131435
-0.134278
-0.136144
-0.139335
-0.142537
-0.144895
-0.147514
-0.150674
-0.152760
-0.157695
-0.159598
-0.161458
-0.163014
-0.165684
-0.166802
-0.169378
-0.170939
-0.173693
-0.175054
-0.177642
-0.176995
-0.175988
-0.174273
-0.170354
-0.168140
-0.164175
-0.158960
-0.153726
-0.148706
-0.144220
-0.140616
-0.136826
-0.134599
-0.132545
-0.131847
-0.131370
-0.129295
-0.127189
-0.126388
-0.122845
-0.121200
-0.118467
-0.116816
-0.114508
-0.112062
-0.109627
-0.105551
-0.103997
-0.101222
-0.099528
-0.096772
-0.093302
-0.089510
-0.085998
-0.082101
-0.080503
-0.078696
-0.076043
-0.072784
-0.070766
-0.069815
-0.043759
-0.043022
-0.044250
-0.045565
-0.049426
-0.048403
-0.051163
-0.054420
-0.056851
-0.059238
-0.060103
-0.060888
-0.064527
-0.069464
-0.068688
-0.071649
-0.073745
-0.077926
-0.084584
-0.084841
-0.082141
-0.084265
-0.083847
-0.073886
-0.072973
-0.077413
-0.080806
-0.076668
-0.074360
-0.072854
-0.070999
-0.068558
-0.065848
-0.061972
-0.058742
-0.065766
-0.064967
-0.064216
-0.061550
-0.058417
-0.055582
-0.052749
-0.048703
-0.045554
-0.043027
-0.075933
-0.073724
-0.070995
-0.069633
-0.069017
-0.066874
-0.065108
-0.063542
-0.061817
-0.060100
-0.058203
-0.056252
-0.055285
-0.054358
-0.051925
-0.049706
-0.048970
-0.048006
-0.047188
-0.046365
-0.045650
-0.044979
-0.044341
-0.043674
-0.043003
-0.042404
-0.089649
-0.090544
-0.091170
-0.091585
-0.091941
-0.092250
-0.092613
-0.092942
-0.093268
-0.093446
-0.093810
-0.093827
-0.093959
-0.094040
-0.094055
-0.094023
-0.093933
-0.093913
-0.094594
-0.095292
-0.095994
-0.096655
-0.097290
-0.097662
-0.098058
-0.098574
-0.099163
-0.099730
-0.100257
-0.100655
-0.101018
-0.101496
-0.101991
-0.102479
-0.103006
-0.103639
-0.104112
-0.104458
-0.104874
-0.105124
-0.105480
-0.106072
-0.106611
-0.106811
-0.107069
-0.107498
-0.043973
-0.045230
-0.045941
-0.046697
-0.047616
-0.048540
-0.049707
-0.050808
-0.051872
-0.052799
-0.053492
-0.054087
-0.055575
-0.057190
-0.058361
-0.057804
-0.056540
-0.055542
-0.055002
-0.054230
-0.053547
-0.053149
-0.052703
-0.052174
-0.051576
-0.051069
-0.050470
-0.049975
-0.049556
-0.049230
-0.048609
-0.047910
-0.047158
-0.046379
-0.045595
-0.044815
-0.044058
-0.043229
-0.042626
-0.041998
-0.041307
-0.040508
-0.039740
-0.038983
-0.038048
-0.037097
-0.036309
-0.082586
-0.118635
0.000326
0.031416
-0.174222
0.039362
-0.162621
-0.141195
-0.053592
-0.087597
0.030469
-0.126549
-0.169170
0.012790
-0.072057
0.000030
0.023781
-0.124279
-0.047976
-0.141029
0.000132
-0.007891
-0.077325
-0.000590
-0.119405
-0.069976
-0.047536
-0.160854
0.005174
-0.026109
-0.039560
-0.100497
-0.034009
-0.114703
0.040115
-0.000595
-0.030807
-0.152603
0.000179
-0.111831
-0.034997
-0.057953
-0.109019
-0.094827
-0.000250
-0.173069
0.018252
-0.135790
0.000243
-0.012004
-0.044885
-0.097218
-0.075592
-0.051964
-0.093697
-0.112054
-0.124597
0.012167
-0.132906
-0.126600
0.032910
0.032839
0.041428
-0.151585
-0.037848
-0.168868
-0.084723
-0.081475
0.035367
-0.129862
-0.053533
0.000317
0.000313
-0.174689
0.022037
0.000275
-0.075904
-0.001851
-0.063981
-0.084393
-0.165080
0.008661
-0.061575
-0.007080
-0.049941
-0.147019
0.000074
-0.029442
-0.013556
-0.021523
-0.157313
0.001720
-0.155239
0.000348
-0.037367
-0.079700
-0.105931
-0.108332
-0.037657
-0.082439
0.000494
0.029975
0.020465
-0.080021
-0.121968
-0.054026
-0.090762
-0.169890
-0.065835
-0.002035
-0.093556
-0.068547
-0.110598
0.015635
-0.041877
-0.077958
-0.054049
-0.020871
-0.035724
-0.043778
-0.154844
0.000399
-0.037246
-0.103710
-0.031056
-0.117682
-0.017526
-0.121704
-0.108221
0.003490
-0.053417
-0.091410
-0.036020
-0.127397
0.029752
-0.130422
-0.137202
0.031734
0.037200
-0.146509
-0.157231
0.040716
-0.166485
0.041906
-0.054597
0.038262
-0.172553
-0.115066
-0.175269
0.026545
-0.124789
0.000330
-0.103692
-0.079404
-0.133527
0.000283
0.000140
-0.055179
-0.171474
0.015274
-0.079712
-0.000564
-0.137922
0.000186
-0.071439
-0.002144
-0.055809
-0.167414
0.010580
-0.000382
-0.162970
0.006826
-0.039352
-0.040353
-0.143827
0.000090
-0.021150
-0.020566
-0.150016
0.000120
-0.159088
0.003371
-0.106698
-0.036453
-0.038302
-0.107495
-0.106165
-0.082098
-0.077239
-0.037283
-0.109838
-0.051692
-0.092307
-0.075269
-0.072869
-0.074345
0.035952
-0.132428
-0.155527
-0.059670
-0.090489
-0.126960
-0.140519
-0.118550
0.000557
0.013311
-0.019344
-0.164233
-0.146222
-0.034301
0.004436
-0.160168
0.000214
-0.038717
-0.105230
-0.061752
0.038989
-0.165003
0.039961
-0.170192
-0.104858
-0.168349
-0.063410
-0.005647
-0.015005
-0.156790
-0.047727
-0.037705
-0.105379
-0.037429
-0.100190
-0.042600
0.022670
-0.113431
-0.061390
-0.123046
-0.107721
-0.003922
0.008963
-0.143783
-0.039440
-0.086004
-0.088435
-0.096563
0.028347
0.023832
-0.124725
0.025760
0.000062
0.000295
-0.077418
0.035924
0.033234
0.000665
0.000631
-0.122529
-0.071061
-0.097735
-0.134993
-0.083770
-0.171950
-0.171355
-0.060051
-0.049545
-0.067196
-0.117796
-0.074984
-0.001148
-0.071353
-0.064199
-0.003795
0.008283
0.000350
-0.071394
-0.045928
-0.024746
-0.030019
-0.152195
0.000201
0.001354
-0.082131
-0.080482
-0.083158
-0.039564
-0.105496
-0.107317
-0.035227
-0.107047
-0.037976
-0.074527
-0.082196
-0.072335
-0.072817
-0.083364
0.000356
0.030245
0.019374
-0.120335
-0.107360
-0.168555
-0.077007
-0.076555
0.004611
-0.002684
-0.090246
-0.068426
-0.061438
-0.018295
-0.103872
-0.040738
-0.073449
-0.069651
-0.119665
0.021947
0.000856
-0.071046
-0.007893
-0.077993
-0.058418
-0.166430
-0.154238
0.000473
-0.069871
-0.115715
-0.026643
-0.082254
-0.111938
-0.150748
-0.121435
-0.128248
-0.136240
0.016808
0.032668
-0.050279
0.037786
-0.161712
0.039787
0.012888
-0.168339
-0.064266
-0.011264
-0.118612
-0.111568
-0.000667
-0.132994
-0.166552
0.038304
0.000628
-0.138104
-0.072089
-0.101875
0.023922
-0.171264
0.000456
-0.143205
-0.054572
0.010530
-0.051783
-0.031094
0.006230
-0.046210
-0.055070
-0.008200
-0.162131
0.000271
-0.121502
-0.149116
-0.158512
-0.037821
0.002708
0.000184
-0.088671
-0.062974
-0.093883
-0.078092
-0.106778
-0.082743
-0.083359
-0.040476
-0.101934
-0.041228
-0.073064
-0.079287
-0.040160
-0.106677
-0.103683
-0.039462
-0.039445
-0.066782
-0.068561
-0.069733
-0.105263
-0.097103
-0.083976
-0.064727
0.034452
-0.140731
-0.116184
-0.076888
-0.068685
-0.110807
-0.116120
-0.090442
-0.136491
-0.019772
-0.161081
0.000753
0.011204
-0.065671
-0.109612
-0.145050
-0.160132
0.000425
0.004023
0.037571
-0.000085
-0.044253
-0.119443
-0.166544
-0.168648
-0.062941
-0.047269
-0.013911
0.001221
-0.151232
0.014406
-0.099941
-0.056308
-0.074568
-0.114345
-0.129036
-0.117375
-0.123428
-0.000908
0.028145
0.019063
-0.148764
0.032907
-0.113234
0.000630
-0.084572
-0.069309
-0.075504
-0.117710
-0.005960
0.009459
-0.094166
0.036610
-0.067201
-0.074829
-0.165050
-0.139887
-0.004432
0.027151
-0.065306
-0.085180
-0.011196
0.023547
0.000627
-0.128668
-0.070169
-0.052773
-0.167692
0.008404
-0.044107
-0.053511
-0.022104
0.000925
-0.159134
-0.155804
0.000350
0.000338
-0.087089
-0.084220
-0.069544
-0.068712
-0.104196
-0.104494
-0.041019
-0.041445
-0.075050
-0.105557
-0.081202
-0.041982
-0.114422
-0.083943
-0.049105
-0.001232
-0.072794
0.015143
-0.094408
-0.102016
-0.070354
-0.077943
-0.042195
-0.069762
-0.078934
0.027036
0.023442
-0.165253
0.000844
0.003889
-0.087330
-0.082895
-0.064174
-0.009099
-0.098190
-0.162701
-0.138626
-0.004266
-0.097593
-0.074800
0.000778
0.009933
-0.045011
-0.084195
-0.157769
-0.153234
-0.065377
-0.068690
0.018288
-0.076578
0.011081
-0.018529
0.000600
-0.058720
-0.033149
0.000623
-0.067428
-0.054695
-0.118761
0.037745
-0.065306
-0.073125
-0.000811
-0.135468
0.034938
0.031510
-0.117223
-0.072921
-0.155844
-0.073572
-0.163540
0.001034
-0.167824
-0.080741
-0.100211
-0.115281
-0.013538
-0.079916
-0.112317
0.005558
0.000851
-0.003465
-0.113792
-0.062434
-0.084427
-0.164359
0.021950
-0.039579
-0.124875
-0.060824
-0.142463
0.005940
-0.007978
-0.060552
0.000547
-0.163051
-0.105443
-0.017332
-0.071186
-0.134442
0.002466
-0.157434
-0.148072
0.014959
-0.043145
-0.104023
-0.084506
-0.110310
-0.100528
-0.085048
-0.064274
-0.073937
-0.069882
-0.079179
-0.083381
-0.091475
-0.066603
-0.081938
-0.079027
-0.122862
-0.114692
-0.117565
-0.104933
-0.081633
0.036129
-0.041329
0.002126
0.024055
-0.102416
-0.105636
-0.042539
-0.070271
-0.042698
-0.104235
-0.080773
-0.041221
-0.042358
-0.074360
-0.085173
-0.061842
-0.153398
-0.112003
-0.076612
-0.117276
-0.162587
-0.111686
0.000886
-0.072481
0.015229
-0.088403
-0.062439
-0.006583
-0.010931
-0.060458
-0.088990
-0.102232
-0.098560
-0.107225
-0.144454
-0.044797
0.030325
-0.083698
0.032897
-0.125007
-0.063292
-0.082054
-0.163158
-0.046559
-0.135268
0.000905
-0.021541
-0.066450
0.003895
-0.111127
0.000712
-0.159406
0.001310
-0.154724
-0.073585
-0.081155
-0.134787
-0.113240
-0.112463
-0.080348
0.034612
0.027350
-0.116256
-0.083844
0.014949
0.000241
0.000342
-0.111846
0.018800
-0.166625
0.000986
-0.002454
-0.104282
-0.164062
0.003607
-0.078043
-0.042628
-0.107985
-0.013273
-0.033583
-0.076366
0.005086
0.029777
-0.091386
0.000787
-0.161313
0.005927
-0.066512
0.024466
-0.156116
-0.044426
-0.120069
-0.141477
0.000556
-0.029478
-0.042720
-0.150227
-0.102968
-0.021010
-0.043777
-0.049677
-0.067481
-0.076693
-0.100740
-0.103269
-0.083155
-0.094846
-0.086123
-0.015436
-0.060674
-0.067076
-0.076241
-0.071218
-0.084818
-0.081972
-0.129692
-0.082508
-0.042758
-0.064510
-0.070486
-0.041236
-0.106308
-0.076625
-0.104165
-0.043856
-0.064881
-0.103444
-0.080230
-0.071584
-0.070106
-0.086156
-0.086423
-0.057741
0.026251
0.008695
-0.109079
-0.080038
-0.004555
-0.091418
0.000728
-0.107385
-0.136564
-0.158920
0.004196
-0.066481
-0.061042
0.000831
-0.099780
-0.102221
-0.139039
-0.062265
0.011015
-0.072554
-0.162465
-0.097067
0.026723
-0.002822
-0.018917
-0.078206
-0.084755
-0.153286
-0.143212
-0.076812
-0.126494
-0.147667
-0.081612
-0.160491
-0.068740
-0.000427
-0.003826
-0.041004
0.034882
-0.109113
-0.109546
-0.007458
-0.063222
-0.106529
-0.121876
-0.062411
-0.083493
0.021674
-0.107773
-0.129913
0.031113
-0.056889
-0.112710
-0.087194
-0.012181
-0.161270
-0.075381
-0.102097
-0.107836
-0.109389
-0.022053
-0.016530
-0.027261
-0.111208
-0.112664
-0.038081
-0.156924
-0.098870
0.023711
0.018244
-0.152048
-0.070433
0.000886
0.002500
-0.044216
-0.147303
-0.155609
0.000841
-0.164804
-0.088367
-0.026443
0.000938
-0.085974
-0.049176
-0.059694
-0.080252
-0.103010
-0.071405
-0.087416
-0.044688
-0.103501
-0.065197
-0.065975
-0.070446
-0.079739
-0.111037
-0.074483
-0.084296
-0.096622
-0.064231
-0.043640
-0.054908
-0.105440
-0.083561
0.033426
-0.084020
-0.157333
-0.062085
0.000514
-0.045162
-0.066494
-0.045176
-0.070727
-0.102415
-0.089146
-0.160306
0.022969
-0.062945
-0.080454
-0.105649
0.000280
-0.108167
0.011929
-0.013797
-0.106128
-0.027901
-0.095253
-0.017085
-0.154889
-0.054733
-0.147795
-0.118733
-0.105962
-0.097953
-0.046359
-0.101747
-0.088509
-0.161960
-0.108133
0.000717
-0.059925
-0.132283
-0.113283
-0.081272
-0.108003
0.003056
-0.150051
0.032854
-0.080563
-0.104818
-0.049064
-0.023051
-0.100955
-0.083933
0.006763
-0.076709
-0.088203
0.000766
-0.101642
-0.163668
0.028112
-0.002224
-0.127577
-0.108013
-0.044513
-0.025029
0.017021
-0.001883
-0.003606
-0.159436
0.023299
0.000888
0.001567
-0.086204
-0.036642
0.000865
-0.145834
-0.153287
-0.110309
0.000857
-0.140611
-0.104987
-0.031030
0.021161
-0.067930
-0.065691
-0.137949
-0.131872
-0.005419
-0.153130
-0.148980
-0.154328
-0.089082
-0.085233
-0.159658
-0.070280
0.029674
-0.121126
-0.026268
-0.091059
-0.058664
-0.086542
-0.082665
-0.082635
-0.060880
-0.073928
-0.061864
-0.058819
-0.077832
-0.053852
-0.068121
-0.045654
-0.046368
-0.061887
-0.085763
-0.042235
0.000545
-0.105390
-0.064429
-0.072133
-0.102171
-0.108454
-0.142876
-0.040489
-0.057951
-0.160652
-0.085064
-0.102779
-0.110270
-0.067113
-0.078672
-0.066766
-0.101852
-0.067600
-0.094453
-0.045922
-0.044911
-0.087579
-0.083713
-0.057147
-0.056848
0.022027
-0.146968
-0.102520
-0.010144
-0.001262
-0.156759
-0.065585
-0.033598
-0.095809
-0.113228
-0.103944
-0.133124
-0.151791
-0.141752
0.025619
0.003113
-0.105014
-0.042445
-0.098920
-0.158291
-0.057890
0.029465
-0.085387
-0.160723
0.005034
-0.062570
-0.124596
-0.028376
0.000562
0.001938
-0.146908
-0.150699
0.000700
-0.156656
-0.042936
0.025120
-0.002967
-0.064503
-0.047049
-0.007679
-0.088888
-0.009312
0.032478
-0.027477
-0.016652
0.008985
-0.099669
-0.113708
0.011683
-0.107435
-0.104242
-0.023157
-0.081644
-0.106908
-0.045322
-0.118108
-0.107388
-0.103707
0.000668
-0.083486
-0.107739
0.000857
-0.093142
-0.101258
-0.151829
-0.107264
-0.031803
-0.131598
-0.059606
-0.123119
-0.157785
0.020408
0.014576
-0.108281
-0.106441
-0.010533
-0.076966
-0.068262
-0.092954
0.001176
-0.093517
-0.060431
-0.060011
-0.072850
-0.157979
-0.075760
-0.104302
-0.103061
-0.066974
-0.071366
-0.093567
-0.082763
-0.080914
-0.085241
-0.000956
-0.048076
-0.057956
-0.075557
-0.101022
-0.053915
-0.078123
-0.102662
-0.055853
-0.143691
-0.087276
-0.046224
-0.062474
-0.083045
-0.086149
-0.091403
-0.055262
-0.101196
-0.039439
-0.046958
-0.062427
-0.069145
-0.085022
-0.109659
-0.066116
-0.043988
-0.072903
-0.160596
-0.095212
-0.088984
-0.073312
-0.055026
-0.053453
-0.099949
-0.081457
-0.103379
-0.114496
-0.072181
0.011284
-0.018633
-0.093542
-0.027895
-0.100098
-0.058037
-0.124635
-0.009016
-0.042503
-0.058518
-0.156429
-0.086541
-0.105271
-0.124717
-0.111655
-0.104333
-0.157046
-0.086833
0.000497
0.000103
0.001308
-0.048726
-0.104922
-0.137032
-0.057817
0.027850
-0.091421
-0.151495
-0.045332
-0.023558
-0.102900
-0.104231
-0.047791
-0.097801
0.018358
-0.010691
-0.077719
-0.102616
-0.127774
-0.091852
-0.033059
-0.068717
-0.100056
-0.078584
-0.083792
0.000067
0.002397
-0.147668
0.020583
-0.051523
-0.003708
-0.144382
-0.153106
-0.031650
0.000836
-0.103026
-0.137502
-0.063192
0.030961
0.017587
-0.063994
-0.014850
0.008714
-0.094211
-0.150063
-0.116797
0.024452
-0.155987
-0.094461
-0.100235
-0.075689
-0.142326
-0.002721
-0.108662
-0.065242
-0.084231
-0.058862
-0.081715
-0.078518
-0.086358
-0.100783
-0.102094
-0.081997
-0.040472
-0.154542
-0.087394
-0.072651
-0.088768
-0.068240
-0.053908
-0.090319
-0.046465
-0.094206
-0.061997
-0.100394
-0.057865
-0.032043
-0.009550
0.034190
-0.047757
-0.063235
-0.052705
-0.058908
-0.047549
-0.025320
-0.118584
-0.063480
-0.157463
-0.099421
-0.103654
-0.102471
-0.032364
-0.060281
-0.064776
-0.069269
0.015223
-0.050728
-0.052039
-0.094079
-0.154828
-0.122310
-0.015401
-0.010359
-0.077002
-0.090922
-0.000559
-0.149834
0.008233
-0.036420
-0.103494
-0.055194
-0.036661
-0.012940
-0.041228
-0.141299
-0.100939
0.024934
-0.044547
-0.016275
-0.101914
-0.097015
-0.055880
-0.117826
-0.100153
-0.137703
-0.145508
0.014147
0.000506
-0.130559
-0.060447
-0.040760
-0.153346
0.030019
-0.097381
-0.097547
-0.051575
-0.087437
-0.024416
-0.084202
-0.104848
-0.103082
-0.095464
0.005808
-0.088446
-0.121041
-0.106104
-0.098291
-0.032127
-0.098854
0.001930
-0.115230
-0.132921
0.000555
-0.086729
-0.002852
0.022932
-0.056309
-0.061324
-0.037417
-0.095301
-0.149083
-0.014174
-0.068768
-0.154815
-0.104729
-0.019567
-0.109457
0.018344
0.000728
-0.104709
0.019171
-0.128802
-0.146369
-0.153415
-0.148467
-0.099065
-0.036584
-0.001690
-0.078889
-0.096397
-0.004517
-0.101043
-0.065043
-0.056823
-0.054378
-0.056611
-0.096806
-0.058871
0.028648
-0.056443
-0.085801
-0.063046
-0.060902
-0.079800
-0.067281
-0.074565
-0.103250
-0.048229
-0.048751
-0.088546
-0.082811
-0.080165
-0.073824
-0.051520
-0.085872
-0.075565
-0.085229
-0.098260
-0.047184
-0.102987
-0.088882
-0.029093
-0.100234
-0.021824
-0.069908
-0.068084
-0.048747
-0.154087
-0.104783
0.031465
-0.100461
-0.103540
-0.101358
-0.058215
-0.106041
0.009613
-0.061132
-0.061027
-0.090467
0.006432
-0.069651
-0.094788
-0.049977
-0.119153
-0.151542
-0.082549
-0.082633
-0.100033
-0.020825
-0.003641
-0.102253
-0.029049
-0.118198
-0.036165
-0.146594
-0.101778
-0.140151
-0.129429
-0.043596
-0.035526
-0.056394
-0.000111
-0.103117
-0.049738
0.000680
-0.147229
-0.101552
-0.054859
-0.151295
-0.102686
-0.057119
-0.004351
-0.063017
-0.055352
0.027720
0.025374
-0.101791
-0.101555
-0.053816
-0.093260
-0.073627
0.002611
-0.090257
-0.015761
-0.038778
-0.135171
-0.088062
-0.022970
-0.146959
-0.095523
-0.019003
-0.073906
-0.092847
-0.152594
-0.142549
-0.015236
0.022797
-0.114448
0.012453
0.018088
-0.109896
-0.098178
-0.075667
-0.037395
-0.125978
-0.056775
-0.008084
-0.150504
-0.135671
0.011462
-0.153616
-0.065288
-0.045764
-0.006726
0.005311
-0.099851
-0.099651
-0.099558
-0.151739
-0.054130
-0.098589
-0.102422
-0.102657
-0.098650
0.027595
-0.056379
0.000680
-0.060233
-0.127240
-0.077939
-0.055539
-0.061723
-0.051308
-0.057917
-0.069177
-0.025984
-0.012338
-0.087560
-0.105077
-0.049278
0.003205
-0.084611
-0.066215
-0.047996
-0.083303
-0.081829
-0.089800
-0.078658
-0.039302
-0.037899
-0.053120
-0.086861
-0.025600
-0.049370
-0.102468
-0.051604
-0.090595
-0.120770
-0.104188
-0.078993
-0.054026
-0.056578
-0.061179
-0.074062
-0.049067
-0.055629
-0.020319
0.004503
-0.100657
-0.070829
-0.100064
-0.032341
-0.098802
-0.097048
-0.097571
-0.093032
-0.097189
-0.089689
-0.059545
0.023976
-0.092223
0.003400
-0.094636
-0.093784
-0.047661
-0.079771
-0.020002
-0.079207
-0.015716
-0.117118
-0.100391
0.009957
-0.059594
-0.030157
-0.127788
-0.040178
-0.040740
-0.149559
-0.092936
-0.075556
-0.052300
-0.124348
0.000610
-0.040534
-0.072228
-0.149000
-0.011629
-0.067908
-0.005031
-0.099743
-0.151446
-0.098347
-0.100506
-0.097790
-0.052649
-0.048544
0.003356
-0.122061
-0.040723
-0.050884
-0.106757
-0.101627
-0.091861
-0.135139
-0.035886
-0.092049
-0.084891
-0.045700
-0.144669
-0.006072
-0.024712
0.026565
-0.143514
-0.140036
-0.101748
-0.132976
-0.106386
0.000218
-0.077319
-0.097342
-0.148226
0.016117
0.000968
-0.100671
-0.103402
-0.113672
-0.032473
-0.030199
-0.087028
-0.022730
-0.151871
0.016271
-0.013232
-0.055382
-0.019667
0.020953
0.000742
0.022476
-0.150377
0.009002
-0.017195
-0.061872
-0.065715
-0.046436
-0.104138
-0.145383
-0.097698
-0.002103
-0.100393
-0.056021
-0.019453
-0.101026
-0.054505
-0.065756
-0.071344
-0.061940
-0.051576
-0.089436
-0.110092
-0.055866
-0.081143
-0.086577
-0.103254
-0.100859
-0.102481
-0.069177
-0.056060
-0.083516
-0.068348
-0.080769
-0.092297
-0.040162
-0.085987
-0.010916
-0.054593
-0.050102
-0.053877
-0.075722
-0.088828
-0.090817
-0.102939
-0.123151
-0.053231
-0.095397
-0.050117
-0.048640
-0.050897
-0.050078
-0.101050
0.006855
-0.099245
-0.053652
-0.063249
-0.099189
-0.098788
-0.039540
0.018545
-0.072052
-0.091482
-0.147859
-0.082203
-0.018715
-0.024084
-0.094813
-0.024883
-0.130548
-0.063448
-0.013974
0.007567
-0.145012
-0.099980
-0.039372
-0.042805
-0.106965
-0.043634
-0.051679
-0.138608
-0.147642
-0.092102
-0.148876
-0.018534
0.016433
-0.005183
-0.050889
0.000252
0.000127
-0.095815
-0.049550
-0.048096
-0.100894
-0.034185
-0.029579
-0.072616
-0.006739
0.023765
0.020221
0.008058
-0.099946
-0.148869
-0.144408
-0.084655
-0.104905
-0.114340
-0.100301
-0.026934
-0.090224
-0.041037
-0.100371
-0.097916
-0.051058
-0.020776
-0.075759
0.014843
-0.001337
-0.023671
-0.118310
-0.048317
-0.108934
-0.070601
0.000042
-0.053959
-0.011456
-0.036588