# vtk DataFile Version 2.0
Test
ASCII
DATASET POLYDATA
POINTS 4677 float
0.000000 0.000000 0.000000
0.080000 0.000000 0.000000
0.080000 0.160000 0.000000
0.000000 0.160000 0.000000
0.036000 0.073072 0.000000
0.044000 0.086928 0.000000
0.024500 0.065566 0.000000
0.055500 0.093560 0.000000
0.001000 0.050000 0.000000
0.079000 0.110000 0.000000
0.002963 0.000000 0.000000
0.005926 0.000000 0.000000
0.008889 0.000000 0.000000
0.011852 0.000000 0.000000
0.014815 0.000000 0.000000
0.017778 0.000000 0.000000
0.020741 0.000000 0.000000
0.023704 0.000000 0.000000
0.026667 0.000000 0.000000
0.029630 0.000000 0.000000
0.032593 0.000000 0.000000
0.035556 0.000000 0.000000
0.038519 0.000000 0.000000
0.041481 0.000000 0.000000
0.044444 0.000000 0.000000
0.047407 0.000000 0.000000
0.050370 0.000000 0.000000
0.053333 0.000000 0.000000
0.056296 0.000000 0.000000
0.059259 0.000000 0.000000
0.062222 0.000000 0.000000
0.065185 0.000000 0.000000
0.068148 0.000000 0.000000
0.071111 0.000000 0.000000
0.074074 0.000000 0.000000
0.077037 0.000000 0.000000
0.080000 0.002963 0.000000
0.080000 0.005926 0.000000
0.080000 0.008889 0.000000
0.080000 0.011852 0.000000
0.080000 0.014815 0.000000
0.080000 0.017778 0.000000
0.080000 0.020741 0.000000
0.080000 0.023704 0.000000
0.080000 0.026667 0.000000
0.080000 0.029630 0.000000
0.080000 0.032593 0.000000
0.080000 0.035556 0.000000
0.080000 0.038519 0.000000
0.080000 0.041481 0.000000
0.080000 0.044444 0.000000
0.080000 0.047407 0.000000
0.080000 0.050370 0.000000
0.080000 0.053333 0.000000
0.080000 0.056296 0.000000
0.080000 0.059259 0.000000
0.080000 0.062222 0.000000
0.080000 0.065185 0.000000
0.080000 0.068148 0.000000
0.080000 0.071111 0.000000
0.080000 0.074074 0.000000
0.080000 0.077037 0.000000
0.080000 0.080000 0.000000
0.080000 0.082963 0.000000
0.080000 0.085926 0.000000
0.080000 0.088889 0.000000
0.080000 0.091852 0.000000
0.080000 0.094815 0.000000
0.080000 0.097778 0.000000
0.080000 0.100741 0.000000
0.080000 0.103704 0.000000
0.080000 0.106667 0.000000
0.080000 0.109630 0.000000
0.080000 0.112593 0.000000
0.080000 0.115556 0.000000
0.080000 0.118519 0.000000
0.080000 0.121481 0.000000
0.080000 0.124444 0.000000
0.080000 0.127407 0.000000
0.080000 0.130370 0.000000
0.080000 0.133333 0.000000
0.080000 0.136296 0.000000
0.080000 0.139259 0.000000
0.080000 0.142222 0.000000
0.080000 0.145185 0.000000
0.080000 0.148148 0.000000
0.080000 0.151111 0.000000
0.080000 0.154074 0.000000
0.080000 0.157037 0.000000
0.077037 0.160000 0.000000
0.074074 0.160000 0.000000
0.071111 0.160000 0.000000
0.068148 0.160000 0.000000
0.065185 0.160000 0.000000
0.062222 0.160000 0.000000
0.059259 0.160000 0.000000
0.056296 0.160000 0.000000
0.053333 0.160000 0.000000
0.050370 0.160000 0.000000
0.047407 0.160000 0.000000
0.044444 0.160000 0.000000
0.041481 0.160000 0.000000
0.038519 0.160000 0.000000
0.035556 0.160000 0.000000
0.032593 0.160000 0.000000
0.029630 0.160000 0.000000
0.026667 0.160000 0.000000
0.023704 0.160000 0.000000
0.020741 0.160000 0.000000
0.017778 0.160000 0.000000
0.014815 0.160000 0.000000
0.011852 0.160000 0.000000
0.008889 0.160000 0.000000
0.005926 0.160000 0.000000
0.002963 0.160000 0.000000
0.000000 0.157037 0.000000
0.000000 0.154074 0.000000
0.000000 0.151111 0.000000
0.000000 0.148148 0.000000
0.000000 0.145185 0.000000
0.000000 0.142222 0.000000
0.000000 0.139259 0.000000
0.000000 0.136296 0.000000
0.000000 0.133333 0.000000
0.000000 0.130370 0.000000
0.000000 0.127407 0.000000
0.000000 0.124444 0.000000
0.000000 0.121481 0.000000
0.000000 0.118519 0.000000
0.000000 0.115556 0.000000
0.000000 0.112593 0.000000
0.000000 0.109630 0.000000
0.000000 0.106667 0.000000
0.000000 0.103704 0.000000
0.000000 0.100741 0.000000
0.000000 0.097778 0.000000
0.000000 0.094815 0.000000
0.000000 0.091852 0.000000
0.000000 0.088889 0.000000
0.000000 0.085926 0.000000
0.000000 0.082963 0.000000
0.000000 0.080000 0.000000
0.000000 0.077037 0.000000
0.000000 0.074074 0.000000
0.000000 0.071111 0.000000
0.000000 0.068148 0.000000
0.000000 0.065185 0.000000
0.000000 0.062222 0.000000
0.000000 0.059259 0.000000
0.000000 0.056296 0.000000
0.000000 0.053333 0.000000
0.000000 0.050370 0.000000
0.000000 0.047407 0.000000
0.000000 0.044444 0.000000
0.000000 0.041481 0.000000
0.000000 0.038519 0.000000
0.000000 0.035556 0.000000
0.000000 0.032593 0.000000
0.000000 0.029630 0.000000
0.000000 0.026667 0.000000
0.000000 0.023704 0.000000
0.000000 0.020741 0.000000
0.000000 0.017778 0.000000
0.000000 0.014815 0.000000
0.000000 0.011852 0.000000
0.000000 0.008889 0.000000
0.000000 0.005926 0.000000
0.000000 0.002963 0.000000
0.035500 0.072746 0.000000
0.035000 0.072419 0.000000
0.034500 0.072093 0.000000
0.034000 0.071767 0.000000
0.033500 0.071440 0.000000
0.033000 0.071114 0.000000
0.032500 0.070788 0.000000
0.032000 0.070461 0.000000
0.031500 0.070135 0.000000
0.031000 0.069809 0.000000
0.030500 0.069482 0.000000
0.030000 0.069156 0.000000
0.029500 0.068829 0.000000
0.029000 0.068503 0.000000
0.028500 0.068177 0.000000
0.028000 0.067850 0.000000
0.027500 0.067524 0.000000
0.027000 0.067198 0.000000
0.026500 0.066871 0.000000
0.026000 0.066545 0.000000
0.025500 0.066219 0.000000
0.025000 0.065892 0.000000
0.044500 0.087216 0.000000
0.045000 0.087505 0.000000
0.045500 0.087793 0.000000
0.046000 0.088081 0.000000
0.046500 0.088370 0.000000
0.047000 0.088658 0.000000
0.047500 0.088946 0.000000
0.048000 0.089235 0.000000
0.048500 0.089523 0.000000
0.049000 0.089811 0.000000
0.049500 0.090100 0.000000
0.050000 0.090388 0.000000
0.050500 0.090677 0.000000
0.051000 0.090965 0.000000
0.051500 0.091253 0.000000
0.052000 0.091542 0.000000
0.052500 0.091830 0.000000
0.053000 0.092118 0.000000
0.053500 0.092407 0.000000
0.054000 0.092695 0.000000
0.054500 0.092983 0.000000
0.055000 0.093272 0.000000
0.043704 0.086415 0.000000
0.043407 0.085902 0.000000
0.043111 0.085388 0.000000
0.042815 0.084875 0.000000
0.042519 0.084362 0.000000
0.042222 0.083849 0.000000
0.041926 0.083336 0.000000
0.041630 0.082823 0.000000
0.041333 0.082309 0.000000
0.041037 0.081796 0.000000
0.040741 0.081283 0.000000
0.040444 0.080770 0.000000
0.040148 0.080257 0.000000
0.039852 0.079743 0.000000
0.039556 0.079230 0.000000
0.039259 0.078717 0.000000
0.038963 0.078204 0.000000
0.038667 0.077691 0.000000
0.038370 0.077177 0.000000
0.038074 0.076664 0.000000
0.037778 0.076151 0.000000
0.037481 0.075638 0.000000
0.037185 0.075125 0.000000
0.036889 0.074612 0.000000
0.036593 0.074098 0.000000
0.036296 0.073585 0.000000
0.024000 0.065235 0.000000
0.023500 0.064904 0.000000
0.023000 0.064572 0.000000
0.022500 0.064241 0.000000
0.022000 0.063910 0.000000
0.021500 0.063579 0.000000
0.021000 0.063248 0.000000
0.020500 0.062916 0.000000
0.020000 0.062585 0.000000
0.019500 0.062254 0.000000
0.019000 0.061923 0.000000
0.018500 0.061592 0.000000
0.018000 0.061261 0.000000
0.017500 0.060929 0.000000
0.017000 0.060598 0.000000
0.016500 0.060267 0.000000
0.016000 0.059936 0.000000
0.015500 0.059605 0.000000
0.015000 0.059273 0.000000
0.014500 0.058942 0.000000
0.014000 0.058611 0.000000
0.013500 0.058280 0.000000
0.013000 0.057949 0.000000
0.012500 0.057617 0.000000
0.012000 0.057286 0.000000
0.011500 0.056955 0.000000
0.011000 0.056624 0.000000
0.010500 0.056293 0.000000
0.010000 0.055961 0.000000
0.009500 0.055630 0.000000
0.009000 0.055299 0.000000
0.008500 0.054968 0.000000
0.008000 0.054637 0.000000
0.007500 0.054305 0.000000
0.007000 0.053974 0.000000
0.006500 0.053643 0.000000
0.006000 0.053312 0.000000
0.005500 0.052981 0.000000
0.005000 0.052650 0.000000
0.004500 0.052318 0.000000
0.004000 0.051987 0.000000
0.003500 0.051656 0.000000
0.003000 0.051325 0.000000
0.002500 0.050994 0.000000
0.002000 0.050662 0.000000
0.001500 0.050331 0.000000
0.055990 0.093902 0.000000
0.056479 0.094245 0.000000
0.056969 0.094587 0.000000
0.057458 0.094930 0.000000
0.057948 0.095272 0.000000
0.058437 0.095615 0.000000
0.058927 0.095957 0.000000
0.059417 0.096300 0.000000
0.059906 0.096642 0.000000
0.060396 0.096985 0.000000
0.060885 0.097327 0.000000
0.061375 0.097670 0.000000
0.061865 0.098012 0.000000
0.062354 0.098355 0.000000
0.062844 0.098697 0.000000
0.063333 0.099040 0.000000
0.063823 0.099382 0.000000
0.064312 0.099725 0.000000
0.064802 0.100067 0.000000
0.065292 0.100410 0.000000
0.065781 0.100752 0.000000
0.066271 0.101095 0.000000
0.066760 0.101437 0.000000
0.067250 0.101780 0.000000
0.067740 0.102122 0.000000
0.068229 0.102465 0.000000
0.068719 0.102807 0.000000
0.069208 0.103150 0.000000
0.069698 0.103492 0.000000
0.070187 0.103835 0.000000
0.070677 0.104177 0.000000
0.071167 0.104520 0.000000
0.071656 0.104862 0.000000
0.072146 0.105205 0.000000
0.072635 0.105547 0.000000
0.073125 0.105890 0.000000
0.073615 0.106232 0.000000
0.074104 0.106575 0.000000
0.074594 0.106917 0.000000
0.075083 0.107260 0.000000
0.075573 0.107602 0.000000
0.076062 0.107945 0.000000
0.076552 0.108287 0.000000
0.077042 0.108630 0.000000
0.077531 0.108972 0.000000
0.078021 0.109315 0.000000
0.078510 0.109658 0.000000
0.043942 0.087469 0.000000
0.035556 0.157037 0.000000
0.044420 0.002920 0.000000
0.077037 0.038519 0.000000
0.002963 0.121481 0.000000
0.077037 0.059259 0.000000
0.002963 0.109630 0.000000
0.002923 0.098139 0.000000
0.077153 0.126913 0.000000
0.002808 0.032596 0.000000
0.077140 0.071061 0.000000
0.002963 0.085926 0.000000
0.002963 0.136296 0.000000
0.077041 0.023701 0.000000
0.056296 0.157037 0.000000
0.032593 0.002963 0.000000
0.077037 0.080000 0.000000
0.002813 0.077135 0.000000
0.077037 0.142222 0.000000
0.017778 0.157037 0.000000
0.062222 0.002963 0.000000
0.076992 0.088722 0.000000
0.002945 0.020743 0.000000
0.017777 0.002962 0.000000
0.002801 0.068434 0.000000
0.002959 0.011851 0.000000
0.065186 0.157038 0.000000
0.002963 0.148148 0.000000
0.077037 0.011852 0.000000
0.076887 0.094740 0.000000
0.077092 0.115875 0.000000
0.002677 0.044265 0.000000
0.077038 0.148148 0.000000
0.002985 0.062165 0.000000
0.077037 0.047407 0.000000
0.011852 0.002963 0.000000
[...]
POINT_DATA 4677
SCALARS UX float 1
LOOKUP_TABLE default
-0.000000
0.000001
0.065890
0.032015
0.013340
0.017548
-0.015146
0.072021
-0.030864
0.084939
-0.000000
-0.000000
-0.000000
-0.000000
-0.000000
-0.000000
-0.000000
-0.000000
-0.000000
-0.000000
-0.000000
-0.000000
-0.000000
0.000000
0.000000
0.000000
0.000000
0.000000
0.000000
0.000000
0.000000
0.000000
0.000000
0.000000
0.000000
-0.000000
0.002780
0.004150
0.005166
0.006101
0.007014
0.007949
0.008926
0.009979
0.011123
0.012370
0.013635
0.015056
0.016535
0.018026
0.019472
0.021238
0.023316
0.025417
0.027917
0.030433
0.033681
0.039372
0.046179
0.057396
0.075494
0.086706
0.088726
0.089703
0.089158
0.088450
0.087293
0.086115
0.085136
0.084707
0.084746
0.084903
0.085211
0.086049
0.086387
0.086238
0.086109
0.085234
0.087109
0.088686
0.076894
0.071377
0.068770
0.067227
0.066530
0.066135
0.065841
0.065876
0.065852
0.064665
0.063354
0.061985
0.060561
0.059101
0.057631
0.056140
0.054706
0.053376
0.052168
0.051055
0.049898
0.048627
0.047277
0.045961
0.044693
0.043392
0.042055
0.040670
0.039394
0.038167
0.036942
0.035851
0.034833
0.033893
0.032932
0.032181
0.032617
0.033157
0.033706
0.034226
0.034476
0.033849
0.031970
0.028057
0.020064
0.008810
-0.000955
-0.000841
-0.000039
0.000810
0.001165
0.001074
0.000588
-0.000345
-0.001698
-0.003333
-0.005255
-0.007359
-0.009591
-0.012022
-0.014497
-0.016775
-0.018748
-0.020617
-0.022075
-0.023339
-0.024499
-0.025684
-0.026986
-0.028399
-0.029834
-0.031040
-0.031508
-0.031349
-0.030335
-0.029524
-0.025204
-0.021751
-0.020879
-0.019051
-0.013491
-0.011369
-0.009178
-0.008275
-0.007681
-0.006722
-0.005362
-0.003729
0.015641
0.013058
0.010412
0.010484
0.010062
0.007851
0.007271
0.007377
-0.001163
-0.005120
-0.008807
-0.015876
-0.010281
-0.010429
-0.010744
-0.009190
-0.010929
-0.012646
-0.015756
-0.016744
-0.015496
-0.013446
0.020350
0.021384
0.028089
0.032342
0.033802
0.036205
0.039587
0.041339
0.048211
0.039756
0.039444
0.039094
0.045972
0.051997
0.052909
0.056686
0.069630
0.068951
0.063416
0.065768
0.067828
0.070407
0.016522
0.016907
0.015898
0.015414
0.013848
0.013074
0.013974
0.016335
0.016450
0.016367
0.016882
0.017256
0.016805
0.016444
0.016601
0.016413
0.016414
0.015856
0.015506
0.015213
0.014962
0.014952
0.014840
0.014659
0.014442
0.014087
-0.015922
-0.016077
-0.015996
-0.015814
-0.016210
-0.016685
-0.017083
-0.017522
-0.018026
-0.018506
-0.018969
-0.019426
-0.019892
-0.020360
-0.020828
-0.021218
-0.021606
-0.021955
-0.022338
-0.022720
-0.022962
-0.023323
-0.023623
-0.023987
-0.024352
-0.024688
-0.025060
-0.025409
-0.025711
-0.026057
-0.026412
-0.026713
-0.027023
-0.027338
-0.027650
-0.027953
-0.028239
-0.028515
-0.028778
-0.029059
-0.029344
-0.029617
-0.029884
-0.030138
-0.030396
-0.030631
0.072154
0.073354
0.074186
0.074803
0.075179
0.075596
0.076098
0.076413
0.076635
0.076914
0.077151
0.077347
0.077572
0.077715
0.077859
0.077984
0.078153
0.078307
0.078498
0.078690
0.078890
0.079092
0.079293
0.079497
0.079701
0.079901
0.080085
0.080260
0.080426
0.080586
0.080746
0.080901
0.081061
0.081238
0.081435
0.081634
0.081860
0.082086
0.082291
0.082526
0.082748
0.083057
0.083354
0.083637
0.083961
0.084226
0.084586
0.014476
0.045948
-0.000041
0.015404
0.002760
0.029217
0.002681
-0.001736
0.081486
-0.019765
0.050857
-0.011007
0.034420
0.008867
0.054687
-0.000384
0.086201
-0.018045
0.065129
0.038142
0.000141
0.087518
-0.009328
-0.000567
-0.022668
-0.006961
0.059087
0.034573
0.004983
0.084877
0.084929
-0.030585
0.064458
-0.024977
0.020046
-0.000574
0.061983
0.033931
0.000697
-0.026283
0.083625
0.071832
0.048665
0.050974
-0.000303
0.025279
0.011216
0.040686
0.000075
0.064692
0.084566
-0.029378
0.020670
0.083816
-0.027236
-0.027533
-0.019926
0.087956
-0.005809
-0.013678
0.035945
0.067557
0.024261
0.001176
0.083369
0.002491
-0.017709
-0.014417
0.016804
0.043414
0.067959
0.000033
-0.000090
0.017302
0.012530
-0.000173
-0.008286
-0.000476
0.056140
0.052090
0.035609
0.006867
-0.005829
-0.000908
-0.003805
0.035930
0.000324
0.064549
-0.001603
-0.001910
0.033398
0.002712
0.033028
0.001169
0.084324
0.009855
-0.030561
-0.029636
0.083988
0.007632
-0.000206
0.014323
0.053426
-0.015318
-0.012351
0.082573
0.052060
0.031260
0.064847
-0.000777
-0.028430
-0.007422
-0.025405
0.083697
0.082385
0.054527
-0.005709
-0.001745
-0.003256
0.063109
0.034260
0.001599
0.084955
-0.031003
0.084246
-0.023761
0.086344
-0.021436
-0.030451
0.088241
0.083800
-0.023816
0.084491
-0.015837
0.079723
-0.007850
-0.003548
0.041026
0.031721
-0.000238
0.002191
0.026698
0.002698
0.021915
0.082975
0.018352
0.002075
0.047341
0.008669
0.013938
0.044704
0.000002
0.049874
-0.010849
0.042064
0.000054
-0.000233
0.066246
0.031668
0.009994
0.053341
-0.000314
0.039338
0.000101
-0.007479
-0.000588
0.057602
0.035693
0.007828
-0.000469
0.035141
0.005929
0.060560
0.064631
0.037030
0.000198
0.063368
0.064666
0.034899
0.000497
0.033972
0.003957
-0.030770
0.084654
0.083968
-0.026627
-0.030256
0.018413
0.008607
0.083762
-0.028627
0.083020
-0.027728
0.023406
0.021929
0.025013
0.029290
-0.003184
0.003675
0.081239
-0.027367
0.044656
0.039390
-0.020699
0.000154
0.008894
0.085424
0.036773
0.037054
0.083258
0.004818
0.035894
0.000571
0.083895
-0.030373
0.078227
0.025090
0.004132
0.020704
0.004633
0.049806
0.034646
0.057549
-0.001122
-0.001131
0.034758
0.060516
0.063258
-0.030714
0.084519
-0.030304
0.083930
0.080066
-0.023508
0.080669
-0.015428
-0.028214
0.087246
0.086283
0.001091
0.082995
-0.018693
-0.024926
-0.029579
0.036385
0.042720
-0.007621
0.013019
-0.000505
-0.000328
-0.011756
0.017368
0.015804
0.000022
-0.000075
-0.009961
0.074330
0.050961
0.042072
0.053229
0.015655
0.024721
0.063741
0.063020
0.067137
0.047226
-0.008405
-0.000776
0.056056
-0.006652
-0.000994
0.006746
0.000290
-0.008209
-0.004964
-0.002370
0.063358
0.035167
0.001043
0.002746
-0.016245
0.005579
0.010898
0.083549
-0.030035
-0.029943
0.085087
-0.031051
0.083921
0.008583
0.023915
0.019762
0.024105
0.005457
-0.000483
0.014654
0.036576
-0.007016
0.049798
0.023919
-0.012403
0.066505
0.084472
-0.001061
0.053397
-0.007671
-0.006221
-0.002553
-0.030113
0.083319
0.074159
0.025710
-0.019341
0.011784
-0.000116
0.062561
-0.001654
0.056113
0.061662
0.036471
0.035567
0.001853
0.019358
-0.021878
0.084278
-0.016230
-0.024265
0.002649
-0.017490
-0.004958
-0.001454
0.010186
0.031717
0.083038
0.027264
0.004088
0.022768
0.071801
0.004152
0.076955
0.086216
-0.009342
0.048508
-0.000666
0.043435
0.036678
0.018908
0.000093
0.040742
-0.008908
0.050873
0.011904
0.008351
0.000215
0.038149
0.063268
0.007773
-0.005595
-0.003999
0.005771
0.061863
0.059051
-0.001256
0.036412
0.000397
0.045915
0.036086
0.035337
0.061951
0.003829
0.000769
-0.026689
0.080335
-0.028675
0.004886
-0.028896
0.004863
0.013506
0.083127
-0.030388
0.083737
0.008967
0.029481
0.083169
-0.029539
-0.030464
0.083448
0.083876
0.026226
0.026649
0.027932
-0.029671
-0.029540
0.004609
0.026681
0.026062
0.002111
-0.006452
-0.012394
0.078789
0.049635
-0.018328
-0.027512
0.042071
0.084532
0.037563
0.000309
0.007819
-0.007707
-0.023802
0.038347
0.005526
0.000743
0.004708
0.021031
-0.000685
0.083041
0.047300
0.006522
0.014418
0.061708
-0.005661
-0.002142
0.002786
0.036411
0.043151
-0.029951
0.081412
0.068355
-0.020702
-0.002127
-0.011504
-0.004558
-0.000885
0.030010
0.010352
0.003934
0.016009
0.048711
-0.000300
-0.023189
0.077247
0.063798
-0.015429
0.086299
0.079138
0.052094
0.019145
0.062052
-0.010939
0.037523
0.040721
-0.001309
0.013187
-0.007130
0.054748
-0.002013
0.032997
0.000422
0.044573
0.057555
0.060439
0.033272
0.006691
-0.005116
0.061737
-0.003171
0.000057
0.037092
0.036059
0.000986
0.001323
-0.025703
0.007080
0.022932
0.027974
-0.029804
-0.029384
0.083097
0.082794
0.004686
-0.028600
0.004119
0.082429
-0.022873
0.024426
0.082753
0.085779
0.068699
0.057453
-0.028825
-0.030131
0.017144
0.028242
0.083196
0.009360
0.034649
0.013493
0.027798
0.019286
-0.000341
0.073388
-0.026380
0.063281
0.080217
0.084224
0.053510
0.039205
0.041873
-0.001411
-0.029487
0.060516
0.000523
0.007069
0.082456
0.056098
0.038310
0.036812
0.025626
-0.008392
0.009745
0.070824
0.033265
-0.002592
0.001164
-0.006392
-0.004114
0.002024
0.021006
0.081518
-0.004392
0.023083
0.017525
-0.010073
-0.000911
0.000226
0.017463
0.028037
0.048193
0.075428
0.005149
0.033301
0.005582
-0.000076
0.009147
0.061573
0.051991
-0.016693
0.084834
0.066343
-0.021425
0.050252
0.000188
0.083629
-0.008486
-0.006679
-0.025310
0.033379
0.010945
-0.004961
0.045922
0.060366
0.039508
0.005669
-0.001809
0.059023
0.000556
0.037840
0.050826
-0.002981
0.060399
0.043308
0.003757
0.036581
0.037322
0.009013
0.082262
-0.028718
0.005228
-0.023060
-0.029796
0.015842
0.027314
0.004412
0.004610
0.003656
0.003828
-0.028123
0.018650
0.031105
0.036864
-0.002130
-0.019725
-0.013639
-0.028149
0.064403
0.024583
0.082938
0.087083
0.069901
-0.029833
-0.028985
0.082207
0.027849
0.082843
-0.029597
-0.017575
0.082737
0.082466
0.030601
0.004863
0.026263
0.006203
-0.005607
0.074469
0.048469
0.032108
-0.017483
-0.000272
-0.010005
0.008823
-0.027275
0.080248
-0.001892
0.082000
-0.007005
0.060892
0.052004
-0.029411
-0.023404
0.039683
0.082131
0.025267
0.065167
0.017392
0.045831
0.020909
0.059350
0.007390
-0.005653
0.043103
0.000334
-0.003288
0.058987
0.004582
-0.020160
0.000905
0.038771
0.002836
0.037286
0.002556
0.037679
0.001471
-0.014819
-0.010484
-0.019782
0.022401
0.026594
-0.003107
-0.023351
0.008758
0.079961
-0.000647
-0.022289
0.030573
0.011976
0.000132
-0.001182
-0.027683
0.038421
0.063838
0.061200
0.082619
0.050690
-0.002190
-0.004344
0.057562
0.037527
0.014880
0.054732
0.000695
0.039071
0.005601
0.060356
0.012163
0.037803
0.081800
0.047005
0.040774
0.001513
-0.003505
0.082107
0.037652
-0.028213
0.083233
0.082193
0.082079
0.007613
0.039446
-0.029590
-0.029440
0.064341
-0.028965
0.008105
0.083511
0.027042
0.023479
0.003253
0.031290
0.003994
0.003360
-0.000121
0.025154
0.082481
0.022035
0.034227
0.082478
-0.028191
-0.012930
-0.029081
0.082006
0.028257
-0.028518
0.069157
-0.009553
0.029017
0.004575
0.063198
0.026603
0.024057
0.030033
-0.004507
-0.017686
0.064802
-0.028445
0.000530
0.051834
0.043008
0.040573
0.004810
0.032948
0.023395
0.001049
-0.029287
-0.028499
0.002695
-0.007091
0.007258
-0.010144
0.019372
0.054735
0.013919
0.040312
-0.002987
0.057744
0.059690
0.038543
0.040826
0.002343
0.000114
0.005035
0.022208
0.007051
-0.008799
-0.000818
-0.001512
0.082479
0.020535
-0.022055
-0.020915
0.079635
0.018613
-0.027732
0.047007
0.025255
-0.023464
0.026087
-0.022764
0.044519
0.015894
-0.006292
-0.012510
0.059724
-0.002402
0.039547
0.059194
-0.029322
-0.024229
-0.007477
0.081870
0.081882
-0.003757
-0.018822
0.049577
-0.005019
0.040059
0.053648
0.012383
0.009981
0.038059
0.059045
0.002160
0.003739
0.082188
0.038629
0.039543
0.001322
0.009258
0.062148
0.082813
0.000003
0.006436
0.081633
0.079821
0.039457
-0.028943
0.077676
0.062415
0.081911
-0.027292
0.029286
0.009032
0.001982
0.002918
-0.016304
0.041269
0.003329
-0.029066
0.024832
0.081830
0.081079
-0.027811
0.010006
0.024266
0.067157
0.006859
0.027834
-0.000575
0.081678
0.030535
0.081561
0.036793
-0.027931
0.061332
0.031002
0.012484
0.030986
-0.018014
-0.006375
-0.000480
-0.017184
0.008020
0.078200
-0.021336
0.081571
0.059173
-0.002971
0.041472
-0.006329
0.006191
0.048014
-0.023820
-0.028883
0.081519
-0.028214
0.058598
0.010038
-0.013509
0.001468
0.024321
0.044165
-0.002800
0.057952
-0.009294
0.003868
0.039275
0.021125
0.002295
-0.022846
0.081410
0.080674
-0.028877
0.011253
0.005838
-0.013987
-0.027524
0.032141
0.053003
0.012890
0.015100
0.074472
0.045545
-0.019666
-0.005621
-0.003849
0.028338
-0.001122
0.052574
0.040055
0.025100
0.000250
0.002970
0.056377
-0.005019
0.000790
0.039883
0.007706
0.050715
0.001671
0.041882
-0.027428
-0.004384
0.011123
-0.008311
0.078874
0.003560
0.001793
-0.001830
0.040803
0.038920
0.039040
0.062016
-0.025305
0.040800
0.078358
0.023157
-0.001434
0.083577
0.061004
0.025709
0.005521
0.002794
0.024058
0.022244
0.001656
0.020017
0.079662
0.041356
0.080803
0.003192
0.081472
0.081301
0.028694
0.003626
0.082108
-0.000208
-0.022146
0.011020
0.034386
-0.028773
-0.027571
0.003791
0.082719
0.027361
0.008564
0.008559
-0.026956
-0.024659
-0.008160
0.074095
0.036422
-0.027578
0.039530
-0.028771
0.081771
0.081566
0.005233
0.002329
0.025038
0.028089
0.023810
0.007244
-0.005553
0.047559
-0.000719
0.040377
0.078595
0.081164
-0.028409
0.050799
-0.021604
0.044330
0.042188
0.041935
0.013455
0.028849
-0.024335
-0.005677
0.054081
0.010450
-0.006547
0.016389
0.008111
0.019032
0.004889
0.037359
0.000608
-0.004405
0.000465
0.003052
0.040062
0.039708
0.001132
0.042005
0.081895
0.022047
-0.001377
-0.007834
0.081155
0.035362
0.056722
0.070905
0.019111
0.080685
0.080386
0.006921
-0.028511
0.049544
0.027184
-0.015363
-0.023333
-0.003435
-0.019000
-0.020434
0.081464
-0.001352
-0.024998
-0.008166
0.000114
0.058267
-0.011345
0.001821
0.058757
-0.027170
0.040236
-0.018479
0.082723
0.002736
0.029601
0.046947
0.042039
0.011261
0.009031
0.052015
-0.003920
-0.002340
-0.013467
-0.008592
0.060167
0.002291
0.060419
0.021039
0.019766
0.076737
0.008454
0.075109
-0.026961
-0.026542
0.004262
0.001053
0.060504
0.013262
0.028370
0.002785
-0.000874
0.081160
0.079808
0.038235
-0.028542
0.080685
0.001788
-0.022272
0.026139
0.004890
0.004218
0.081354
0.033445
0.067856
0.006721
-0.028379
0.026841
-0.027880
0.082940
0.081141
0.011206
0.036995
-0.024548
-0.026796
0.042267
0.081717
-0.010539
0.012775
0.058702
0.004958
-0.010163
0.028880
0.025482
-0.004924
-0.019218
-0.016316
0.051010
0.076608
0.008092
0.078465
-0.027971
0.079911
0.058109
0.020974
0.001605
-0.002111
0.082030
0.034674
0.013018
0.002541
-0.019161
0.046995
-0.002166
-0.025009
0.031310
0.007756
0.001547
0.000292
0.002533
-0.006031
-0.026385
0.004320
0.024273
0.014945
0.057526
0.008643
0.081453
-0.003687
-0.012270
-0.020645
0.080992
-0.028219
0.025069
0.056851
-0.013600
-0.010142
0.045856
0.056949
-0.004927
-0.008660
-0.007229
0.073737
0.072082
-0.000231
0.003724
0.040381
0.011352
0.080658
0.030187
0.040985
0.042787
0.082032
0.000797
0.053439
0.043044
0.078888
0.020092
0.010107
-0.007491
-0.002691
0.007113
0.059211
0.041424
0.049388
0.022752
0.042916
0.060176
-0.028177
0.001071
0.005544
-0.001126
-0.025969
0.005418
0.009842
0.031870
0.016730
0.033616
0.003274
-0.027547
-0.026252
0.001874
0.082632
0.009686
0.006465
0.039025
-0.027699
0.001435
0.027497
0.062075
0.081201
0.055516
-0.007148
-0.026941
0.022844
0.083209
0.041020
0.019112
0.081003
0.039782
0.026266
0.018808
0.080988
-0.003941
-0.000174
0.038405
0.017573
0.058780
-0.023788
-0.022869
0.080571
0.012117
0.040522
-0.008309
0.024130
0.025605
0.028106
0.058681
0.029354
0.001635
0.057264
0.030415
0.074573
-0.027536
-0.000064
0.043461
0.007119
0.081565
0.057400
0.022539
0.080374
-0.002396
-0.005367
0.006567
-0.022422
0.020687
0.081484
0.075871
-0.023308
-0.006516
0.032894
0.049945
-0.027224
0.043405
0.041147
0.009115
0.001134
0.003414
-0.007056
0.082093
0.043437
0.018237
0.055728
-0.010848
0.080569
0.002988
0.079827
0.070746
-0.017533
-0.013870
-0.027863
0.006105
0.007493
0.048098
-0.025725
-0.009021
0.079917
-0.027919
0.003434
-0.000306
0.044834
0.001977
0.066007
-0.000727
0.012332
0.018626
0.036984
0.082944
0.057915
0.040735
0.039359
0.077693
0.043204
-0.019926
-0.003324
0.052234
0.010256
0.000713
-0.003302
0.022748
0.045917
0.008307
0.011683
0.042822
0.058726
-0.004998
0.027527
-0.014719
0.058161
-0.001551
0.054584
-0.007754
0.019993
0.024696
0.030606
0.058806
0.023508
0.016581
0.079999
0.008625
0.004936
0.006083
0.001481
0.001795
0.000878
-0.026162
0.080884
0.080759
0.003920
0.012731
0.025536
-0.009964
0.026919
-0.025258
0.040798
0.002012
0.056130
0.081035
-0.024302
0.006105
-0.004245
-0.027719
0.079529
0.040849
0.043866
0.080810
0.016797
-0.018325
0.017872
-0.026647
-0.021120
-0.025967
0.039739
-0.027120
0.025409
0.040000
0.025411
0.004623
0.024057
-0.008083
-0.005799
0.026142
0.001651
0.027739
-0.023256
0.072200
-0.016852
0.076587
-0.000618
-0.020084
0.079237
0.050159
0.079842
0.044110
-0.021271
0.007646
0.046056
0.081428
-0.004830
0.080024
0.001507
0.057500
0.080608
0.002655
0.042272
-0.023660
0.019810
0.043939
-0.024907
0.047692
-0.001349
0.001702
0.023975
0.017349
0.013719
0.054607
-0.025661
0.031384
-0.009484
0.045775
0.004224
0.007139
0.071920
0.082378
0.044733
-0.026418
-0.003620
0.041448
-0.007990
-0.003141
0.075952
0.061178
0.044105
0.042198
0.049338
0.021582
0.051478
0.008073
0.010145
-0.001816
-0.004293
-0.010726
0.080901
0.047235
0.031945
-0.001838
0.009979
0.004855
0.023352
0.040129
-0.007690
-0.005777
0.028047
0.006187
0.057357
-0.025928
-0.026744
0.014226
0.023383
0.057790
-0.019426
-0.018710
0.057078
0.019078
-0.006409
0.000484
-0.006909
0.003228
0.000652
0.021403
0.079247
0.024965
0.010987
0.045572
-0.004073
0.033133
0.008742
0.053280
0.027352
0.026529
0.009381
0.002144
0.080817
0.001489
0.015002
0.003608
0.034600
0.082469
0.082213
0.029727
0.002168
0.079133
0.080727
-0.025824
0.080459
0.005766
0.049013
-0.025731
-0.014387
0.018786
0.023638
0.053358
0.043659
0.080683
0.035548
0.080484
0.005127
-0.022915
0.000516
-0.026301
-0.004549
-0.027542
0.057146
-0.012534
-0.027231
-0.027696
0.065128
0.035903
0.018000
0.006799
0.022688
0.060956
-0.005059
0.026452
-0.017446
0.048998
0.073806
0.030676
0.051362
-0.018958
0.007086
0.079534
0.078616
0.047369
0.080213
-0.005119
0.019113
-0.011411
0.000603
0.019993
0.003377
0.003477
0.081285
-0.008563
0.011704
-0.001952
0.000398
0.025803
-0.022445
0.043351
-0.015492
-0.023302
0.056912
0.023766
0.025047
0.005222
0.049164
0.081912
0.030098
0.053408
0.055973
0.004259
0.005901
0.079330
-0.007691
-0.024342
0.081145
0.009518
-0.001173
-0.003806
0.015370
0.042429
0.043402
-0.020643
0.046103
0.056451
0.002029
0.040775
-0.027157
0.044500
0.021804
0.024942
0.055471
-0.002675
0.000177
0.079303
-0.004425
0.069154
0.078324
0.037663
0.009167
0.028151
0.043305
0.072651
0.011304
0.000988
0.019751
0.044693
0.006200
-0.002642
-0.007064
-0.007203
0.081125
0.056575
0.043486
-0.014058
0.000025
0.056801
-0.006400
0.040398
0.057716
0.022488
0.078393
0.049091
0.001624
0.024342
0.008911
0.052533
0.041604
0.000883
0.009712
-0.025353
-0.025349
-0.017915
0.000739
0.012015
0.012469
0.051629
0.021725
0.005378
0.081698
0.001559
0.075434
0.080147
0.028667
0.021025
-0.010330
0.002709
-0.026984
-0.021790
0.048312
0.033701
-0.027225
0.080517
0.080584
0.080440
0.080480
-0.024175
0.005923
-0.025488
0.018015
0.045248
-0.026243
-0.027078
0.079756
0.018434
-0.008064
0.064690
0.044564
-0.021877
0.029152
0.041873
-0.016187
0.076928
0.047546
0.078869
-0.001931
0.006116
0.045219
-0.020743
0.079289
0.079634
0.054938
0.081208
0.080269
0.008657
0.014086
-0.012816
0.034851
0.068467
0.008994
-0.000519
0.080179
0.001320
0.002736
-0.026687
0.023927
0.029013
-0.021600
-0.004554
-0.004209
-0.000112
0.024324
0.015987
0.012659
0.022175
-0.023827
0.044840
0.042868
0.071381
0.055211
0.052135
-0.019564
0.078254
-0.009031
0.080661
-0.024597
-0.003509
0.021062
0.055626
0.075077
0.008028
0.023568
0.073970
0.002256
0.080535
-0.001183
0.077448
0.000667
0.080012
0.026303
0.078802
0.045323
0.029115
-0.011753
0.048904
-0.006839
0.044774
-0.006341
-0.005407
0.005400
-0.007202
-0.026544
0.055880
0.056567
-0.006962
-0.003381
0.035902
0.020682
0.081059
0.050404
0.026845
0.023128
0.019060
0.080998
0.058285
0.027813
0.000180
0.004898
0.018119
0.008599
0.051267
-0.018242
0.042960
0.010328
-0.025823
0.024490
0.078711
0.004487
0.025599
0.001035
0.000211
0.079626
0.004852
-0.025299
0.012066
0.037474
0.048328
0.015785
0.011356
0.080816
0.001886
-0.005814
-0.026813
0.003329
-0.006390
0.012803
0.053116
-0.022913
0.031864
-0.025309
-0.025042
0.080344
0.080336
0.054445
-0.015036
0.006394
0.005072
0.052787
0.021913
0.061014
0.004459
0.068946
0.056306
-0.025894
-0.006197
0.021625
0.006039
-0.014753
0.068193
0.009966
-0.018418
0.074665
0.000979
0.077900
-0.021072
0.051483
0.049393
0.078318
0.079050
0.046089
0.021773
-0.004877
-0.026244
0.079207
-0.003930
0.053652
0.024859
0.019167
-0.025609
0.037007
0.051408
0.019581
0.048571
0.003610
0.055578
-0.002531
0.044219
0.024052
0.023163
0.044431
-0.014614
0.026902
-0.010343
-0.022470
0.016584
0.078807
-0.008672
0.042711
0.045459