# vtk DataFile Version 2.0
Test
ASCII
DATASET POLYDATA
POINTS 4677 float
0.000000 0.000000 0.000000
0.080000 0.000000 0.000000
0.080000 0.160000 0.000000
0.000000 0.160000 0.000000
0.036000 0.073072 0.000000
0.044000 0.086928 0.000000
0.024500 0.065566 0.000000
0.055500 0.093560 0.000000
0.001000 0.050000 0.000000
0.079000 0.110000 0.000000
0.002963 0.000000 0.000000
0.005926 0.000000 0.000000
0.008889 0.000000 0.000000
0.011852 0.000000 0.000000
0.014815 0.000000 0.000000
0.017778 0.000000 0.000000
0.020741 0.000000 0.000000
0.023704 0.000000 0.000000
0.026667 0.000000 0.000000
0.029630 0.000000 0.000000
0.032593 0.000000 0.000000
0.035556 0.000000 0.000000
0.038519 0.000000 0.000000
0.041481 0.000000 0.000000
0.044444 0.000000 0.000000
0.047407 0.000000 0.000000
0.050370 0.000000 0.000000
0.053333 0.000000 0.000000
0.056296 0.000000 0.000000
0.059259 0.000000 0.000000
0.062222 0.000000 0.000000
0.065185 0.000000 0.000000
0.068148 0.000000 0.000000
0.071111 0.000000 0.000000
0.074074 0.000000 0.000000
0.077037 0.000000 0.000000
0.080000 0.002963 0.000000
0.080000 0.005926 0.000000
0.080000 0.008889 0.000000
0.080000 0.011852 0.000000
0.080000 0.014815 0.000000
0.080000 0.017778 0.000000
0.080000 0.020741 0.000000
0.080000 0.023704 0.000000
0.080000 0.026667 0.000000
0.080000 0.029630 0.000000
0.080000 0.032593 0.000000
0.080000 0.035556 0.000000
0.080000 0.038519 0.000000
0.080000 0.041481 0.000000
0.080000 0.044444 0.000000
0.080000 0.047407 0.000000
0.080000 0.050370 0.000000
0.080000 0.053333 0.000000
0.080000 0.056296 0.000000
0.080000 0.059259 0.000000
0.080000 0.062222 0.000000
0.080000 0.065185 0.000000
0.080000 0.068148 0.000000
0.080000 0.071111 0.000000
0.080000 0.074074 0.000000
0.080000 0.077037 0.000000
0.080000 0.080000 0.000000
0.080000 0.082963 0.000000
0.080000 0.085926 0.000000
0.080000 0.088889 0.000000
0.080000 0.091852 0.000000
0.080000 0.094815 0.000000
0.080000 0.097778 0.000000
0.080000 0.100741 0.000000
0.080000 0.103704 0.000000
0.080000 0.106667 0.000000
0.080000 0.109630 0.000000
0.080000 0.112593 0.000000
0.080000 0.115556 0.000000
0.080000 0.118519 0.000000
0.080000 0.121481 0.000000
0.080000 0.124444 0.000000
0.080000 0.127407 0.000000
0.080000 0.130370 0.000000
0.080000 0.133333 0.000000
0.080000 0.136296 0.000000
0.080000 0.139259 0.000000
0.080000 0.142222 0.000000
0.080000 0.145185 0.000000
0.080000 0.148148 0.000000
0.080000 0.151111 0.000000
0.080000 0.154074 0.000000
0.080000 0.157037 0.000000
0.077037 0.160000 0.000000
0.074074 0.160000 0.000000
0.071111 0.160000 0.000000
0.068148 0.160000 0.000000
0.065185 0.160000 0.000000
0.062222 0.160000 0.000000
0.059259 0.160000 0.000000
0.056296 0.160000 0.000000
0.053333 0.160000 0.000000
0.050370 0.160000 0.000000
0.047407 0.160000 0.000000
0.044444 0.160000 0.000000
0.041481 0.160000 0.000000
0.038519 0.160000 0.000000
0.035556 0.160000 0.000000
0.032593 0.160000 0.000000
0.029630 0.160000 0.000000
0.026667 0.160000 0.000000
0.023704 0.160000 0.000000
0.020741 0.160000 0.000000
0.017778 0.160000 0.000000
0.014815 0.160000 0.000000
0.011852 0.160000 0.000000
0.008889 0.160000 0.000000
0.005926 0.160000 0.000000
0.002963 0.160000 0.000000
0.000000 0.157037 0.000000
0.000000 0.154074 0.000000
0.000000 0.151111 0.000000
0.000000 0.148148 0.000000
0.000000 0.145185 0.000000
0.000000 0.142222 0.000000
0.000000 0.139259 0.000000
0.000000 0.136296 0.000000
0.000000 0.133333 0.000000
0.000000 0.130370 0.000000
0.000000 0.127407 0.000000
0.000000 0.124444 0.000000
0.000000 0.121481 0.000000
0.000000 0.118519 0.000000
0.000000 0.115556 0.000000
0.000000 0.112593 0.000000
0.000000 0.109630 0.000000
0.000000 0.106667 0.000000
0.000000 0.103704 0.000000
0.000000 0.100741 0.000000
0.000000 0.097778 0.000000
0.000000 0.094815 0.000000
0.000000 0.091852 0.000000
0.000000 0.088889 0.000000
0.000000 0.085926 0.000000
0.000000 0.082963 0.000000
0.000000 0.080000 0.000000
0.000000 0.077037 0.000000
0.000000 0.074074 0.000000
0.000000 0.071111 0.000000
0.000000 0.068148 0.000000
0.000000 0.065185 0.000000
0.000000 0.062222 0.000000
0.000000 0.059259 0.000000
0.000000 0.056296 0.000000
0.000000 0.053333 0.000000
0.000000 0.050370 0.000000
0.000000 0.047407 0.000000
0.000000 0.044444 0.000000
0.000000 0.041481 0.000000
0.000000 0.038519 0.000000
0.000000 0.035556 0.000000
0.000000 0.032593 0.000000
0.000000 0.029630 0.000000
0.000000 0.026667 0.000000
0.000000 0.023704 0.000000
0.000000 0.020741 0.000000
0.000000 0.017778 0.000000
0.000000 0.014815 0.000000
0.000000 0.011852 0.000000
0.000000 0.008889 0.000000
0.000000 0.005926 0.000000
0.000000 0.002963 0.000000
0.035500 0.072746 0.000000
0.035000 0.072419 0.000000
0.034500 0.072093 0.000000
0.034000 0.071767 0.000000
0.033500 0.071440 0.000000
0.033000 0.071114 0.000000
0.032500 0.070788 0.000000
0.032000 0.070461 0.000000
0.031500 0.070135 0.000000
0.031000 0.069809 0.000000
0.030500 0.069482 0.000000
0.030000 0.069156 0.000000
0.029500 0.068829 0.000000
0.029000 0.068503 0.000000
0.028500 0.068177 0.000000
0.028000 0.067850 0.000000
0.027500 0.067524 0.000000
0.027000 0.067198 0.000000
0.026500 0.066871 0.000000
0.026000 0.066545 0.000000
0.025500 0.066219 0.000000
0.025000 0.065892 0.000000
0.044500 0.087216 0.000000
0.045000 0.087505 0.000000
0.045500 0.087793 0.000000
0.046000 0.088081 0.000000
0.046500 0.088370 0.000000
0.047000 0.088658 0.000000
0.047500 0.088946 0.000000
0.048000 0.089235 0.000000
0.048500 0.089523 0.000000
0.049000 0.089811 0.000000
0.049500 0.090100 0.000000
0.050000 0.090388 0.000000
0.050500 0.090677 0.000000
0.051000 0.090965 0.000000
0.051500 0.091253 0.000000
0.052000 0.091542 0.000000
0.052500 0.091830 0.000000
0.053000 0.092118 0.000000
0.053500 0.092407 0.000000
0.054000 0.092695 0.000000
0.054500 0.092983 0.000000
0.055000 0.093272 0.000000
0.043704 0.086415 0.000000
0.043407 0.085902 0.000000
0.043111 0.085388 0.000000
0.042815 0.084875 0.000000
0.042519 0.084362 0.000000
0.042222 0.083849 0.000000
0.041926 0.083336 0.000000
0.041630 0.082823 0.000000
0.041333 0.082309 0.000000
0.041037 0.081796 0.000000
0.040741 0.081283 0.000000
0.040444 0.080770 0.000000
0.040148 0.080257 0.000000
0.039852 0.079743 0.000000
0.039556 0.079230 0.000000
0.039259 0.078717 0.000000
0.038963 0.078204 0.000000
0.038667 0.077691 0.000000
0.038370 0.077177 0.000000
0.038074 0.076664 0.000000
0.037778 0.076151 0.000000
0.037481 0.075638 0.000000
0.037185 0.075125 0.000000
0.036889 0.074612 0.000000
0.036593 0.074098 0.000000
0.036296 0.073585 0.000000
0.024000 0.065235 0.000000
0.023500 0.064904 0.000000
0.023000 0.064572 0.000000
0.022500 0.064241 0.000000
0.022000 0.063910 0.000000
0.021500 0.063579 0.000000
0.021000 0.063248 0.000000
0.020500 0.062916 0.000000
0.020000 0.062585 0.000000
0.019500 0.062254 0.000000
0.019000 0.061923 0.000000
0.018500 0.061592 0.000000
0.018000 0.061261 0.000000
0.017500 0.060929 0.000000
0.017000 0.060598 0.000000
0.016500 0.060267 0.000000
0.016000 0.059936 0.000000
0.015500 0.059605 0.000000
0.015000 0.059273 0.000000
0.014500 0.058942 0.000000
0.014000 0.058611 0.000000
0.013500 0.058280 0.000000
0.013000 0.057949 0.000000
0.012500 0.057617 0.000000
0.012000 0.057286 0.000000
0.011500 0.056955 0.000000
0.011000 0.056624 0.000000
0.010500 0.056293 0.000000
0.010000 0.055961 0.000000
0.009500 0.055630 0.000000
0.009000 0.055299 0.000000
0.008500 0.054968 0.000000
0.008000 0.054637 0.000000
0.007500 0.054305 0.000000
0.007000 0.053974 0.000000
0.006500 0.053643 0.000000
0.006000 0.053312 0.000000
0.005500 0.052981 0.000000
0.005000 0.052650 0.000000
0.004500 0.052318 0.000000
0.004000 0.051987 0.000000
0.003500 0.051656 0.000000
0.003000 0.051325 0.000000
0.002500 0.050994 0.000000
0.002000 0.050662 0.000000
0.001500 0.050331 0.000000
0.055990 0.093902 0.000000
0.056479 0.094245 0.000000
0.056969 0.094587 0.000000
0.057458 0.094930 0.000000
0.057948 0.095272 0.000000
0.058437 0.095615 0.000000
0.058927 0.095957 0.000000
0.059417 0.096300 0.000000
0.059906 0.096642 0.000000
0.060396 0.096985 0.000000
0.060885 0.097327 0.000000
0.061375 0.097670 0.000000
0.061865 0.098012 0.000000
0.062354 0.098355 0.000000
0.062844 0.098697 0.000000
0.063333 0.099040 0.000000
0.063823 0.099382 0.000000
0.064312 0.099725 0.000000
0.064802 0.100067 0.000000
0.065292 0.100410 0.000000
0.065781 0.100752 0.000000
0.066271 0.101095 0.000000
0.066760 0.101437 0.000000
0.067250 0.101780 0.000000
0.067740 0.102122 0.000000
0.068229 0.102465 0.000000
0.068719 0.102807 0.000000
0.069208 0.103150 0.000000
0.069698 0.103492 0.000000
0.070187 0.103835 0.000000
0.070677 0.104177 0.000000
0.071167 0.104520 0.000000
0.071656 0.104862 0.000000
0.072146 0.105205 0.000000
0.072635 0.105547 0.000000
0.073125 0.105890 0.000000
0.073615 0.106232 0.000000
0.074104 0.106575 0.000000
0.074594 0.106917 0.000000
0.075083 0.107260 0.000000
0.075573 0.107602 0.000000
0.076062 0.107945 0.000000
0.076552 0.108287 0.000000
0.077042 0.108630 0.000000
0.077531 0.108972 0.000000
0.078021 0.109315 0.000000
0.078510 0.109658 0.000000
0.043942 0.087469 0.000000
0.035556 0.157037 0.000000
0.044420 0.002920 0.000000
0.077037 0.038519 0.000000
0.002963 0.121481 0.000000
0.077037 0.059259 0.000000
0.002963 0.109630 0.000000
0.002923 0.098139 0.000000
0.077153 0.126913 0.000000
0.002808 0.032596 0.000000
0.077140 0.071061 0.000000
0.002963 0.085926 0.000000
0.002963 0.136296 0.000000
0.077041 0.023701 0.000000
0.056296 0.157037 0.000000
0.032593 0.002963 0.000000
0.077037 0.080000 0.000000
0.002813 0.077135 0.000000
0.077037 0.142222 0.000000
0.017778 0.157037 0.000000
0.062222 0.002963 0.000000
0.076992 0.088722 0.000000
0.002945 0.020743 0.000000
0.017777 0.002962 0.000000
0.002801 0.068434 0.000000
0.002959 0.011851 0.000000
0.065186 0.157038 0.000000
0.002963 0.148148 0.000000
0.077037 0.011852 0.000000
0.076887 0.094740 0.000000
0.077092 0.115875 0.000000
0.002677 0.044265 0.000000
0.077038 0.148148 0.000000
0.002985 0.062165 0.000000
0.077037 0.047407 0.000000
0.011852 0.002963 0.000000
[...]
POINT_DATA 4677
SCALARS UX float 1
LOOKUP_TABLE default
-0.000001
0.000002
0.088658
-0.014991
0.011085
0.028959
-0.038320
0.078828
-0.058945
0.109109
-0.000000
-0.000000
-0.000000
-0.000000
-0.000000
-0.000000
-0.000000
-0.000000
-0.000000
-0.000000
-0.000000
-0.000000
-0.000000
0.000000
0.000000
0.000000
0.000000
0.000000
0.000000
0.000000
0.000000
0.000000
0.000000
0.000000
0.000000
-0.000000
0.001571
0.003204
0.005010
0.006791
0.008794
0.011226
0.013933
0.016858
0.019905
0.022972
0.026008
0.029261
0.031850
0.036847
0.044009
0.052411
0.059981
0.065659
0.071662
0.080612
0.088598
0.095473
0.100340
0.102260
0.104113
0.103776
0.109657
0.115251
0.110584
0.113161
0.112050
0.109836
0.107120
0.102602
0.105140
0.109629
0.111535
0.110955
0.108998
0.102527
0.108025
0.106622
0.103466
0.101737
0.099192
0.096804
0.094328
0.093197
0.092224
0.092400
0.092769
0.091027
0.089767
0.084289
0.080214
0.076083
0.072147
0.068437
0.064831
0.061229
0.057547
0.053767
0.049996
0.046145
0.042227
0.038423
0.034630
0.030413
0.026018
0.021837
0.017900
0.014246
0.010796
0.007324
0.003772
0.000134
-0.003575
-0.007348
-0.011148
-0.015019
-0.015046
-0.015074
-0.015114
-0.015170
-0.015252
-0.015385
-0.015571
-0.015819
-0.016224
-0.016670
-0.017354
-0.018166
-0.019115
-0.020113
-0.021128
-0.022136
-0.023162
-0.024273
-0.025542
-0.027061
-0.028964
-0.031266
-0.033896
-0.036547
-0.038461
-0.042785
-0.048066
-0.052590
-0.056196
-0.059195
-0.062778
-0.064990
-0.065565
-0.065887
-0.063904
-0.060289
-0.055991
-0.051590
-0.047601
-0.044313
-0.041696
-0.039273
-0.036629
-0.034355
-0.032283
-0.029859
-0.027460
-0.024426
-0.020920
-0.016963
-0.011611
-0.005891
0.007788
0.005322
0.002431
-0.000282
-0.002480
-0.005482
-0.008415
-0.012179
-0.015210
-0.016958
-0.016437
-0.019219
-0.022160
-0.024114
-0.027445
-0.030317
-0.033165
-0.034713
-0.032483
-0.034737
-0.036135
-0.037350
0.030905
0.034571
0.032033
0.033232
0.034216
0.036265
0.038231
0.037884
0.036504
0.042931
0.045823
0.048922
0.052163
0.055086
0.060466
0.059296
0.061416
0.064280
0.066882
0.070040
0.073440
0.075716
0.027481
0.026574
0.034408
0.032302
0.030130
0.028237
0.027248
0.025941
0.025062
0.024508
0.023496
0.022318
0.021486
0.023865
0.022222
0.020784
0.019676
0.018861
0.019004
0.017556
0.016501
0.015313
0.013680
0.013229
0.014297
0.012836
-0.039420
-0.040317
-0.041384
-0.042414
-0.043604
-0.044113
-0.045020
-0.046032
-0.047208
-0.048253
-0.048989
-0.049757
-0.050662
-0.051445
-0.052003
-0.052989
-0.053742
-0.054628
-0.055353
-0.055904
-0.056051
-0.056300
-0.056599
-0.056815
-0.057009
-0.057206
-0.057411
-0.057575
-0.057714
-0.057862
-0.058013
-0.058157
-0.058298
-0.058446
-0.058594
-0.058723
-0.058834
-0.058925
-0.059000
-0.059060
-0.059102
-0.059123
-0.059136
-0.059121
-0.059104
-0.059034
0.081564
0.080881
0.080651
0.080293
0.080127
0.080492
0.080534
0.080356
0.080087
0.079866
0.079698
0.079549
0.079381
0.079226
0.079087
0.078915
0.078741
0.078523
0.078276
0.078013
0.077779
0.077601
0.077384
0.077778
0.078118
0.077969
0.078701
0.079071
0.078738
0.079616
0.080974
0.082340
0.083796
0.085287
0.086870
0.088595
0.090549
0.093027
0.095286
0.097039
0.099070
0.101072
0.103017
0.104593
0.105966
0.107311
0.108466
0.030487
0.030511
0.000044
0.029003
-0.013622
0.075260
-0.017795
-0.022457
0.097926
-0.037153
0.094963
-0.032998
-0.011443
0.012602
0.057604
-0.000082
0.100164
-0.046623
0.088943
0.007415
0.000018
0.105797
-0.027863
-0.000201
-0.057889
-0.018729
0.068466
-0.011197
0.004107
0.106220
0.099260
-0.048852
0.088047
-0.062797
0.048741
0.000133
0.076141
-0.007301
0.000106
-0.064233
0.097092
0.093399
0.038287
0.046170
-0.000073
-0.011863
0.018596
0.014400
0.000026
0.084567
0.098477
-0.044756
0.029766
0.099928
-0.041951
-0.064747
-0.051096
0.106340
-0.026603
-0.035510
0.088643
0.094266
0.063342
-0.020076
0.098818
-0.015667
-0.034377
-0.032207
0.034492
0.022047
0.091990
0.000034
0.000046
-0.012281
0.021844
0.000027
-0.025089
-0.000046
0.061257
0.050033
-0.011265
0.007672
-0.013837
-0.000004
-0.006211
0.000189
0.000037
0.086940
0.000002
-0.000002
-0.011157
0.001057
-0.011142
0.000169
0.105614
0.027806
-0.057556
-0.061284
0.106353
0.028429
0.000057
0.026631
0.088321
-0.032487
-0.031513
0.093236
0.050179
-0.007645
0.087197
-0.000212
-0.043545
-0.022598
-0.062835
0.094150
0.092282
0.057545
-0.015414
0.000067
-0.004073
0.083095
-0.007284
0.000183
0.104002
-0.053588
0.104313
-0.060391
0.107915
-0.054873
-0.060127
0.105048
0.099822
-0.040184
0.108632
-0.040487
0.094351
-0.029127
-0.024225
0.092480
0.082674
-0.021398
-0.018926
0.069104
-0.016804
0.056507
0.095430
0.040912
-0.014642
0.034436
-0.012897
0.025309
0.026362
0.000041
0.042287
-0.030230
0.018119
0.000031
-0.000032
0.090196
-0.011604
0.015553
0.053877
-0.000016
0.010901
0.000021
-0.022158
0.000044
0.064855
-0.011325
0.009879
-0.000403
-0.011227
0.005632
0.072211
0.088597
0.003846
0.000016
0.080168
0.085670
-0.003523
0.000069
-0.011174
0.002384
-0.057914
0.107522
0.104519
-0.063090
-0.058187
0.033268
0.026723
0.104224
-0.063433
0.093008
-0.042202
0.030377
0.033617
0.033000
0.075473
-0.021181
-0.014872
0.087408
-0.042604
0.026567
0.011449
-0.051880
0.000085
0.011415
0.103101
-0.007323
0.004086
0.101152
0.002878
-0.007305
0.000060
0.103170
-0.056708
0.094506
0.065253
-0.012596
0.054817
-0.010258
0.042195
-0.007476
0.065123
-0.000086
-0.000567
-0.007284
0.072406
0.081194
-0.056308
0.105563
-0.050207
0.095540
0.092128
-0.059003
0.091305
-0.039407
-0.061933
0.100826
0.100048
-0.017228
0.098704
-0.037923
-0.039637
-0.046525
0.090025
0.088348
-0.026034
0.021752
-0.000051
-0.000012
-0.030670
0.038271
0.030804
0.000096
0.000096
-0.028423
0.089659
0.046305
0.018731
0.053997
-0.008586
-0.008030
0.085913
0.084725
0.088282
0.033998
-0.028356
-0.000206
0.061466
-0.019865
-0.000213
0.006336
0.000061
-0.025161
-0.010646
0.000119
0.080546
-0.003444
0.000108
0.000762
-0.035171
0.026985
0.032662
0.102316
-0.057594
-0.059991
0.108899
-0.057425
0.106134
0.023771
0.032907
0.032847
0.032922
0.030119
-0.000011
0.027481
0.082853
-0.022060
0.042806
-0.004269
-0.033089
0.086742
0.095670
-0.000246
0.054832
-0.025040
-0.019800
-0.001686
-0.055810
0.099273
0.085974
0.035820
-0.048331
0.018702
0.000108
0.083427
0.000014
0.062200
0.080054
-0.003492
-0.003415
0.000211
0.033772
-0.054785
0.102386
-0.037133
-0.060944
-0.016187
-0.043644
-0.022727
-0.019305
0.014635
0.082848
0.092385
0.070225
-0.013757
0.058914
0.087291
-0.011349
0.092901
0.100684
-0.024706
0.037861
-0.000144
0.022781
-0.007340
0.046953
0.000100
0.015116
-0.029402
0.046621
0.018831
-0.009291
0.000067
0.007810
0.085347
0.008763
-0.016798
-0.006766
0.004342
0.076674
0.068745
-0.000398
-0.007311
0.000053
0.030272
0.000362
-0.007294
0.076234
0.001652
0.000076
-0.040979
0.088047
-0.045588
0.026089
-0.060875
0.026926
0.033816
0.101707
-0.052748
0.098034
0.025831
0.033310
0.101418
-0.059970
-0.054865
0.104049
0.101102
0.034349
0.034717
0.030826
-0.058244
-0.048402
0.027440
0.035876
0.066958
-0.012931
-0.018522
-0.034049
0.082134
0.042967
-0.044710
-0.043930
0.019822
0.096636
-0.003381
0.000149
0.007798
-0.025245
-0.059273
0.008081
-0.009896
0.000100
0.002338
0.055642
-0.000099
0.095043
0.034429
-0.006883
-0.005168
0.081305
-0.017450
-0.000431
0.000640
0.000432
0.081252
-0.051145
0.087501
0.087785
-0.051341
-0.017141
-0.028217
-0.019262
-0.000233
0.076957
0.013827
-0.012312
0.035765
0.039112
0.000052
-0.038743
0.085539
0.085700
-0.038028
0.094894
0.088335
0.051262
0.051037
0.082488
-0.029877
-0.003409
0.015756
-0.000268
0.023613
-0.022266
0.058513
-0.000392
0.080257
0.000137
0.026536
0.065788
0.072866
-0.003762
0.005264
-0.012303
0.078250
-0.003620
0.000173
-0.003405
-0.003411
0.000111
0.000142
-0.040017
0.030985
0.035560
0.031123
-0.056762
-0.058119
0.099050
0.099228
0.024973
-0.059840
0.025461
0.095930
-0.057432
0.034181
0.090673
0.093876
0.089918
0.083401
-0.047107
-0.053662
0.031914
0.032197
0.096791
0.028655
0.033498
0.025717
0.068784
-0.001170
0.000067
0.083011
-0.041406
0.083937
0.083813
0.089822
0.055438
0.000549
0.019559
-0.000580
-0.049868
0.078607
0.000271
0.005236
0.093457
0.063179
0.000549
0.000445
0.033214
-0.027661
0.011708
0.083365
0.076328
-0.000583
0.000173
-0.019532
-0.008650
0.000261
0.035806
0.086811
-0.015907
0.059476
0.029485
-0.031918
-0.000210
-0.014828
0.042767
0.071368
0.038026
0.080897
-0.011060
0.035554
-0.008610
0.000218
-0.005911
0.082264
0.050747
-0.041188
0.093726
0.084614
-0.053007
0.077941
0.000175
0.089209
-0.021225
-0.022215
-0.038191
-0.000085
0.016103
-0.013781
0.030185
0.074185
0.011895
0.003532
-0.000930
0.069340
0.000110
-0.003347
0.046997
-0.001877
0.077203
0.023279
0.001378
-0.003409
0.004270
0.010328
0.095454
-0.058256
0.029093
-0.057169
-0.052500
0.031899
0.035918
0.026241
0.027590
0.025362
0.025444
-0.045310
0.031250
0.034300
0.034710
-0.013457
-0.048347
-0.033169
-0.059671
0.084990
0.062949
0.099754
0.100693
0.089191
-0.054917
-0.059621
0.093670
0.032130
0.095906
-0.057423
-0.036214
0.098530
0.096956
0.034054
0.027499
0.035548
-0.007843
-0.014683
0.078995
0.039928
0.003268
-0.042432
0.000116
-0.031644
0.009124
-0.043294
0.082517
-0.000567
0.084686
-0.023092
0.080195
0.052648
-0.051371
-0.058120
0.011969
0.093490
0.062856
0.080853
0.045051
0.030482
0.030896
0.074933
-0.004858
-0.016459
0.023447
0.000279
-0.000840
0.070480
0.001982
-0.048918
0.000181
0.000576
0.000592
0.000437
0.026120
0.034316
-0.011145
-0.035302
-0.024549
-0.036741
0.056225
0.067203
-0.011368
-0.038704
0.008953
0.089610
-0.000075
-0.055344
0.071637
-0.002301
0.000281
-0.000559
-0.059698
0.000353
0.078706
0.080263
0.096987
0.047694
-0.000483
-0.011535
0.066782
0.076086
0.032094
0.059586
0.000210
0.000554
0.002863
0.075903
0.019425
0.000468
0.091195
0.034032
0.015731
0.000195
-0.004768
0.090865
0.004275
-0.057766
0.093999
0.095120
0.089668
0.027127
0.036786
-0.053586
-0.056854
0.085145
-0.048378
0.031464
0.091744
0.037426
0.037128
0.024632
0.036169
0.025661
0.024289
-0.012367
0.033173
0.097155
0.032643
0.037401
0.095123
-0.060839
-0.033935
-0.058080
0.093345
0.037479
-0.057973
0.079476
-0.029261
0.034574
0.026060
0.076926
0.036889
0.057934
0.069179
-0.010496
-0.036989
0.078021
-0.046222
0.000438
0.052286
0.023312
0.004427
0.001931
0.039345
0.031913
0.000323
-0.053073
-0.056848
-0.010366
-0.024946
0.005038
-0.032409
0.002207
0.060554
0.029399
0.072207
-0.000654
0.068312
0.076812
0.004302
0.015886
0.023246
-0.009653
-0.008777
0.033396
-0.005924
-0.029937
-0.000160
-0.000430
0.093188
0.054449
-0.054003
-0.050647
0.083795
0.027905
-0.061540
0.034993
0.035138
-0.039431
0.062611
-0.056252
0.027189
0.037473
-0.020383
-0.029102
0.078808
-0.000716
0.004017
0.073477
-0.055221
-0.060436
-0.017522
0.090558
0.088536
-0.006454
-0.044911
0.043767
-0.015213
0.004431
0.056882
0.022017
0.011378
0.004284
0.071995
0.000331
0.001273
0.094090
0.008155
0.004400
0.000290
-0.003167
0.081342
0.094464
0.000275
0.029904
0.088502
0.081938
0.034982
-0.057077
0.080602
0.081989
0.093268
-0.059390
0.040289
0.027131
0.024423
0.023581
-0.039596
0.036097
0.023958
-0.050318
0.033035
0.089761
0.085164
-0.060561
0.032716
0.060706
0.076292
-0.006868
0.039378
-0.000032
0.090883
0.038570
0.088813
0.036716
-0.057623
0.073678
0.006318
0.024787
0.041936
-0.037118
-0.013426
0.000007
-0.040429
0.007273
0.081098
-0.051701
0.092200
0.076557
-0.000588
0.008310
-0.019568
-0.005830
0.039193
-0.059203
-0.051988
0.088347
-0.056600
0.073305
-0.000791
-0.030535
0.000451
0.033357
0.026761
-0.008496
0.069748
-0.020799
0.001267
0.008098
0.055213
0.022033
-0.056418
0.087191
0.087139
-0.054744
0.032797
0.002896
-0.034655
-0.044147
0.070530
0.056194
0.000950
0.036135
0.083982
0.030583
-0.046578
-0.015726
-0.005044
0.066185
-0.000433
0.072445
0.007295
0.060273
0.000424
0.000643
0.064540
-0.014261
0.000380
0.012107
-0.004161
0.048370
0.000281
0.019628
-0.060590
-0.009980
0.015768
-0.029417
0.080204
-0.007410
-0.008442
-0.000584
0.008231
0.008098
0.004396
0.081587
-0.041493
0.004326
0.079769
0.061524
-0.010298
0.096797
0.077796
0.035395
0.028413
0.022703
0.033991
0.030304
0.023327
0.027903
0.080873
0.035014
0.084101
0.025099
0.088348
0.086704
0.040834
0.024104
0.091026
0.000165
-0.054248
0.025753
0.036075
-0.056016
-0.063080
-0.009689
0.094788
0.039257
-0.002833
0.031654
-0.059060
-0.061405
-0.027888
0.077198
0.039738
-0.057617
0.040568
-0.049010
0.090551
0.087767
0.026922
0.021337
0.034625
0.040608
0.055309
-0.002952
-0.009682
0.072846
-0.000041
0.010395
0.079124
0.092982
-0.050745
0.049092
-0.052477
0.027228
0.012107
0.019946
0.030895
0.063728
-0.060354
-0.015464
0.059223
0.000585
-0.021918
0.041432
0.031828
0.005322
0.002318
0.044795
-0.006891
-0.008820
0.000471
0.000765
0.011914
0.008169
0.000471
0.008183
0.089541
0.056450
-0.000536
-0.028509
0.084853
0.067577
0.066123
0.080115
0.050569
0.089056
0.085077
0.004891
-0.053908
0.044326
0.060842
-0.036420
-0.057840
-0.000682
-0.038834
-0.048928
0.086728
-0.007842
-0.062073
-0.016898
0.000348
0.071391
-0.025075
0.000426
0.075322
-0.057486
0.008183
-0.043255
0.099209
-0.005486
0.042769
0.035594
0.007880
0.020219
0.009908
0.053245
-0.007246
-0.000533
-0.034560
-0.029293
0.074253
0.000439
0.078087
0.028089
0.027497
0.077599
-0.003309
0.076839
-0.060301
-0.059669
0.023674
0.022732
0.078617
0.033151
0.033396
0.022448
-0.000202
0.085258
0.079172
0.037932
-0.055488
0.082739
0.021720
-0.054740
0.036661
-0.007155
0.024554
0.087041
0.042097
0.074531
0.030460
-0.047074
0.038079
-0.056576
0.095944
0.084514
0.024884
0.038777
-0.042073
-0.063824
0.039845
0.088522
-0.031872
0.003156
0.071070
0.025409
-0.032198
0.042162
0.035660
-0.006153
-0.039308
-0.037519
0.049917
0.076495
0.007618
0.081051
-0.049257
0.086455
0.072929
0.029118
-0.003880
-0.000471
0.090010
0.045458
0.004931
0.021457
-0.045794
0.036118
-0.005332
-0.061536
0.009310
0.030932
0.000556
0.000262
0.000633
-0.019244
-0.061252
-0.004761
0.031801
0.036887
0.069444
-0.001572
0.086375
-0.001266
-0.025982
-0.049405
0.082845
-0.052892
0.057374
0.074485
-0.035512
-0.020997
0.032055
0.067559
-0.013079
-0.029863
-0.013007
0.074316
0.074104
0.000174
0.001188
0.011907
0.022385
0.081003
0.065436
0.016151
0.011867
0.095805
0.000452
0.057443
0.023444
0.077516
0.052523
0.014342
-0.028046
-0.000787
0.005352
0.074793
0.012289
0.044155
0.053863
0.011124
0.078000
-0.055082
0.022272
-0.004712
-0.000298
-0.063365
0.022573
0.032746
0.044735
0.034087
0.037779
0.022687
-0.056662
-0.059084
0.021113
0.093822
-0.000447
0.029192
0.040309
-0.045266
0.022559
0.039965
0.071806
0.085037
0.062508
-0.025836
-0.056912
0.030308
0.100760
0.069451
0.050059
0.082705
0.044463
0.038772
0.026493
0.083166
-0.005537
-0.004538
0.043432
0.007293
0.074677
-0.058781
-0.056544
0.090508
0.024186
0.044240
-0.029638
0.053406
0.035160
0.041343
0.069243
0.011340
-0.001803
0.073099
0.063688
0.073956
-0.047537
-0.000018
0.015516
0.005994
0.095103
0.070583
0.030156
0.090943
-0.001017
-0.014920
-0.001638
-0.055362
0.050538
0.087717
0.078379
-0.057796
-0.009323
0.045624
0.046141
-0.056141
0.024374
0.015663
0.011593
0.000498
-0.002666
-0.026892
0.091493
0.014171
0.047784
0.064998
-0.021038
0.079076
0.020956
0.084597
0.071633
-0.041788
-0.030595
-0.051332
0.003394
0.029930
0.039818
-0.063013
-0.016887
0.088250
-0.054276
0.001263
-0.002042
0.029007
0.000605
0.071846
-0.000001
0.027482
0.025965
0.048060
0.096929
0.071669
0.011602
0.069524
0.075602
0.011571
-0.047171
-0.000859
0.054177
0.018277
0.000330
-0.004055
0.051733
0.032570
-0.000311
0.003353
0.015751
0.074180
-0.012912
0.059763
-0.037041
0.071617
-0.000359
0.061053
-0.027822
0.027931
0.032897
0.044139
0.074734
0.031034
0.042541
0.076677
0.032388
0.021897
0.022838
0.020791
0.022052
0.021545
-0.060171
0.081570
0.080559
0.022854
0.034217
0.036095
-0.033160
0.040019
-0.043403
0.041493
0.020386
0.064111
0.083796
-0.059925
0.027793
-0.009073
-0.055646
0.082733
0.042324
0.045723
0.080568
0.008984
-0.042584
0.046240
-0.057248
-0.050908
-0.058602
0.046921
-0.061724
0.055146
0.046517
0.045897
0.023611
0.052158
-0.030364
-0.005476
0.037445
0.000322
0.013061
-0.040835
0.071254
-0.039245
0.077634
-0.000289
-0.047457
0.084532
0.046503
0.089195
0.019160
-0.051476
0.001012
0.032880
0.088780
-0.013996
0.075129
0.000420
0.070522
0.077627
0.000896
0.015968
-0.058803
0.027561
0.015165
-0.060924
0.048585
-0.000228
0.020438
0.030386
0.045644
0.031603
0.061290
-0.059090
0.045315
-0.016076
0.043431
0.001877
0.028525
0.077193
0.096498
0.028206
-0.045589
-0.003459
0.015110
-0.012820
-0.001195
0.072907
0.069247
0.014797
0.020004
0.070744
0.050255
0.051465
0.009370
0.020382
-0.002631
-0.002674
-0.034953
0.092740
0.036880
0.048942
-0.000530
0.001294
-0.002326
0.051065
0.013282
-0.028241
-0.020404
0.061796
0.004240
0.069229
-0.057027
-0.056278
0.007578
0.029880
0.071759
-0.045729
-0.043761
0.068612
0.049140
-0.022763
0.000088
-0.026227
-0.001083
0.020591
0.028505
0.075751
0.033778
0.022385
0.049372
-0.009244
0.066326
0.032087
0.057805
0.040649
0.057118
0.034078
0.021096
0.082473
0.019591
0.036050
0.021208
0.037975
0.095343
0.097326
0.043690
0.020012
0.082436
0.079207
-0.059855
0.077194
0.026118
0.042921
-0.061194
-0.037670
0.024873
0.030299
0.050566
0.042227
0.079859
0.046993
0.085512
0.002662
-0.056762
0.021835
-0.057127
-0.012293
-0.054757
0.067737
-0.025100
-0.049784
-0.053195
0.069330
0.047522
0.044101
0.026859
0.047762
0.066959
-0.001846
0.039628
-0.039310
0.068068
0.070843
0.062588
0.050160
-0.044030
0.008872
0.074192
0.082741
0.036631
0.090451
-0.017428
0.012088
-0.020973
0.019649
0.026267
0.000899
0.001350
0.092615
-0.033544
0.004801
-0.000843
0.019780
0.055885
-0.055582
0.016833
-0.033830
-0.057764
0.066755
0.029234
0.035630
0.002901
0.042891
0.092031
0.045029
0.058363
0.065054
0.021941
0.000200
0.087663
-0.010025
-0.043201
0.085755
0.002472
-0.000038
-0.006704
0.038431
0.019509
0.023275
-0.049348
0.032207
0.066935
0.000672
0.041519
-0.053935
0.018387
0.049032
0.054009
0.063067
-0.000904
0.000390
0.086374
-0.011448
0.069062
0.079849
0.014854
0.015837
0.059938
0.050587
0.074771
0.022700
0.000323
0.047676
0.017672
0.004984
-0.001787
-0.026177
-0.028057
0.084612
0.066962
0.019391
-0.030004
-0.000160
0.068947
-0.024654
0.066602
0.071347
0.029031
0.074048
0.046711
0.019734
0.031436
0.030924
0.055241
0.048352
0.019672
0.033651
-0.060805
-0.058658
-0.041726
0.020871
0.022087
0.035769
0.052714
0.038369
0.024319
0.092798
0.019016
0.080170
0.074190
0.043015
0.028609
-0.035610
0.019779
-0.048319
-0.053196
0.040428
0.046728
-0.052049
0.077555
0.080838
0.076764
0.077541
-0.059684
0.003366
-0.057074
0.025694
0.052043
-0.056364
-0.055275
0.089304
0.042098
-0.034059
0.066847
0.020000
-0.041520
0.059145
0.063615
-0.036372
0.077086
0.035857
0.072632
-0.001340
0.004719
0.021801
-0.049790
0.088167
0.088578
0.062998
0.089041
0.074834
0.003570
0.009149
-0.025371
0.016153
0.073443
0.018655
-0.000243
0.075664
0.000208
0.000944
-0.053038
0.031330
0.044557
-0.052759
-0.012894
-0.010402
0.018872
0.050123
0.039207
0.029661
0.046561
-0.058603
0.018419
0.019368
0.068953
0.062971
0.052678
-0.045854
0.080231
-0.013338
0.091249
-0.058794
0.000592
0.027322
0.069336
0.069488
0.013934
0.048684
0.074213
0.002444
0.082704
-0.000060
0.072505
-0.000059
0.072738
0.057050
0.086413
0.028881
0.039994
-0.037292
0.049183
-0.025711
0.022656
-0.024339
-0.019094
0.003408
-0.029807
-0.055099
0.065957
0.068632
-0.028522
-0.004230
0.066599
0.047247
0.086356
0.046602
0.042579
0.028954
0.024245
0.090291
0.066816
0.043466
0.018587
0.020790
0.024184
0.029507
0.049772
-0.041867
0.044186
0.032756
-0.046949
0.033107
0.084843
0.002067
0.037633
0.018174
0.018904
0.072806
0.001109
-0.059887
0.035421
0.048128
0.039949
0.037856
0.006316
0.083322
0.018510
-0.022010
-0.050781
0.019897
-0.004557
0.021003
0.059247
-0.056743
0.046661
-0.056329
-0.058208
0.075072
0.076536
0.060386
-0.034217
0.024931
0.022354
0.052164
0.029105
0.053937
-0.000928
0.076619
0.067860
-0.055991
-0.027345
0.044332
0.023032
-0.039356
0.066794
0.006478
-0.042559
0.074051
-0.000141
0.080907
-0.051208
0.050078
0.065233
0.085395
0.071381
0.025148
0.027537
-0.017372
-0.052028
0.087691
-0.011657
0.059350
0.050660
0.024163
-0.054943
0.062360
0.053843
0.043976
0.039617
0.001559
0.065640
-0.002500
0.022967
0.033313
0.044516