# vtk DataFile Version 2.0
Test
ASCII
DATASET POLYDATA
POINTS 4677 float
0.000000 0.000000 0.000000
0.080000 0.000000 0.000000
0.080000 0.160000 0.000000
0.000000 0.160000 0.000000
0.036000 0.073072 0.000000
0.044000 0.086928 0.000000
0.024500 0.065566 0.000000
0.055500 0.093560 0.000000
0.001000 0.050000 0.000000
0.079000 0.110000 0.000000
0.002963 0.000000 0.000000
0.005926 0.000000 0.000000
0.008889 0.000000 0.000000
0.011852 0.000000 0.000000
0.014815 0.000000 0.000000
0.017778 0.000000 0.000000
0.020741 0.000000 0.000000
0.023704 0.000000 0.000000
0.026667 0.000000 0.000000
0.029630 0.000000 0.000000
0.032593 0.000000 0.000000
0.035556 0.000000 0.000000
0.038519 0.000000 0.000000
0.041481 0.000000 0.000000
0.044444 0.000000 0.000000
0.047407 0.000000 0.000000
0.050370 0.000000 0.000000
0.053333 0.000000 0.000000
0.056296 0.000000 0.000000
0.059259 0.000000 0.000000
0.062222 0.000000 0.000000
0.065185 0.000000 0.000000
0.068148 0.000000 0.000000
0.071111 0.000000 0.000000
0.074074 0.000000 0.000000
0.077037 0.000000 0.000000
0.080000 0.002963 0.000000
0.080000 0.005926 0.000000
0.080000 0.008889 0.000000
0.080000 0.011852 0.000000
0.080000 0.014815 0.000000
0.080000 0.017778 0.000000
0.080000 0.020741 0.000000
0.080000 0.023704 0.000000
0.080000 0.026667 0.000000
0.080000 0.029630 0.000000
0.080000 0.032593 0.000000
0.080000 0.035556 0.000000
0.080000 0.038519 0.000000
0.080000 0.041481 0.000000
0.080000 0.044444 0.000000
0.080000 0.047407 0.000000
0.080000 0.050370 0.000000
0.080000 0.053333 0.000000
0.080000 0.056296 0.000000
0.080000 0.059259 0.000000
0.080000 0.062222 0.000000
0.080000 0.065185 0.000000
0.080000 0.068148 0.000000
0.080000 0.071111 0.000000
0.080000 0.074074 0.000000
0.080000 0.077037 0.000000
0.080000 0.080000 0.000000
0.080000 0.082963 0.000000
0.080000 0.085926 0.000000
0.080000 0.088889 0.000000
0.080000 0.091852 0.000000
0.080000 0.094815 0.000000
0.080000 0.097778 0.000000
0.080000 0.100741 0.000000
0.080000 0.103704 0.000000
0.080000 0.106667 0.000000
0.080000 0.109630 0.000000
0.080000 0.112593 0.000000
0.080000 0.115556 0.000000
0.080000 0.118519 0.000000
0.080000 0.121481 0.000000
0.080000 0.124444 0.000000
0.080000 0.127407 0.000000
0.080000 0.130370 0.000000
0.080000 0.133333 0.000000
0.080000 0.136296 0.000000
0.080000 0.139259 0.000000
0.080000 0.142222 0.000000
0.080000 0.145185 0.000000
0.080000 0.148148 0.000000
0.080000 0.151111 0.000000
0.080000 0.154074 0.000000
0.080000 0.157037 0.000000
0.077037 0.160000 0.000000
0.074074 0.160000 0.000000
0.071111 0.160000 0.000000
0.068148 0.160000 0.000000
0.065185 0.160000 0.000000
0.062222 0.160000 0.000000
0.059259 0.160000 0.000000
0.056296 0.160000 0.000000
0.053333 0.160000 0.000000
0.050370 0.160000 0.000000
0.047407 0.160000 0.000000
0.044444 0.160000 0.000000
0.041481 0.160000 0.000000
0.038519 0.160000 0.000000
0.035556 0.160000 0.000000
0.032593 0.160000 0.000000
0.029630 0.160000 0.000000
0.026667 0.160000 0.000000
0.023704 0.160000 0.000000
0.020741 0.160000 0.000000
0.017778 0.160000 0.000000
0.014815 0.160000 0.000000
0.011852 0.160000 0.000000
0.008889 0.160000 0.000000
0.005926 0.160000 0.000000
0.002963 0.160000 0.000000
0.000000 0.157037 0.000000
0.000000 0.154074 0.000000
0.000000 0.151111 0.000000
0.000000 0.148148 0.000000
0.000000 0.145185 0.000000
0.000000 0.142222 0.000000
0.000000 0.139259 0.000000
0.000000 0.136296 0.000000
0.000000 0.133333 0.000000
0.000000 0.130370 0.000000
0.000000 0.127407 0.000000
0.000000 0.124444 0.000000
0.000000 0.121481 0.000000
0.000000 0.118519 0.000000
0.000000 0.115556 0.000000
0.000000 0.112593 0.000000
0.000000 0.109630 0.000000
0.000000 0.106667 0.000000
0.000000 0.103704 0.000000
0.000000 0.100741 0.000000
0.000000 0.097778 0.000000
0.000000 0.094815 0.000000
0.000000 0.091852 0.000000
0.000000 0.088889 0.000000
0.000000 0.085926 0.000000
0.000000 0.082963 0.000000
0.000000 0.080000 0.000000
0.000000 0.077037 0.000000
0.000000 0.074074 0.000000
0.000000 0.071111 0.000000
0.000000 0.068148 0.000000
0.000000 0.065185 0.000000
0.000000 0.062222 0.000000
0.000000 0.059259 0.000000
0.000000 0.056296 0.000000
0.000000 0.053333 0.000000
0.000000 0.050370 0.000000
0.000000 0.047407 0.000000
0.000000 0.044444 0.000000
0.000000 0.041481 0.000000
0.000000 0.038519 0.000000
0.000000 0.035556 0.000000
0.000000 0.032593 0.000000
0.000000 0.029630 0.000000
0.000000 0.026667 0.000000
0.000000 0.023704 0.000000
0.000000 0.020741 0.000000
0.000000 0.017778 0.000000
0.000000 0.014815 0.000000
0.000000 0.011852 0.000000
0.000000 0.008889 0.000000
0.000000 0.005926 0.000000
0.000000 0.002963 0.000000
0.035500 0.072746 0.000000
0.035000 0.072419 0.000000
0.034500 0.072093 0.000000
0.034000 0.071767 0.000000
0.033500 0.071440 0.000000
0.033000 0.071114 0.000000
0.032500 0.070788 0.000000
0.032000 0.070461 0.000000
0.031500 0.070135 0.000000
0.031000 0.069809 0.000000
0.030500 0.069482 0.000000
0.030000 0.069156 0.000000
0.029500 0.068829 0.000000
0.029000 0.068503 0.000000
0.028500 0.068177 0.000000
0.028000 0.067850 0.000000
0.027500 0.067524 0.000000
0.027000 0.067198 0.000000
0.026500 0.066871 0.000000
0.026000 0.066545 0.000000
0.025500 0.066219 0.000000
0.025000 0.065892 0.000000
0.044500 0.087216 0.000000
0.045000 0.087505 0.000000
0.045500 0.087793 0.000000
0.046000 0.088081 0.000000
0.046500 0.088370 0.000000
0.047000 0.088658 0.000000
0.047500 0.088946 0.000000
0.048000 0.089235 0.000000
0.048500 0.089523 0.000000
0.049000 0.089811 0.000000
0.049500 0.090100 0.000000
0.050000 0.090388 0.000000
0.050500 0.090677 0.000000
0.051000 0.090965 0.000000
0.051500 0.091253 0.000000
0.052000 0.091542 0.000000
0.052500 0.091830 0.000000
0.053000 0.092118 0.000000
0.053500 0.092407 0.000000
0.054000 0.092695 0.000000
0.054500 0.092983 0.000000
0.055000 0.093272 0.000000
0.043704 0.086415 0.000000
0.043407 0.085902 0.000000
0.043111 0.085388 0.000000
0.042815 0.084875 0.000000
0.042519 0.084362 0.000000
0.042222 0.083849 0.000000
0.041926 0.083336 0.000000
0.041630 0.082823 0.000000
0.041333 0.082309 0.000000
0.041037 0.081796 0.000000
0.040741 0.081283 0.000000
0.040444 0.080770 0.000000
0.040148 0.080257 0.000000
0.039852 0.079743 0.000000
0.039556 0.079230 0.000000
0.039259 0.078717 0.000000
0.038963 0.078204 0.000000
0.038667 0.077691 0.000000
0.038370 0.077177 0.000000
0.038074 0.076664 0.000000
0.037778 0.076151 0.000000
0.037481 0.075638 0.000000
0.037185 0.075125 0.000000
0.036889 0.074612 0.000000
0.036593 0.074098 0.000000
0.036296 0.073585 0.000000
0.024000 0.065235 0.000000
0.023500 0.064904 0.000000
0.023000 0.064572 0.000000
0.022500 0.064241 0.000000
0.022000 0.063910 0.000000
0.021500 0.063579 0.000000
0.021000 0.063248 0.000000
0.020500 0.062916 0.000000
0.020000 0.062585 0.000000
0.019500 0.062254 0.000000
0.019000 0.061923 0.000000
0.018500 0.061592 0.000000
0.018000 0.061261 0.000000
0.017500 0.060929 0.000000
0.017000 0.060598 0.000000
0.016500 0.060267 0.000000
0.016000 0.059936 0.000000
0.015500 0.059605 0.000000
0.015000 0.059273 0.000000
0.014500 0.058942 0.000000
0.014000 0.058611 0.000000
0.013500 0.058280 0.000000
0.013000 0.057949 0.000000
0.012500 0.057617 0.000000
0.012000 0.057286 0.000000
0.011500 0.056955 0.000000
0.011000 0.056624 0.000000
0.010500 0.056293 0.000000
0.010000 0.055961 0.000000
0.009500 0.055630 0.000000
0.009000 0.055299 0.000000
0.008500 0.054968 0.000000
0.008000 0.054637 0.000000
0.007500 0.054305 0.000000
0.007000 0.053974 0.000000
0.006500 0.053643 0.000000
0.006000 0.053312 0.000000
0.005500 0.052981 0.000000
0.005000 0.052650 0.000000
0.004500 0.052318 0.000000
0.004000 0.051987 0.000000
0.003500 0.051656 0.000000
0.003000 0.051325 0.000000
0.002500 0.050994 0.000000
0.002000 0.050662 0.000000
0.001500 0.050331 0.000000
0.055990 0.093902 0.000000
0.056479 0.094245 0.000000
0.056969 0.094587 0.000000
0.057458 0.094930 0.000000
0.057948 0.095272 0.000000
0.058437 0.095615 0.000000
0.058927 0.095957 0.000000
0.059417 0.096300 0.000000
0.059906 0.096642 0.000000
0.060396 0.096985 0.000000
0.060885 0.097327 0.000000
0.061375 0.097670 0.000000
0.061865 0.098012 0.000000
0.062354 0.098355 0.000000
0.062844 0.098697 0.000000
0.063333 0.099040 0.000000
0.063823 0.099382 0.000000
0.064312 0.099725 0.000000
0.064802 0.100067 0.000000
0.065292 0.100410 0.000000
0.065781 0.100752 0.000000
0.066271 0.101095 0.000000
0.066760 0.101437 0.000000
0.067250 0.101780 0.000000
0.067740 0.102122 0.000000
0.068229 0.102465 0.000000
0.068719 0.102807 0.000000
0.069208 0.103150 0.000000
0.069698 0.103492 0.000000
0.070187 0.103835 0.000000
0.070677 0.104177 0.000000
0.071167 0.104520 0.000000
0.071656 0.104862 0.000000
0.072146 0.105205 0.000000
0.072635 0.105547 0.000000
0.073125 0.105890 0.000000
0.073615 0.106232 0.000000
0.074104 0.106575 0.000000
0.074594 0.106917 0.000000
0.075083 0.107260 0.000000
0.075573 0.107602 0.000000
0.076062 0.107945 0.000000
0.076552 0.108287 0.000000
0.077042 0.108630 0.000000
0.077531 0.108972 0.000000
0.078021 0.109315 0.000000
0.078510 0.109658 0.000000
0.043942 0.087469 0.000000
0.035556 0.157037 0.000000
0.044420 0.002920 0.000000
0.077037 0.038519 0.000000
0.002963 0.121481 0.000000
0.077037 0.059259 0.000000
0.002963 0.109630 0.000000
0.002923 0.098139 0.000000
0.077153 0.126913 0.000000
0.002808 0.032596 0.000000
0.077140 0.071061 0.000000
0.002963 0.085926 0.000000
0.002963 0.136296 0.000000
0.077041 0.023701 0.000000
0.056296 0.157037 0.000000
0.032593 0.002963 0.000000
0.077037 0.080000 0.000000
0.002813 0.077135 0.000000
0.077037 0.142222 0.000000
0.017778 0.157037 0.000000
0.062222 0.002963 0.000000
0.076992 0.088722 0.000000
0.002945 0.020743 0.000000
0.017777 0.002962 0.000000
0.002801 0.068434 0.000000
0.002959 0.011851 0.000000
0.065186 0.157038 0.000000
0.002963 0.148148 0.000000
0.077037 0.011852 0.000000
0.076887 0.094740 0.000000
0.077092 0.115875 0.000000
0.002677 0.044265 0.000000
0.077038 0.148148 0.000000
0.002985 0.062165 0.000000
0.077037 0.047407 0.000000
0.011852 0.002963 0.000000
[...]
POINT_DATA 4677
SCALARS UX float 1
LOOKUP_TABLE default
-0.000000
0.000001
-0.023018
-0.114442
-0.018027
-0.036888
-0.054573
-0.009904
-0.063533
-0.021695
-0.000000
-0.000000
-0.000000
-0.000000
-0.000000
-0.000000
-0.000000
-0.000000
-0.000000
-0.000000
-0.000000
-0.000000
-0.000000
0.000000
0.000000
0.000000
0.000000
0.000000
0.000000
0.000000
0.000000
0.000000
0.000000
0.000000
0.000000
-0.000000
0.003711
0.005820
0.007319
0.008617
0.009799
0.010944
0.012071
0.013242
0.014494
0.015902
0.017367
0.019147
0.021131
0.023391
0.025676
0.027862
0.029007
0.029390
0.028832
0.027550
0.026610
0.026324
0.026377
0.027874
0.028684
0.029971
0.027368
0.024023
0.018356
0.012907
0.005770
-0.000022
-0.004397
-0.008178
-0.012204
-0.016542
-0.020115
-0.023690
-0.028143
-0.030710
-0.033523
-0.037861
-0.042473
-0.045584
-0.045426
-0.043342
-0.045777
-0.046101
-0.043309
-0.038744
-0.030739
-0.031205
-0.028471
-0.027814
-0.032373
-0.037056
-0.043976
-0.048716
-0.054778
-0.060309
-0.067757
-0.075081
-0.079958
-0.084349
-0.088393
-0.092013
-0.095379
-0.098287
-0.101002
-0.103252
-0.105148
-0.106831
-0.108118
-0.109170
-0.110092
-0.110958
-0.111832
-0.112667
-0.113590
-0.114022
-0.113250
-0.112202
-0.110927
-0.109487
-0.107969
-0.106462
-0.104987
-0.103650
-0.102404
-0.101197
-0.099752
-0.097985
-0.095866
-0.093373
-0.090493
-0.087545
-0.084606
-0.081918
-0.079616
-0.077452
-0.075803
-0.074395
-0.073628
-0.072573
-0.071677
-0.070324
-0.068756
-0.067324
-0.066383
-0.065932
-0.065798
-0.065905
-0.066079
-0.065749
-0.064992
-0.063976
-0.062799
-0.061744
-0.060811
-0.059520
-0.060794
-0.050886
-0.043180
-0.035733
-0.031690
-0.027582
-0.023669
-0.020975
-0.017995
-0.014476
-0.010264
-0.005503
-0.018858
-0.021334
-0.022544
-0.023704
-0.024779
-0.026093
-0.024808
-0.029683
-0.031946
-0.029436
-0.026223
-0.030740
-0.035299
-0.037218
-0.040591
-0.042101
-0.044107
-0.042733
-0.044702
-0.047131
-0.049443
-0.051902
-0.035798
-0.034359
-0.034580
-0.033899
-0.028754
-0.024735
-0.021072
-0.024054
-0.024093
-0.022115
-0.030636
-0.025002
-0.021052
-0.024202
-0.022297
-0.021725
-0.021654
-0.021361
-0.016821
-0.013628
-0.011094
-0.008551
-0.036212
-0.035356
-0.034308
-0.033097
-0.031817
-0.030577
-0.029517
-0.028548
-0.027777
-0.027023
-0.026263
-0.025569
-0.024660
-0.023925
-0.023273
-0.022716
-0.022147
-0.021584
-0.020873
-0.020180
-0.019536
-0.018924
-0.018358
-0.017880
-0.017642
-0.017503
-0.056174
-0.056874
-0.057514
-0.057696
-0.057937
-0.058177
-0.058489
-0.058830
-0.059159
-0.059432
-0.059662
-0.059869
-0.060069
-0.060262
-0.060452
-0.060636
-0.060813
-0.060989
-0.061162
-0.061338
-0.061516
-0.061705
-0.061899
-0.062101
-0.062304
-0.062505
-0.062696
-0.062864
-0.063015
-0.063143
-0.063247
-0.063327
-0.063378
-0.063420
-0.063447
-0.063465
-0.063477
-0.063489
-0.063497
-0.063505
-0.063514
-0.063514
-0.063516
-0.063514
-0.063519
-0.063524
-0.010651
-0.011660
-0.012194
-0.012605
-0.013043
-0.013549
-0.014206
-0.014892
-0.015651
-0.016371
-0.017043
-0.017689
-0.018318
-0.018889
-0.019363
-0.019834
-0.020278
-0.020679
-0.021055
-0.021460
-0.021805
-0.022108
-0.022409
-0.022698
-0.022976
-0.023099
-0.023131
-0.023171
-0.023092
-0.023005
-0.023022
-0.022765
-0.022663
-0.022616
-0.022511
-0.022399
-0.022250
-0.022077
-0.021885
-0.021760
-0.021588
-0.021625
-0.021599
-0.021602
-0.021555
-0.021535
-0.021616
-0.040077
-0.098119
-0.000117
0.020226
-0.096546
0.026295
-0.086317
-0.076099
-0.048036
-0.043454
0.025447
-0.069851
-0.103957
0.011534
-0.068068
-0.000697
0.025631
-0.066579
-0.052087
-0.109035
0.000357
0.011292
-0.024750
-0.001451
-0.064567
-0.016344
-0.053653
-0.110213
0.006749
-0.001680
-0.031874
-0.060552
-0.042502
-0.064743
0.027075
-0.002134
-0.040765
-0.112519
0.000865
-0.064752
-0.010447
-0.050939
-0.092060
-0.084403
-0.000933
-0.101127
0.014295
-0.106580
0.000283
-0.032208
-0.035575
-0.058840
-0.034432
-0.038004
-0.055444
-0.065046
-0.065409
0.021991
-0.072460
-0.068793
0.024973
0.024906
0.028481
-0.080684
-0.014853
-0.092004
-0.037381
-0.032609
0.022583
-0.103115
-0.048612
0.000164
-0.000273
-0.099683
0.016011
-0.000480
-0.022136
-0.001079
-0.062768
-0.080184
-0.107141
0.009188
-0.012524
-0.002548
-0.007317
-0.110748
0.000524
-0.035874
-0.003273
-0.002701
-0.112570
0.003422
-0.113328
0.001261
-0.023150
-0.039737
-0.063074
-0.064122
-0.019599
-0.041924
-0.000657
0.019307
0.020423
-0.034048
-0.066520
-0.041926
-0.080944
-0.099696
-0.054821
-0.001942
-0.057193
-0.020693
-0.064164
0.021872
-0.016277
-0.071362
-0.014335
-0.004295
-0.006691
-0.048300
-0.111800
0.001812
-0.026301
-0.061963
-0.005710
-0.064611
0.004274
-0.064919
-0.063819
0.017383
-0.042995
-0.052805
-0.020602
-0.068097
0.026598
-0.071046
-0.074424
0.024878
0.025452
-0.078353
-0.083524
0.027817
-0.089304
0.028327
-0.053271
0.025037
-0.094506
-0.095161
-0.098202
0.017983
-0.100738
0.000048
-0.088451
-0.028951
-0.104980
0.000235
-0.000558
-0.050264
-0.102478
0.012852
-0.075144
-0.000823
-0.107969
0.000316
-0.019461
-0.001228
-0.058704
-0.105530
0.010330
-0.001755
-0.108732
0.008015
-0.049865
-0.049660
-0.109907
0.000414
-0.036965
-0.035561
-0.111628
0.000678
-0.111509
0.005288
-0.063204
-0.022841
-0.022450
-0.064132
-0.063243
-0.036691
-0.038946
-0.017121
-0.064658
-0.039498
-0.055561
-0.033251
-0.032619
-0.031649
0.024689
-0.072251
-0.082505
-0.043769
-0.055060
-0.100046
-0.107275
-0.063547
0.000366
0.011216
0.003069
-0.104602
-0.109322
-0.007621
0.006196
-0.107925
0.000845
-0.023962
-0.062808
-0.049791
0.026677
-0.088071
0.026913
-0.093019
-0.088916
-0.101234
-0.062416
-0.002532
-0.003586
-0.110742
-0.052107
-0.041650
-0.062711
-0.024088
-0.060669
-0.030945
0.023718
-0.063607
-0.047154
-0.065562
-0.064190
0.013261
0.019179
-0.076955
-0.018622
-0.042111
-0.049659
-0.059096
0.021930
0.020678
-0.068295
0.017045
-0.001180
-0.000926
-0.030937
0.024045
0.021944
0.000005
-0.000284
-0.067359
-0.055545
-0.084769
-0.104367
-0.076472
-0.096625
-0.098068
-0.055237
-0.052974
-0.055639
-0.094994
-0.026710
-0.001674
-0.067004
-0.017903
-0.002189
0.008588
0.000575
-0.023572
-0.010728
-0.005205
-0.039206
-0.110987
0.001292
0.003318
-0.036391
-0.042363
-0.041428
-0.023224
-0.063072
-0.063758
-0.022751
-0.063102
-0.020800
-0.037983
-0.035663
-0.033363
-0.033495
-0.044043
-0.001393
0.020408
0.017570
-0.066200
-0.088381
-0.095108
-0.032596
-0.059599
0.016977
-0.002604
-0.076861
-0.025287
-0.019182
-0.005665
-0.062536
-0.025400
-0.054490
-0.029686
-0.063724
0.015133
-0.000598
-0.059804
-0.003418
-0.070711
-0.057100
-0.098269
-0.109926
0.002119
-0.031850
-0.063279
-0.001460
-0.036127
-0.063804
-0.080144
-0.064219
-0.070114
-0.073862
0.012890
0.023489
-0.036299
0.025518
-0.085595
0.027205
0.018172
-0.090773
-0.054069
0.008768
-0.065031
-0.092422
-0.001395
-0.102433
-0.102911
0.025616
0.000215
-0.105991
-0.028479
-0.085367
0.015692
-0.094936
0.000479
-0.108360
-0.055403
0.009831
-0.015879
-0.008480
0.007407
-0.049130
-0.058127
-0.002994
-0.106283
0.000682
-0.097543
-0.110179
-0.109436
-0.044902
0.004857
0.001037
-0.052781
-0.046593
-0.057790
-0.041249
-0.063951
-0.044511
-0.040295
-0.019912
-0.061524
-0.027831
-0.036303
-0.034889
-0.022455
-0.063746
-0.062231
-0.020767
-0.025904
-0.031611
-0.029218
-0.030835
-0.063273
-0.059613
-0.046188
-0.027637
0.023971
-0.075260
-0.064076
-0.032367
-0.048956
-0.088544
-0.062418
-0.055471
-0.103344
0.002656
-0.103625
0.000443
0.009609
-0.026574
-0.063097
-0.107210
-0.084519
0.001008
0.005734
0.025602
-0.001699
-0.030619
-0.094591
-0.089410
-0.093630
-0.059170
-0.017326
-0.004760
0.003246
-0.109070
0.015873
-0.060855
-0.040165
-0.058681
-0.062456
-0.070558
-0.064018
-0.067864
-0.002128
0.020682
0.013209
-0.078932
0.022284
-0.091410
-0.001078
-0.044428
-0.051773
-0.060399
-0.063209
0.012027
0.018293
-0.081075
0.025213
-0.058998
-0.031236
-0.100035
-0.104905
-0.002973
0.017794
-0.022302
-0.073473
-0.003991
0.019160
0.000638
-0.099392
-0.065556
-0.054722
-0.096655
0.008170
-0.012309
-0.052281
-0.006837
-0.000155
-0.105351
-0.108590
0.001252
0.001581
-0.048559
-0.044310
-0.030787
-0.030037
-0.062841
-0.063252
-0.024259
-0.022633
-0.040030
-0.063696
-0.044474
-0.020883
-0.063433
-0.035551
-0.034954
0.014374
-0.056774
0.016372
-0.058706
-0.061814
-0.031635
-0.031815
-0.027716
-0.034223
-0.030515
0.018434
0.017793
-0.091723
-0.001517
0.014571
-0.049828
-0.063892
-0.045180
0.009274
-0.079173
-0.096894
-0.101911
-0.003573
-0.060247
-0.064983
0.000505
0.008476
-0.029361
-0.074141
-0.102545
-0.107669
-0.027186
-0.028775
0.012595
-0.056503
0.014103
-0.005793
0.001349
-0.020822
-0.010069
0.002270
-0.029214
-0.037673
-0.065559
0.025595
-0.028620
-0.030756
-0.002530
-0.073228
0.023784
0.022442
-0.091952
-0.052848
-0.082280
-0.030984
-0.087270
-0.000937
-0.092036
-0.064398
-0.083156
-0.062125
0.006604
-0.059295
-0.062160
0.012863
0.000182
0.012570
-0.062791
-0.023817
-0.042707
-0.093328
0.014023
-0.013801
-0.097072
-0.057602
-0.106144
0.006926
-0.004137
-0.060700
0.000810
-0.101847
-0.085797
-0.006918
-0.063723
-0.101362
0.004520
-0.107045
-0.108171
0.011232
-0.023086
-0.063321
-0.046520
-0.062671
-0.061402
-0.042874
-0.028282
-0.038406
-0.035778
-0.043449
-0.046637
-0.057056
-0.029336
-0.033211
-0.029436
-0.067628
-0.062287
-0.063232
-0.063653
-0.062297
0.025121
-0.023461
0.016142
0.023007
-0.062279
-0.063642
-0.021171
-0.029601
-0.026552
-0.063048
-0.036846
-0.020265
-0.022360
-0.030579
-0.048045
-0.025509
-0.080504
-0.062254
-0.053524
-0.090251
-0.089832
-0.060862
-0.001973
-0.029204
0.011334
-0.052788
-0.041831
-0.004698
0.007901
-0.025547
-0.067446
-0.082479
-0.060983
-0.062484
-0.104613
-0.027509
0.021807
-0.060184
0.023462
-0.096573
-0.026486
-0.067335
-0.086109
-0.018789
-0.100232
0.000113
-0.008083
-0.062644
0.005318
-0.061305
0.001060
-0.100722
0.003172
-0.106066
-0.040256
-0.038684
-0.072598
-0.061262
-0.061764
-0.035707
0.024240
0.020124
-0.064329
-0.041486
0.010946
0.014644
-0.002044
-0.062524
0.015743
-0.089687
-0.000373
-0.003075
-0.063644
-0.095120
0.013315
-0.064948
-0.024625
-0.085953
-0.004853
-0.011557
-0.068173
0.011929
0.020537
-0.077922
0.000792
-0.098819
0.006603
-0.060706
0.016238
-0.104313
-0.023376
-0.094423
-0.103349
0.001719
-0.008241
-0.020264
-0.106696
-0.063259
0.001652
-0.024423
-0.033499
-0.032941
-0.025893
-0.061862
-0.062907
-0.062073
-0.059504
-0.045889
0.005196
-0.026216
-0.028637
-0.041989
-0.029705
-0.048239
-0.046213
-0.070555
-0.040612
-0.023591
-0.027192
-0.029445
-0.019985
-0.063911
-0.033054
-0.063260
-0.023344
-0.028172
-0.063277
-0.057536
-0.030494
-0.029657
-0.049589
-0.060536
-0.024162
0.019711
0.013363
-0.061132
-0.035139
0.010742
-0.057829
-0.000019
-0.083383
-0.098619
-0.095573
0.005494
-0.029407
-0.024764
0.000983
-0.061792
-0.063024
-0.074296
-0.026502
0.008840
-0.027781
-0.088277
-0.076847
0.019410
0.009208
-0.006692
-0.068249
-0.069180
-0.103242
-0.101496
-0.043579
-0.068974
-0.077908
-0.043003
-0.084432
-0.029049
-0.002778
-0.004007
-0.018686
0.024110
-0.061727
-0.061123
0.010460
-0.026930
-0.064022
-0.093415
-0.024941
-0.042882
0.016362
-0.062058
-0.098381
0.021838
-0.023043
-0.061331
-0.068117
-0.005573
-0.091642
-0.065866
-0.062460
-0.063177
-0.060974
0.000740
0.004202
-0.009674
-0.060882
-0.088118
-0.015173
-0.097614
-0.079722
0.016784
0.012822
-0.105029
-0.064472
0.002317
0.004294
-0.025619
-0.105679
-0.099527
0.001347
-0.087832
-0.062729
-0.001617
-0.001388
-0.047848
-0.031839
-0.038402
-0.036890
-0.063018
-0.048856
-0.065327
-0.025021
-0.063572
-0.028018
-0.031640
-0.038957
-0.045126
-0.060554
-0.025136
-0.048290
-0.060623
-0.026118
-0.021028
-0.036447
-0.063820
-0.044492
0.023127
-0.057220
-0.082535
-0.026533
-0.002423
-0.024849
-0.029029
-0.023115
-0.027576
-0.063258
-0.060095
-0.086420
0.017153
-0.028340
-0.035988
-0.059626
-0.002798
-0.059414
0.009594
0.005879
-0.060714
-0.002758
-0.070507
-0.007534
-0.094183
-0.024439
-0.077527
-0.089884
-0.062707
-0.061507
-0.026531
-0.063018
-0.071150
-0.085198
-0.059365
0.001230
-0.023615
-0.097364
-0.062970
-0.069316
-0.060125
0.004260
-0.102165
0.022400
-0.046474
-0.061841
-0.030085
0.000064
-0.062405
-0.046001
0.006837
-0.031936
-0.054457
0.009658
-0.081247
-0.086755
0.020622
0.012089
-0.095742
-0.059960
-0.020430
-0.010856
0.014865
-0.003390
0.009367
-0.088152
0.018026
-0.000717
0.003177
-0.072343
-0.016531
0.000552
-0.102779
-0.079675
-0.085514
0.001756
-0.100064
-0.063790
-0.012830
0.014390
-0.027248
-0.041505
-0.073529
-0.071083
-0.005133
-0.096285
-0.103961
-0.101381
-0.064982
-0.047607
-0.093501
-0.045103
0.021836
-0.066642
-0.001531
-0.063043
-0.023545
-0.049569
-0.047580
-0.041971
-0.024396
-0.041933
-0.026428
-0.036817
-0.033485
-0.034381
-0.035558
-0.024388
-0.024003
-0.026222
-0.049877
-0.018675
-0.002393
-0.061266
-0.030651
-0.027098
-0.062762
-0.064373
-0.075905
-0.016206
-0.024660
-0.083952
-0.047064
-0.063492
-0.063749
-0.029355
-0.052425
-0.028774
-0.063280
-0.026738
-0.060182
-0.027008
-0.021601
-0.050846
-0.048765
-0.022276
-0.024400
0.017119
-0.076798
-0.058509
0.006082
-0.003653
-0.084865
-0.039377
-0.005976
-0.061178
-0.084743
-0.060702
-0.095686
-0.092737
-0.098196
0.018386
0.010260
-0.062977
-0.021986
-0.079482
-0.082284
-0.024964
0.021606
-0.048463
-0.085190
0.005472
-0.027750
-0.067901
-0.013999
-0.000951
0.003148
-0.100941
-0.100270
0.000621
-0.092089
-0.018002
0.019689
-0.004304
-0.027128
-0.025561
0.007616
-0.072870
0.008698
0.022389
-0.002706
0.004100
0.007904
-0.062261
-0.087547
0.013116
-0.058877
-0.062212
-0.009341
-0.040282
-0.060220
-0.021130
-0.065102
-0.063574
-0.058662
-0.001750
-0.070605
-0.059584
0.001732
-0.071670
-0.063267
-0.098228
-0.059164
-0.005009
-0.070552
-0.025957
-0.091805
-0.089967
0.015123
0.010759
-0.082822
-0.060125
-0.006185
-0.031175
-0.026331
-0.062579
0.002308
-0.065260
-0.024564
-0.025583
-0.044545
-0.082043
-0.047797
-0.063688
-0.063517
-0.034447
-0.041303
-0.068373
-0.045106
-0.041221
-0.049487
-0.003394
-0.028750
-0.034757
-0.031342
-0.062696
-0.032484
-0.045150
-0.061261
-0.022511
-0.075903
-0.051167
-0.025655
-0.029340
-0.055556
-0.049097
-0.058974
-0.022697
-0.063069
-0.014042
-0.023771
-0.029733
-0.024714
-0.049526
-0.064486
-0.024762
-0.020002
-0.026342
-0.083986
-0.062484
-0.052246
-0.025611
-0.023733
-0.021009
-0.057531
-0.041863
-0.057411
-0.083550
-0.042212
0.009318
0.002823
-0.060669
-0.003136
-0.072628
-0.023246
-0.067612
-0.006546
-0.016446
-0.028732
-0.081149
-0.050545
-0.058854
-0.090199
-0.062151
-0.063275
-0.083607
-0.050274
0.000679
-0.002144
0.002404
-0.023066
-0.063726
-0.072767
-0.021537
0.019298
-0.074486
-0.078558
-0.019996
-0.011155
-0.057641
-0.059897
-0.027466
-0.062112
0.015140
0.006251
-0.031488
-0.057965
-0.093613
-0.073585
-0.017497
-0.025032
-0.057375
-0.046646
-0.051595
-0.002923
0.003948
-0.099017
0.014655
-0.030952
0.007930
-0.099460
-0.090736
-0.004720
-0.000106
-0.080835
-0.097029
-0.036974
0.020709
0.012342
-0.025386
-0.007964
0.008360
-0.065014
-0.095044
-0.087079
0.018457
-0.086561
-0.067548
-0.062702
-0.043815
-0.075003
-0.004465
-0.064142
-0.033374
-0.047626
-0.027190
-0.044480
-0.038800
-0.051024
-0.063118
-0.063367
-0.047785
-0.013841
-0.080040
-0.050699
-0.028407
-0.056675
-0.038198
-0.022571
-0.058610
-0.021702
-0.077390
-0.027145
-0.063164
-0.022507
-0.005698
0.007029
0.024121
-0.025171
-0.026011
-0.020956
-0.025686
-0.023359
-0.012005
-0.065084
-0.023462
-0.082556
-0.071063
-0.062520
-0.061769
-0.005570
-0.028213
-0.028180
-0.023728
0.014106
-0.019339
-0.021888
-0.060659
-0.081008
-0.066370
0.003151
0.005231
-0.044079
-0.059828
-0.003536
-0.089344
0.007686
-0.007717
-0.073114
-0.021305
-0.008253
-0.008245
-0.020794
-0.074059
-0.061404
0.018021
-0.017936
0.003758
-0.062111
-0.056187
-0.024736
-0.085109
-0.063053
-0.095117
-0.097659
0.010918
-0.000292
-0.069728
-0.025460
-0.014213
-0.083329
0.020953
-0.077303
-0.055947
-0.029267
-0.051976
-0.000979
-0.050415
-0.057886
-0.057274
-0.061755
0.006863
-0.051708
-0.088401
-0.063746
-0.056464
-0.005818
-0.062594
0.003336
-0.063475
-0.093217
0.001544
-0.054699
-0.004443
0.015644
-0.024238
-0.024056
-0.010564
-0.074339
-0.097397
0.001790
-0.039183
-0.088562
-0.059359
-0.009483
-0.081722
0.012611
-0.001280
-0.059464
0.015823
-0.091712
-0.076033
-0.079420
-0.091404
-0.069588
-0.019313
0.008077
-0.035555
-0.064707
-0.005405
-0.079238
-0.024805
-0.023278
-0.020377
-0.024597
-0.067854
-0.022656
0.020520
-0.032794
-0.049590
-0.032123
-0.030039
-0.046600
-0.037357
-0.043254
-0.063487
-0.024830
-0.024537
-0.052242
-0.046906
-0.044026
-0.025338
-0.020912
-0.053385
-0.034608
-0.049817
-0.077185
-0.021476
-0.062799
-0.051929
-0.014117
-0.062918
0.000675
-0.032197
-0.029695
-0.027016
-0.079871
-0.058201
0.022415
-0.063183
-0.060261
-0.063217
-0.026727
-0.063964
0.012004
-0.024771
-0.022556
-0.053315
0.010855
-0.023301
-0.055247
-0.019466
-0.065215
-0.078526
-0.047779
-0.047675
-0.056365
0.000928
-0.005259
-0.059143
-0.004240
-0.083717
-0.008438
-0.087969
-0.060340
-0.073509
-0.089945
-0.016249
-0.019184
-0.031304
-0.000493
-0.071921
-0.026324
0.002013
-0.093227
-0.062366
-0.021930
-0.087348
-0.063043
-0.025124
-0.005722
-0.034093
-0.020004
0.019425
0.017163
-0.078818
-0.063149
-0.022764
-0.054258
-0.031769
0.004240
-0.052941
0.004933
-0.009678
-0.091476
-0.058254
-0.011821
-0.095747
-0.055375
-0.010335
-0.041333
-0.057312
-0.085150
-0.096227
0.002961
0.017327
-0.081884
0.008746
0.012278
-0.061353
-0.056827
-0.026914
-0.008475
-0.088578
-0.023685
-0.006793
-0.077925
-0.071810
0.013114
-0.081908
-0.023434
-0.021524
0.006042
0.006310
-0.075590
-0.062995
-0.063058
-0.078550
-0.020132
-0.067230
-0.058465
-0.057833
-0.064552
0.018900
-0.024815
-0.002738
-0.024283
-0.068391
-0.045520
-0.021407
-0.035076
-0.019107
-0.027688
-0.025240
-0.014056
0.004077
-0.051166
-0.080141
-0.020139
0.009644
-0.048982
-0.036167
-0.021583
-0.048869
-0.046269
-0.053173
-0.041593
-0.011181
-0.008194
-0.022678
-0.051456
-0.002175
-0.026904
-0.063316
-0.028841
-0.053223
-0.086350
-0.063493
-0.036138
-0.022725
-0.020974
-0.021962
-0.032928
-0.024183
-0.025232
0.001713
0.005570
-0.061772
-0.041197
-0.063107
-0.016492
-0.062788
-0.076980
-0.055509
-0.061404
-0.062426
-0.054121
-0.023771
0.017143
-0.054124
0.009963
-0.056187
-0.054798
-0.018761
-0.042657
-0.000157
-0.044219
0.001686
-0.081156
-0.057656
0.006490
-0.033135
-0.004928
-0.086991
-0.010681
-0.020675
-0.077294
-0.053915
-0.044364
-0.020509
-0.067289
0.002783
-0.010701
-0.024011
-0.077206
-0.008274
-0.038890
0.006219
-0.061438
-0.080456
-0.055627
-0.062049
-0.061929
-0.018503
-0.017717
0.004925
-0.085017
-0.012901
-0.021282
-0.079472
-0.078079
-0.054240
-0.071609
-0.008388
-0.053764
-0.054090
-0.018502
-0.075314
-0.006657
-0.013801
0.018879
-0.094339
-0.093186
-0.059704
-0.088260
-0.073576
0.000718
-0.034781
-0.062679
-0.086353
0.014814
0.008541
-0.078717
-0.058999
-0.063054
-0.006283
-0.017512
-0.050804
-0.000500
-0.079354
0.010343
0.002919
-0.019967
0.001811
0.014273
-0.001685
0.016655
-0.082086
0.005116
-0.010446
-0.023235
-0.022410
-0.019878
-0.075483
-0.090029
-0.055273
-0.004320
-0.066893
-0.023347
0.000199
-0.069448
-0.019978
-0.036673
-0.029456
-0.033127
-0.018764
-0.052501
-0.080463
-0.023727
-0.047754
-0.050637
-0.063269
-0.062977
-0.057191
-0.039517
-0.026453
-0.048308
-0.027140
-0.045462
-0.054323
-0.011370
-0.050689
0.008144
-0.030043
-0.020956
-0.020581
-0.027375
-0.052833
-0.060999
-0.060843
-0.087077
-0.022625
-0.062234
-0.025684
-0.022007
-0.027960
-0.024644
-0.062580
0.006929
-0.062846
-0.023171
-0.020365
-0.062987
-0.062913
-0.010536
0.015632
-0.023415
-0.053538
-0.079423
-0.051074
-0.000159
-0.003015
-0.054906
-0.001507
-0.085366
-0.034739
-0.009203
0.004344
-0.084942
-0.059843
-0.010573
-0.012750
-0.075727
-0.014728
-0.026845
-0.072891
-0.076516
-0.053507
-0.077029
0.002362
0.009775
-0.006027
-0.024470
-0.001988
0.001097
-0.062523
-0.017324
-0.019807
-0.060686
-0.017731
-0.015972
-0.042492
0.005126
0.017761
0.014996
0.012225
-0.062260
-0.084255
-0.092301
-0.046900
-0.076256
-0.080240
-0.058407
-0.003059
-0.052894
-0.010904
-0.062673
-0.056665
-0.019010
-0.000116
-0.041561
0.007844
0.007572
-0.000345
-0.064996
-0.021197
-0.061160
-0.038884
-0.003359
-0.029027
0.003252
-0.008819
-0.088522
-0.043652