# vtk DataFile Version 2.0
Test
ASCII
DATASET POLYDATA
POINTS 4677 float
0.000000 0.000000 0.000000
0.080000 0.000000 0.000000
0.080000 0.160000 0.000000
0.000000 0.160000 0.000000
0.036000 0.073072 0.000000
0.044000 0.086928 0.000000
0.024500 0.065566 0.000000
0.055500 0.093560 0.000000
0.001000 0.050000 0.000000
0.079000 0.110000 0.000000
0.002963 0.000000 0.000000
0.005926 0.000000 0.000000
0.008889 0.000000 0.000000
0.011852 0.000000 0.000000
0.014815 0.000000 0.000000
0.017778 0.000000 0.000000
0.020741 0.000000 0.000000
0.023704 0.000000 0.000000
0.026667 0.000000 0.000000
0.029630 0.000000 0.000000
0.032593 0.000000 0.000000
0.035556 0.000000 0.000000
0.038519 0.000000 0.000000
0.041481 0.000000 0.000000
0.044444 0.000000 0.000000
0.047407 0.000000 0.000000
0.050370 0.000000 0.000000
0.053333 0.000000 0.000000
0.056296 0.000000 0.000000
0.059259 0.000000 0.000000
0.062222 0.000000 0.000000
0.065185 0.000000 0.000000
0.068148 0.000000 0.000000
0.071111 0.000000 0.000000
0.074074 0.000000 0.000000
0.077037 0.000000 0.000000
0.080000 0.002963 0.000000
0.080000 0.005926 0.000000
0.080000 0.008889 0.000000
0.080000 0.011852 0.000000
0.080000 0.014815 0.000000
0.080000 0.017778 0.000000
0.080000 0.020741 0.000000
0.080000 0.023704 0.000000
0.080000 0.026667 0.000000
0.080000 0.029630 0.000000
0.080000 0.032593 0.000000
0.080000 0.035556 0.000000
0.080000 0.038519 0.000000
0.080000 0.041481 0.000000
0.080000 0.044444 0.000000
0.080000 0.047407 0.000000
0.080000 0.050370 0.000000
0.080000 0.053333 0.000000
0.080000 0.056296 0.000000
0.080000 0.059259 0.000000
0.080000 0.062222 0.000000
0.080000 0.065185 0.000000
0.080000 0.068148 0.000000
0.080000 0.071111 0.000000
0.080000 0.074074 0.000000
0.080000 0.077037 0.000000
0.080000 0.080000 0.000000
0.080000 0.082963 0.000000
0.080000 0.085926 0.000000
0.080000 0.088889 0.000000
0.080000 0.091852 0.000000
0.080000 0.094815 0.000000
0.080000 0.097778 0.000000
0.080000 0.100741 0.000000
0.080000 0.103704 0.000000
0.080000 0.106667 0.000000
0.080000 0.109630 0.000000
0.080000 0.112593 0.000000
0.080000 0.115556 0.000000
0.080000 0.118519 0.000000
0.080000 0.121481 0.000000
0.080000 0.124444 0.000000
0.080000 0.127407 0.000000
0.080000 0.130370 0.000000
0.080000 0.133333 0.000000
0.080000 0.136296 0.000000
0.080000 0.139259 0.000000
0.080000 0.142222 0.000000
0.080000 0.145185 0.000000
0.080000 0.148148 0.000000
0.080000 0.151111 0.000000
0.080000 0.154074 0.000000
0.080000 0.157037 0.000000
0.077037 0.160000 0.000000
0.074074 0.160000 0.000000
0.071111 0.160000 0.000000
0.068148 0.160000 0.000000
0.065185 0.160000 0.000000
0.062222 0.160000 0.000000
0.059259 0.160000 0.000000
0.056296 0.160000 0.000000
0.053333 0.160000 0.000000
0.050370 0.160000 0.000000
0.047407 0.160000 0.000000
0.044444 0.160000 0.000000
0.041481 0.160000 0.000000
0.038519 0.160000 0.000000
0.035556 0.160000 0.000000
0.032593 0.160000 0.000000
0.029630 0.160000 0.000000
0.026667 0.160000 0.000000
0.023704 0.160000 0.000000
0.020741 0.160000 0.000000
0.017778 0.160000 0.000000
0.014815 0.160000 0.000000
0.011852 0.160000 0.000000
0.008889 0.160000 0.000000
0.005926 0.160000 0.000000
0.002963 0.160000 0.000000
0.000000 0.157037 0.000000
0.000000 0.154074 0.000000
0.000000 0.151111 0.000000
0.000000 0.148148 0.000000
0.000000 0.145185 0.000000
0.000000 0.142222 0.000000
0.000000 0.139259 0.000000
0.000000 0.136296 0.000000
0.000000 0.133333 0.000000
0.000000 0.130370 0.000000
0.000000 0.127407 0.000000
0.000000 0.124444 0.000000
0.000000 0.121481 0.000000
0.000000 0.118519 0.000000
0.000000 0.115556 0.000000
0.000000 0.112593 0.000000
0.000000 0.109630 0.000000
0.000000 0.106667 0.000000
0.000000 0.103704 0.000000
0.000000 0.100741 0.000000
0.000000 0.097778 0.000000
0.000000 0.094815 0.000000
0.000000 0.091852 0.000000
0.000000 0.088889 0.000000
0.000000 0.085926 0.000000
0.000000 0.082963 0.000000
0.000000 0.080000 0.000000
0.000000 0.077037 0.000000
0.000000 0.074074 0.000000
0.000000 0.071111 0.000000
0.000000 0.068148 0.000000
0.000000 0.065185 0.000000
0.000000 0.062222 0.000000
0.000000 0.059259 0.000000
0.000000 0.056296 0.000000
0.000000 0.053333 0.000000
0.000000 0.050370 0.000000
0.000000 0.047407 0.000000
0.000000 0.044444 0.000000
0.000000 0.041481 0.000000
0.000000 0.038519 0.000000
0.000000 0.035556 0.000000
0.000000 0.032593 0.000000
0.000000 0.029630 0.000000
0.000000 0.026667 0.000000
0.000000 0.023704 0.000000
0.000000 0.020741 0.000000
0.000000 0.017778 0.000000
0.000000 0.014815 0.000000
0.000000 0.011852 0.000000
0.000000 0.008889 0.000000
0.000000 0.005926 0.000000
0.000000 0.002963 0.000000
0.035500 0.072746 0.000000
0.035000 0.072419 0.000000
0.034500 0.072093 0.000000
0.034000 0.071767 0.000000
0.033500 0.071440 0.000000
0.033000 0.071114 0.000000
0.032500 0.070788 0.000000
0.032000 0.070461 0.000000
0.031500 0.070135 0.000000
0.031000 0.069809 0.000000
0.030500 0.069482 0.000000
0.030000 0.069156 0.000000
0.029500 0.068829 0.000000
0.029000 0.068503 0.000000
0.028500 0.068177 0.000000
0.028000 0.067850 0.000000
0.027500 0.067524 0.000000
0.027000 0.067198 0.000000
0.026500 0.066871 0.000000
0.026000 0.066545 0.000000
0.025500 0.066219 0.000000
0.025000 0.065892 0.000000
0.044500 0.087216 0.000000
0.045000 0.087505 0.000000
0.045500 0.087793 0.000000
0.046000 0.088081 0.000000
0.046500 0.088370 0.000000
0.047000 0.088658 0.000000
0.047500 0.088946 0.000000
0.048000 0.089235 0.000000
0.048500 0.089523 0.000000
0.049000 0.089811 0.000000
0.049500 0.090100 0.000000
0.050000 0.090388 0.000000
0.050500 0.090677 0.000000
0.051000 0.090965 0.000000
0.051500 0.091253 0.000000
0.052000 0.091542 0.000000
0.052500 0.091830 0.000000
0.053000 0.092118 0.000000
0.053500 0.092407 0.000000
0.054000 0.092695 0.000000
0.054500 0.092983 0.000000
0.055000 0.093272 0.000000
0.043704 0.086415 0.000000
0.043407 0.085902 0.000000
0.043111 0.085388 0.000000
0.042815 0.084875 0.000000
0.042519 0.084362 0.000000
0.042222 0.083849 0.000000
0.041926 0.083336 0.000000
0.041630 0.082823 0.000000
0.041333 0.082309 0.000000
0.041037 0.081796 0.000000
0.040741 0.081283 0.000000
0.040444 0.080770 0.000000
0.040148 0.080257 0.000000
0.039852 0.079743 0.000000
0.039556 0.079230 0.000000
0.039259 0.078717 0.000000
0.038963 0.078204 0.000000
0.038667 0.077691 0.000000
0.038370 0.077177 0.000000
0.038074 0.076664 0.000000
0.037778 0.076151 0.000000
0.037481 0.075638 0.000000
0.037185 0.075125 0.000000
0.036889 0.074612 0.000000
0.036593 0.074098 0.000000
0.036296 0.073585 0.000000
0.024000 0.065235 0.000000
0.023500 0.064904 0.000000
0.023000 0.064572 0.000000
0.022500 0.064241 0.000000
0.022000 0.063910 0.000000
0.021500 0.063579 0.000000
0.021000 0.063248 0.000000
0.020500 0.062916 0.000000
0.020000 0.062585 0.000000
0.019500 0.062254 0.000000
0.019000 0.061923 0.000000
0.018500 0.061592 0.000000
0.018000 0.061261 0.000000
0.017500 0.060929 0.000000
0.017000 0.060598 0.000000
0.016500 0.060267 0.000000
0.016000 0.059936 0.000000
0.015500 0.059605 0.000000
0.015000 0.059273 0.000000
0.014500 0.058942 0.000000
0.014000 0.058611 0.000000
0.013500 0.058280 0.000000
0.013000 0.057949 0.000000
0.012500 0.057617 0.000000
0.012000 0.057286 0.000000
0.011500 0.056955 0.000000
0.011000 0.056624 0.000000
0.010500 0.056293 0.000000
0.010000 0.055961 0.000000
0.009500 0.055630 0.000000
0.009000 0.055299 0.000000
0.008500 0.054968 0.000000
0.008000 0.054637 0.000000
0.007500 0.054305 0.000000
0.007000 0.053974 0.000000
0.006500 0.053643 0.000000
0.006000 0.053312 0.000000
0.005500 0.052981 0.000000
0.005000 0.052650 0.000000
0.004500 0.052318 0.000000
0.004000 0.051987 0.000000
0.003500 0.051656 0.000000
0.003000 0.051325 0.000000
0.002500 0.050994 0.000000
0.002000 0.050662 0.000000
0.001500 0.050331 0.000000
0.055990 0.093902 0.000000
0.056479 0.094245 0.000000
0.056969 0.094587 0.000000
0.057458 0.094930 0.000000
0.057948 0.095272 0.000000
0.058437 0.095615 0.000000
0.058927 0.095957 0.000000
0.059417 0.096300 0.000000
0.059906 0.096642 0.000000
0.060396 0.096985 0.000000
0.060885 0.097327 0.000000
0.061375 0.097670 0.000000
0.061865 0.098012 0.000000
0.062354 0.098355 0.000000
0.062844 0.098697 0.000000
0.063333 0.099040 0.000000
0.063823 0.099382 0.000000
0.064312 0.099725 0.000000
0.064802 0.100067 0.000000
0.065292 0.100410 0.000000
0.065781 0.100752 0.000000
0.066271 0.101095 0.000000
0.066760 0.101437 0.000000
0.067250 0.101780 0.000000
0.067740 0.102122 0.000000
0.068229 0.102465 0.000000
0.068719 0.102807 0.000000
0.069208 0.103150 0.000000
0.069698 0.103492 0.000000
0.070187 0.103835 0.000000
0.070677 0.104177 0.000000
0.071167 0.104520 0.000000
0.071656 0.104862 0.000000
0.072146 0.105205 0.000000
0.072635 0.105547 0.000000
0.073125 0.105890 0.000000
0.073615 0.106232 0.000000
0.074104 0.106575 0.000000
0.074594 0.106917 0.000000
0.075083 0.107260 0.000000
0.075573 0.107602 0.000000
0.076062 0.107945 0.000000
0.076552 0.108287 0.000000
0.077042 0.108630 0.000000
0.077531 0.108972 0.000000
0.078021 0.109315 0.000000
0.078510 0.109658 0.000000
0.043942 0.087469 0.000000
0.035556 0.157037 0.000000
0.044420 0.002920 0.000000
0.077037 0.038519 0.000000
0.002963 0.121481 0.000000
0.077037 0.059259 0.000000
0.002963 0.109630 0.000000
0.002923 0.098139 0.000000
0.077153 0.126913 0.000000
0.002808 0.032596 0.000000
0.077140 0.071061 0.000000
0.002963 0.085926 0.000000
0.002963 0.136296 0.000000
0.077041 0.023701 0.000000
0.056296 0.157037 0.000000
0.032593 0.002963 0.000000
0.077037 0.080000 0.000000
0.002813 0.077135 0.000000
0.077037 0.142222 0.000000
0.017778 0.157037 0.000000
0.062222 0.002963 0.000000
0.076992 0.088722 0.000000
0.002945 0.020743 0.000000
0.017777 0.002962 0.000000
0.002801 0.068434 0.000000
0.002959 0.011851 0.000000
0.065186 0.157038 0.000000
0.002963 0.148148 0.000000
0.077037 0.011852 0.000000
0.076887 0.094740 0.000000
0.077092 0.115875 0.000000
0.002677 0.044265 0.000000
0.077038 0.148148 0.000000
0.002985 0.062165 0.000000
0.077037 0.047407 0.000000
0.011852 0.002963 0.000000
[...]
POINT_DATA 4677
SCALARS UX float 1
LOOKUP_TABLE default
-0.000000
0.000001
-0.012612
-0.051897
0.000642
-0.024752
-0.030253
0.023155
-0.052746
0.026990
-0.000000
-0.000000
-0.000000
-0.000000
-0.000000
-0.000000
-0.000000
-0.000000
-0.000000
-0.000000
-0.000000
-0.000000
-0.000000
0.000000
0.000000
0.000000
0.000000
0.000000
0.000000
0.000000
0.000000
0.000000
0.000000
0.000000
0.000000
-0.000000
0.002428
0.003781
0.004797
0.005731
0.006628
0.007539
0.008485
0.009476
0.010483
0.011827
0.013855
0.015396
0.016978
0.018671
0.020166
0.021502
0.022609
0.023585
0.024410
0.025149
0.025957
0.027988
0.031113
0.034516
0.037907
0.037607
0.036984
0.036295
0.034941
0.034016
0.033124
0.032269
0.031397
0.030630
0.029645
0.028399
0.027468
0.027753
0.029058
0.031626
0.037969
0.039903
0.034664
0.025817
0.014843
0.011693
0.000976
-0.006035
-0.009886
-0.011429
-0.011854
-0.012109
-0.012476
-0.014219
-0.015711
-0.017232
-0.018896
-0.020398
-0.021846
-0.023369
-0.024867
-0.026321
-0.027876
-0.029488
-0.031100
-0.032742
-0.034455
-0.036141
-0.037717
-0.039238
-0.040788
-0.042397
-0.043880
-0.045249
-0.046548
-0.047716
-0.048827
-0.049848
-0.050908
-0.051647
-0.051174
-0.050586
-0.049863
-0.049066
-0.048312
-0.047787
-0.047600
-0.047750
-0.048205
-0.048699
-0.050000
-0.049947
-0.050074
-0.049825
-0.048910
-0.048113
-0.047490
-0.046508
-0.045225
-0.043941
-0.042941
-0.042176
-0.041326
-0.040534
-0.039901
-0.039396
-0.038848
-0.038429
-0.038566
-0.039172
-0.040318
-0.042350
-0.044481
-0.047198
-0.049872
-0.052526
-0.055305
-0.058016
-0.060474
-0.064643
-0.068367
-0.071550
-0.060152
-0.026930
-0.020667
-0.016053
-0.013053
-0.011594
-0.010152
-0.008557
-0.006693
-0.004282
0.000641
-0.003045
-0.004820
-0.007517
-0.013414
-0.011398
-0.013617
-0.014942
-0.016337
-0.018507
-0.021169
-0.022765
-0.023869
-0.023095
-0.025743
-0.015690
-0.015993
-0.022222
-0.025698
-0.027967
-0.028872
-0.032008
-0.020526
-0.002498
-0.001605
0.010446
0.011374
-0.000525
0.005724
0.013666
0.018574
0.004777
0.007168
0.013277
0.017677
0.014715
0.016408
0.015850
0.017625
0.024558
0.023047
0.022876
0.022889
0.023110
-0.019243
-0.018194
-0.013436
-0.013884
-0.011703
-0.008274
-0.004090
-0.000693
0.001286
0.002132
0.002518
0.003409
0.003559
0.003422
0.003392
0.003449
0.003573
0.003761
0.003510
0.003056
0.002666
0.002129
0.001903
0.001751
0.001953
0.002437
-0.030741
-0.031302
-0.031773
-0.032312
-0.032859
-0.033415
-0.033928
-0.034410
-0.034920
-0.035396
-0.035883
-0.036366
-0.036868
-0.037349
-0.037825
-0.038263
-0.038698
-0.039150
-0.039580
-0.040010
-0.040434
-0.040878
-0.041315
-0.041770
-0.042235
-0.042711
-0.043204
-0.043707
-0.044214
-0.044729
-0.045250
-0.045777
-0.046307
-0.046829
-0.047352
-0.047862
-0.048372
-0.048872
-0.049339
-0.049797
-0.050264
-0.050667
-0.051108
-0.051507
-0.051919
-0.052328
0.023217
0.023338
0.023217
0.023320
0.023319
0.023308
0.023148
0.023013
0.022917
0.022870
0.022855
0.022864
0.022901
0.022977
0.023084
0.023226
0.023453
0.023684
0.023925
0.024153
0.024377
0.024595
0.024809
0.025017
0.025221
0.025417
0.025594
0.025769
0.025901
0.026009
0.026137
0.026125
0.026163
0.026175
0.026177
0.026206
0.026238
0.026273
0.026310
0.026341
0.026379
0.026423
0.026471
0.026528
0.026603
0.026683
0.026825
-0.011911
-0.036212
0.000116
0.015529
-0.048562
0.023036
-0.046977
-0.042551
0.031436
-0.066874
0.030441
-0.039031
-0.046303
0.008423
-0.024896
-0.000178
0.035889
-0.037479
-0.011537
-0.045231
0.000311
0.032727
-0.013281
-0.000801
-0.037943
-0.008948
-0.020450
-0.049008
0.004608
0.030654
0.027535
-0.057737
-0.014309
-0.041371
0.019831
-0.001326
-0.017222
-0.049785
0.000588
-0.044027
0.028984
0.006109
-0.032671
-0.029414
-0.000366
-0.046666
0.010876
-0.042322
0.000278
-0.014151
0.028773
-0.060146
-0.011915
0.034195
-0.061702
-0.046196
-0.037177
0.034947
-0.040521
-0.038301
0.024513
0.033962
0.021636
-0.045147
0.028057
-0.048600
-0.037175
-0.021441
0.017072
-0.039253
0.002779
0.000223
0.000079
-0.047052
0.012491
0.000011
-0.011801
-0.000535
-0.023384
-0.027819
-0.047425
0.006493
-0.007451
-0.001633
-0.005126
-0.047599
0.000390
-0.013278
-0.002357
-0.002309
-0.050297
0.002302
-0.050764
0.000862
0.026451
-0.013491
-0.052699
-0.050252
0.027112
-0.014075
0.000056
0.014500
0.029671
-0.027782
-0.037063
0.028958
-0.027826
-0.044767
-0.004938
-0.000817
-0.057907
-0.010622
-0.042528
0.034092
0.027402
-0.025097
-0.007842
-0.002796
-0.004532
-0.016573
-0.049363
0.001291
0.026598
-0.055220
0.030078
-0.039108
0.031766
-0.037360
-0.051734
0.034049
0.035103
-0.063883
0.026962
-0.038024
0.036174
-0.039888
-0.041580
0.027159
0.023712
-0.043918
-0.046325
0.022425
-0.047742
0.020799
0.020593
0.018524
-0.049067
-0.034372
-0.048182
0.014022
-0.037765
0.000173
-0.031033
-0.017039
-0.040759
0.000256
-0.000074
-0.006459
-0.046246
0.009347
-0.026384
-0.000279
-0.043885
0.000292
-0.010383
-0.000617
-0.021913
-0.046706
0.007464
-0.001132
-0.048235
0.005560
-0.018800
-0.013514
-0.046431
0.000333
-0.015757
-0.013940
-0.048713
0.000480
-0.049691
0.003562
-0.052917
0.026679
0.026405
-0.045052
-0.051983
-0.011586
-0.014154
0.027601
-0.048238
0.026733
-0.059073
-0.005631
-0.004951
0.001111
0.021571
-0.039995
-0.045177
0.025268
-0.057093
-0.037796
-0.043687
-0.036284
0.000446
0.008231
0.030612
-0.045746
-0.046305
0.028853
0.004467
-0.047422
0.000728
0.026176
-0.052634
0.028761
0.020425
-0.046590
0.018863
-0.047174
-0.030908
-0.044735
-0.022012
-0.001317
-0.002327
-0.048781
-0.018760
-0.015646
-0.053463
0.026403
-0.055721
0.026068
0.034365
-0.038867
0.032991
-0.036637
-0.047876
0.032572
0.033633
-0.042423
0.027081
-0.059244
-0.060253
-0.057152
0.023750
0.026688
-0.038187
0.012842
-0.000237
-0.000069
-0.018463
0.016881
0.015746
0.000281
0.000182
-0.037557
0.002196
-0.029253
-0.040775
-0.026468
-0.045650
-0.044896
-0.014060
-0.016906
-0.002611
-0.034373
-0.013844
-0.000610
-0.023466
-0.009144
-0.001007
0.006407
0.000577
-0.012105
-0.006457
-0.003479
-0.015775
-0.048372
0.000959
0.002367
-0.043669
-0.014823
-0.013903
0.026205
-0.051768
-0.050948
0.026944
-0.053645
0.026769
-0.016863
0.002668
-0.009924
-0.008334
-0.016431
-0.000198
0.013948
0.022830
-0.036770
-0.030623
-0.043938
-0.026372
-0.006850
0.032204
-0.001115
-0.026314
-0.012475
-0.009483
-0.003507
-0.052390
0.025890
0.026191
0.003039
-0.036067
0.011451
0.000158
-0.012735
-0.001743
-0.023532
-0.017944
-0.042802
-0.047869
0.001630
-0.009189
-0.036713
0.029771
-0.050465
-0.040284
-0.044090
-0.036125
-0.038927
-0.040781
0.009807
0.022134
0.025925
0.021076
-0.046061
0.019649
0.031046
-0.046942
0.021416
0.031395
-0.036244
-0.032655
-0.000406
-0.039324
-0.045022
0.017884
0.000368
-0.042199
-0.014641
-0.029185
0.011889
-0.046806
0.000517
-0.045087
-0.016442
0.007363
-0.008103
-0.005250
0.005414
-0.017381
-0.020424
-0.001735
-0.046604
0.000638
-0.036146
-0.047363
-0.048141
-0.017294
0.003463
0.000823
-0.057914
0.026336
-0.056128
-0.015458
-0.049153
-0.013676
-0.005661
0.026757
-0.054261
0.025868
-0.012516
0.008275
0.026274
-0.050362
-0.053490
0.026675
0.025978
0.007400
0.004103
0.003489
-0.050966
-0.055180
-0.015070
0.005684
0.019335
-0.040917
-0.035553
-0.026815
0.022233
-0.030579
-0.035104
-0.055187
-0.040745
0.029797
-0.044846
0.000594
0.007166
-0.012765
-0.039595
-0.044758
-0.044363
0.000981
0.004376
0.017411
-0.000383
0.025487
-0.034043
-0.045401
-0.045108
-0.017739
-0.008408
-0.002971
0.002495
-0.046925
0.024727
-0.054022
0.024896
-0.003228
-0.035665
-0.038778
-0.035739
-0.037475
-0.000705
0.020740
0.010083
-0.042493
0.014862
-0.032124
-0.000025
-0.054889
0.027153
-0.009871
-0.035395
0.031568
0.031867
-0.027662
0.016768
-0.016369
-0.018132
-0.043164
-0.042208
-0.001393
0.013021
-0.011012
-0.024900
-0.002205
0.021630
0.000720
-0.037699
-0.022086
-0.018852
-0.042979
0.006316
-0.006758
-0.017592
-0.004261
0.000319
-0.045769
-0.047268
0.001123
0.001308
-0.053337
-0.010023
-0.000305
0.006914
-0.051554
-0.050498
0.026017
0.026198
-0.013275
-0.048873
-0.014045
0.026486
-0.037799
0.003037
0.025510
0.031670
0.009853
0.028498
-0.054186
-0.053201
-0.015084
0.007019
0.025667
-0.013195
0.004068
0.012249
0.019225
-0.043064
-0.000136
0.029476
-0.051495
-0.012379
0.023479
0.030190
-0.026301
-0.041183
-0.040747
-0.001701
-0.053450
-0.018505
0.000718
0.006822
0.025383
-0.023647
-0.043905
-0.046363
0.005774
-0.013956
0.009629
0.013434
0.020704
-0.003315
0.001313
-0.009918
-0.005691
0.001901
-0.001171
0.024937
-0.036141
0.018592
-0.005763
-0.018946
-0.000787
-0.039953
0.015801
0.019881
-0.032577
0.019967
-0.043648
0.005658
-0.045362
0.000125
-0.045423
-0.013296
-0.027960
-0.034766
0.030298
0.008656
-0.036008
0.025105
0.000457
0.030586
-0.034960
-0.011340
-0.051441
-0.041696
0.010551
-0.007115
-0.035889
-0.019052
-0.043506
0.005349
-0.002046
-0.020397
0.000848
-0.043896
-0.029218
-0.004016
-0.019149
-0.039256
0.003440
-0.046576
-0.045902
0.008653
0.026129
-0.049413
-0.013083
-0.038135
-0.052793
-0.006310
0.006078
-0.012681
-0.012643
-0.014201
-0.015205
-0.054058
-0.008632
-0.001530
-0.000116
-0.036984
-0.035310
-0.035405
-0.048085
-0.009789
0.018890
0.026094
0.033055
0.032658
-0.052006
-0.049557
0.026428
0.007939
0.025648
-0.051021
-0.046374
0.026638
0.026240
0.006322
-0.016368
0.006435
-0.042207
-0.034463
0.016569
-0.031868
-0.040014
-0.034113
-0.000206
-0.019614
0.008393
-0.051395
0.023986
-0.002155
0.029196
-0.011790
-0.016766
-0.027391
-0.052133
-0.039265
-0.043170
0.025452
0.017703
0.004901
0.014511
-0.035702
0.003491
-0.020231
-0.043578
-0.008654
-0.039239
0.000523
-0.004451
-0.020463
0.004385
-0.034797
0.001099
-0.042918
0.002636
-0.045669
-0.013248
-0.003760
-0.039197
-0.034196
-0.034457
-0.039020
0.016799
0.018360
-0.035405
-0.049360
0.008366
0.030430
-0.000451
-0.036993
0.019915
-0.042997
0.000332
-0.001280
-0.047289
-0.041003
0.027022
-0.016851
0.025883
-0.029097
-0.002571
-0.006086
-0.022111
0.021515
0.013281
-0.024891
0.000897
-0.041939
0.005372
-0.019226
0.011161
-0.044833
0.026079
-0.034174
-0.042006
0.001567
-0.004745
0.026576
-0.045380
-0.048440
0.029008
0.025926
0.025229
-0.010237
0.005607
-0.051766
-0.050852
-0.005277
-0.052362
-0.010958
0.029499
0.006596
0.002442
-0.013900
0.007097
-0.020129
-0.015624
-0.038390
-0.007952
0.026056
0.003063
0.010075
0.026692
-0.048001
-0.027465
-0.049977
0.026087
0.008362
-0.049024
0.010344
-0.015627
0.008428
-0.020548
0.000303
0.007213
0.016374
0.018213
-0.033660
-0.032048
0.025981
-0.051946
0.000595
-0.027647
-0.038989
-0.039999
0.004622
0.008137
0.006227
0.001089
-0.050959
-0.049090
-0.040086
-0.012107
0.006842
-0.021091
-0.040634
-0.024927
0.011578
0.020373
-0.003559
-0.021950
-0.019114
-0.043866
-0.041626
-0.015214
-0.037403
-0.041485
-0.009622
-0.043359
-0.015869
-0.000798
-0.001787
0.026980
0.015747
-0.036623
-0.035247
0.028933
0.001301
-0.047069
-0.033864
0.006390
-0.047750
0.017559
-0.038027
-0.037431
0.013763
-0.010511
-0.034234
-0.017170
-0.002776
-0.039292
-0.020560
-0.050826
-0.040704
-0.033836
0.028420
0.028796
-0.005206
-0.034275
-0.030476
-0.007387
-0.040986
-0.026040
0.010821
0.009307
-0.044708
-0.020571
0.002076
0.003455
0.025683
-0.044294
-0.042001
0.001347
-0.043223
-0.000353
0.028512
0.000068
-0.015265
0.025142
0.024123
-0.000666
-0.049938
0.021093
-0.015000
0.025835
-0.046665
0.009238
-0.008881
-0.013471
-0.015864
-0.033825
0.009113
-0.019153
-0.051376
0.005480
0.026427
0.024785
-0.047375
-0.011218
0.017611
0.006197
-0.043049
0.007337
-0.000515
0.025882
0.008749
0.026107
0.013405
-0.047921
-0.003798
-0.038193
0.010067
0.008969
-0.034343
-0.032870
-0.000616
-0.033331
0.007361
0.027874
-0.035838
0.027924
-0.019223
-0.003669
-0.038952
-0.010297
-0.040693
-0.032202
-0.040293
-0.050401
0.025626
-0.048533
-0.020898
-0.042478
-0.032952
0.001310
0.006509
-0.037531
-0.034523
-0.021837
-0.033383
0.003639
-0.042985
0.014684
-0.017009
-0.038530
0.025169
0.027902
-0.050116
-0.015510
0.005795
-0.026439
-0.049378
0.018299
-0.026417
-0.041771
0.012203
0.028300
-0.035749
-0.034135
-0.009058
-0.005523
0.018052
-0.001271
0.022913
-0.037483
0.016839
0.000321
0.002783
-0.023533
-0.007675
0.000837
-0.042679
-0.041056
-0.028920
0.001664
-0.040397
-0.046747
-0.006378
0.009935
-0.016569
0.023129
-0.039330
-0.038395
-0.002405
-0.040057
-0.043720
-0.042959
-0.010875
-0.048583
-0.039298
0.021682
0.015828
-0.036297
0.029030
-0.002754
0.007121
-0.020114
-0.017520
-0.006056
0.005244
-0.012343
0.002266
0.024177
0.000849
0.024759
-0.013492
0.025951
0.025958
0.008993
-0.022465
0.026866
-0.000310
-0.037166
-0.003485
0.011800
-0.049844
-0.046558
-0.040901
0.027559
0.007523
-0.042653
-0.015674
-0.046143
-0.041128
-0.013465
0.017788
0.009552
-0.047299
0.009582
-0.050739
0.025519
0.026326
-0.023441
-0.020137
0.007361
0.008276
0.015070
-0.039427
-0.031990
0.021098
-0.001044
-0.035735
0.023194
0.027401
-0.049567
-0.028714
-0.036508
-0.036942
-0.037916
-0.039886
0.010592
0.015971
-0.041384
-0.009156
-0.025547
-0.041215
-0.011156
0.012234
-0.020159
-0.039342
0.004600
0.009694
-0.036701
-0.006658
0.000359
0.002790
-0.042093
-0.042109
0.001002
-0.037997
0.026931
0.014468
-0.001784
-0.013957
0.025786
0.017560
-0.023205
0.026272
0.013816
0.027531
0.028288
0.006239
-0.049541
-0.030300
0.016196
-0.032881
-0.039574
-0.004819
-0.033892
-0.034740
0.026408
-0.035557
-0.042170
-0.032333
0.000015
-0.021597
-0.033022
0.001655
-0.019024
-0.046613
-0.041080
-0.033486
0.028399
-0.037585
0.009883
-0.033621
-0.037387
0.009472
0.008118
-0.027406
-0.032852
-0.002848
-0.026041
-0.017458
-0.006737
0.002128
-0.008492
0.004395
0.003470
0.021274
-0.041801
0.019113
-0.046040
-0.045404
-0.014359
-0.012428
-0.018467
-0.014181
-0.004197
-0.021646
-0.001071
0.025276
0.024205
0.004413
-0.049291
0.024839
-0.014731
-0.037952
0.007838
-0.040232
-0.023020
0.025742
0.008553
0.006872
-0.020664
-0.050147
0.007960
-0.047875
0.027989
0.025985
-0.000885
0.007302
-0.045916
-0.045069
0.017632
0.026595
-0.021333
-0.040734
-0.010888
-0.025377
-0.020931
0.009006
0.008087
-0.031201
-0.040559
-0.032350
-0.028395
0.021630
0.007058
0.027477
-0.049005
0.027095
-0.020788
0.005177
-0.036066
-0.002975
0.027253
0.010076
-0.039387
-0.023408
-0.033574
-0.033352
-0.033932
-0.042710
-0.036719
-0.022933
0.001193
-0.000029
0.002201
-0.010022
-0.045019
-0.038354
0.006979
0.011078
-0.022259
-0.039883
0.026563
-0.005392
-0.031739
-0.035081
0.025556
-0.048792
0.015715
0.022304
-0.027092
-0.031880
-0.035027
-0.022868
-0.007887
-0.017197
-0.031369
0.018696
0.014815
-0.000520
0.003463
-0.041269
0.008859
0.025007
0.016422
-0.041021
-0.036907
0.028000
0.000684
-0.026179
-0.038553
0.023489
0.013467
0.008693
-0.014256
-0.003658
0.006279
-0.009331
-0.039184
-0.030332
0.014510
-0.035559
-0.014487
-0.048537
-0.011782
-0.039278
-0.001625
-0.043754
-0.007797
-0.019718
0.009346
-0.011491
-0.001866
-0.023782
-0.047304
-0.044981
-0.019090
0.027885
-0.040282
-0.023853
0.006042
-0.048086
-0.013982
0.008367
-0.003600
0.026305
-0.024553
-0.011930
-0.046203
0.006200
0.028807
0.019090
0.015301
0.025773
0.012882
0.008347
0.003590
0.026049
-0.005839
-0.035111
0.007143
-0.038357
-0.020335
-0.040578
-0.039090
0.027097
-0.000823
0.008271
-0.017108
0.014576
0.008645
0.008938
-0.009731
-0.035616
-0.035283
0.021566
0.015761
0.019687
-0.047846
-0.000682
-0.035875
0.005716
0.027480
-0.021864
0.006294
0.026667
-0.003555
-0.009096
-0.038303
-0.038740
0.013167
0.026801
0.026976
-0.040035
-0.030467
0.009845
-0.029645
-0.046803
-0.037690
-0.040337
0.007506
0.000798
-0.036744
-0.012342
0.027436
-0.033878
0.012695
-0.023733
-0.030564
0.025132
-0.024970
0.027383
0.013829
-0.032774
-0.031810
-0.048198
0.005290
-0.023927
-0.031918
-0.043751
-0.030834
0.026716
-0.047995
0.003034
-0.034103
-0.035951
0.001612
0.006145
-0.001354
0.009212
0.004403
0.009986
0.028344
-0.021142
-0.040459
0.017285
0.022568
-0.036008
-0.034209
-0.004686
-0.027055
0.008332
0.000397
-0.032275
0.014127
-0.034670
-0.038381
-0.039094
-0.036958
-0.017103
-0.008217
0.014473
-0.032848
-0.011192
-0.002325
-0.025125
-0.015275
0.005284
0.007743
0.009765
-0.013137
0.006427
0.011927
0.024483
-0.021867
-0.002441
-0.002223
-0.016559
-0.011829
-0.012610
-0.044714
0.025917
0.025952
-0.024892
-0.018591
-0.008529
-0.021502
0.008656
-0.044933
0.000656
-0.022804
-0.024073
0.026331
-0.041711
-0.024850
-0.006564
-0.047618
0.027508
0.007492
0.008572
0.025564
-0.037179
-0.033089
0.013203
-0.045672
-0.035799
-0.044542
0.012536
-0.046082
0.014980
0.015840
0.008486
-0.025718
0.013721
-0.018289
-0.029756
0.008789
-0.034504
-0.034511
-0.042859
0.016818
-0.032004
0.026683
-0.001570
-0.034481
0.026608
-0.029330
0.026311
-0.034918
-0.036391
-0.037283
-0.034224
0.026924
-0.008296
0.024692
0.000911
-0.019793
0.025643
0.002156
-0.037939
-0.040903
0.005626
-0.034959
-0.042692
0.014278
-0.002190
-0.005356
0.007255
0.011547
0.009558
-0.024893
-0.043903
0.010001
-0.029408
0.003809
0.003672
-0.024504
0.026000
0.027996
-0.035633
-0.045368
-0.005636
-0.039411
-0.030041
-0.004818
0.021275
-0.006732
-0.034186
-0.039067
0.019016
0.013516
-0.027672
0.006469
0.007768
-0.033290
-0.030629
-0.026102
0.026971
-0.032904
0.014269
-0.002883
-0.038789
-0.037516
0.013422
-0.034221
-0.015580
-0.009876
0.015058
0.004962
-0.021960
-0.044595
-0.045869
-0.037496
0.007044
-0.012870
-0.033697
-0.033029
-0.013249
0.012362
-0.010893
-0.000109
-0.012832
-0.035958
-0.016188
0.006078
0.023815
0.008425
-0.001372
0.013627
-0.006426
0.016683
-0.022855
-0.025975
0.009119
0.014566
-0.020071
-0.006742
0.026308
-0.022139
-0.015553
-0.025770
-0.004768
0.027960
0.027896
0.009473
-0.024770
0.026888
0.025608
-0.044122
0.025203
-0.025312
-0.030748
-0.043969
-0.033230
0.005102
0.006984
0.014220
0.003161
0.025979
0.011307
0.028025
0.004498
-0.039691
-0.010155
-0.045177
-0.007283
-0.047202
-0.022522
-0.030571
-0.047475
-0.047540
0.003186
0.014215
0.011317
-0.025548
0.011719
-0.007421
-0.029366
0.009146
-0.034685
0.018890
0.019193
0.014668
-0.027791
-0.033396
0.005162
0.024232
0.026111
-0.032528
0.026255
-0.009179
-0.035125
-0.029448
-0.015585
0.005932
-0.035146
0.002747
0.027070
-0.021233
-0.037733
-0.003507
-0.008762
0.013645
-0.039232
-0.032397
-0.031370
-0.040530
-0.013708
0.008030
0.008850
0.004204
-0.030554
0.027398
0.009853
-0.025569
-0.023162
-0.026335
-0.036968
0.025965
-0.028958
-0.042923
0.026581
-0.037622
-0.002390
-0.006308
0.010434
-0.038239
-0.037150
-0.035383
-0.033817
-0.021476
0.001439
0.000288
-0.046643
-0.034177
0.013128
0.013185
-0.024045
-0.031865
-0.033741
0.026317
-0.007342
0.010669
0.026931
-0.033299
0.007350
0.014466
0.014520
0.025880
0.007983
0.000401
0.012154
-0.032568
0.004431
-0.004491
-0.013950
-0.015840
0.026487
-0.022513
-0.036012
-0.030843
-0.000901
-0.014742
-0.011288
0.015487
-0.016447
0.007123
0.023204
0.006386
-0.005566
0.008226
-0.023657
-0.026497
0.012797
-0.020318
-0.022211
-0.043399
-0.043496
-0.032593
-0.009444
0.000049
-0.018627
0.014234
-0.010369
-0.026030
0.027352
-0.024401
0.026962
0.024939
0.009415
0.006448
-0.026596
-0.025798
-0.046415
-0.036996
-0.031603
0.010697
-0.047113
0.025699
0.026080
0.025356
0.025794
-0.041804
0.005415
-0.043926
0.004497
0.014918
-0.045141
-0.046435
0.025919
0.010105
-0.021471
0.000064
-0.031152
-0.040592
0.013132
0.016326
-0.031189
0.026190
-0.032048
0.023763
-0.003962
0.003706
-0.033219
-0.035872
0.025537
0.025373
-0.022619
0.026802
0.025433
-0.036385
-0.036329
-0.029522
-0.032496
0.024843
0.006455
-0.001913
0.025605
0.000400
0.001900
-0.046101
0.008374
0.009831
-0.037177
-0.008012
-0.007412
-0.013554
0.012083
0.009993
0.008370
0.011482
-0.041323
-0.033245
-0.037192
0.016417
-0.023528
-0.026976
-0.034126
0.026344
-0.028526
0.026573
-0.042444
-0.030379
0.006312
0.020902
0.020787
0.005808
0.011751
0.025632
-0.034240
0.026116
-0.032917
0.022349
-0.000255
0.025037
0.013009
0.025528
-0.034427
-0.006013
-0.029441
0.014083
-0.014367
-0.034065
-0.011896
-0.009966
0.003834
-0.018352
-0.045661
-0.016579
-0.016088
-0.016667
-0.005539
0.015561
0.012623
0.026614
-0.028934
0.009519
0.007850
0.005460
0.026695
-0.010870
0.009591
-0.019817
-0.005316
0.004851
-0.024966
0.009667
-0.032634
0.004215
-0.022919
-0.044462
0.008635
0.025863
0.003639
0.009028
-0.023770
-0.007464
0.024534
-0.035964
-0.043322
-0.019337
0.012281
-0.031497
-0.015068
-0.036496
0.026323
-0.025624
-0.010478
-0.046423