# vtk DataFile Version 2.0
Test
ASCII
DATASET POLYDATA
POINTS 4677 float
0.000000 0.000000 0.000000
0.080000 0.000000 0.000000
0.080000 0.160000 0.000000
0.000000 0.160000 0.000000
0.036000 0.073072 0.000000
0.044000 0.086928 0.000000
0.024500 0.065566 0.000000
0.055500 0.093560 0.000000
0.001000 0.050000 0.000000
0.079000 0.110000 0.000000
0.002963 0.000000 0.000000
0.005926 0.000000 0.000000
0.008889 0.000000 0.000000
0.011852 0.000000 0.000000
0.014815 0.000000 0.000000
0.017778 0.000000 0.000000
0.020741 0.000000 0.000000
0.023704 0.000000 0.000000
0.026667 0.000000 0.000000
0.029630 0.000000 0.000000
0.032593 0.000000 0.000000
0.035556 0.000000 0.000000
0.038519 0.000000 0.000000
0.041481 0.000000 0.000000
0.044444 0.000000 0.000000
0.047407 0.000000 0.000000
0.050370 0.000000 0.000000
0.053333 0.000000 0.000000
0.056296 0.000000 0.000000
0.059259 0.000000 0.000000
0.062222 0.000000 0.000000
0.065185 0.000000 0.000000
0.068148 0.000000 0.000000
0.071111 0.000000 0.000000
0.074074 0.000000 0.000000
0.077037 0.000000 0.000000
0.080000 0.002963 0.000000
0.080000 0.005926 0.000000
0.080000 0.008889 0.000000
0.080000 0.011852 0.000000
0.080000 0.014815 0.000000
0.080000 0.017778 0.000000
0.080000 0.020741 0.000000
0.080000 0.023704 0.000000
0.080000 0.026667 0.000000
0.080000 0.029630 0.000000
0.080000 0.032593 0.000000
0.080000 0.035556 0.000000
0.080000 0.038519 0.000000
0.080000 0.041481 0.000000
0.080000 0.044444 0.000000
0.080000 0.047407 0.000000
0.080000 0.050370 0.000000
0.080000 0.053333 0.000000
0.080000 0.056296 0.000000
0.080000 0.059259 0.000000
0.080000 0.062222 0.000000
0.080000 0.065185 0.000000
0.080000 0.068148 0.000000
0.080000 0.071111 0.000000
0.080000 0.074074 0.000000
0.080000 0.077037 0.000000
0.080000 0.080000 0.000000
0.080000 0.082963 0.000000
0.080000 0.085926 0.000000
0.080000 0.088889 0.000000
0.080000 0.091852 0.000000
0.080000 0.094815 0.000000
0.080000 0.097778 0.000000
0.080000 0.100741 0.000000
0.080000 0.103704 0.000000
0.080000 0.106667 0.000000
0.080000 0.109630 0.000000
0.080000 0.112593 0.000000
0.080000 0.115556 0.000000
0.080000 0.118519 0.000000
0.080000 0.121481 0.000000
0.080000 0.124444 0.000000
0.080000 0.127407 0.000000
0.080000 0.130370 0.000000
0.080000 0.133333 0.000000
0.080000 0.136296 0.000000
0.080000 0.139259 0.000000
0.080000 0.142222 0.000000
0.080000 0.145185 0.000000
0.080000 0.148148 0.000000
0.080000 0.151111 0.000000
0.080000 0.154074 0.000000
0.080000 0.157037 0.000000
0.077037 0.160000 0.000000
0.074074 0.160000 0.000000
0.071111 0.160000 0.000000
0.068148 0.160000 0.000000
0.065185 0.160000 0.000000
0.062222 0.160000 0.000000
0.059259 0.160000 0.000000
0.056296 0.160000 0.000000
0.053333 0.160000 0.000000
0.050370 0.160000 0.000000
0.047407 0.160000 0.000000
0.044444 0.160000 0.000000
0.041481 0.160000 0.000000
0.038519 0.160000 0.000000
0.035556 0.160000 0.000000
0.032593 0.160000 0.000000
0.029630 0.160000 0.000000
0.026667 0.160000 0.000000
0.023704 0.160000 0.000000
0.020741 0.160000 0.000000
0.017778 0.160000 0.000000
0.014815 0.160000 0.000000
0.011852 0.160000 0.000000
0.008889 0.160000 0.000000
0.005926 0.160000 0.000000
0.002963 0.160000 0.000000
0.000000 0.157037 0.000000
0.000000 0.154074 0.000000
0.000000 0.151111 0.000000
0.000000 0.148148 0.000000
0.000000 0.145185 0.000000
0.000000 0.142222 0.000000
0.000000 0.139259 0.000000
0.000000 0.136296 0.000000
0.000000 0.133333 0.000000
0.000000 0.130370 0.000000
0.000000 0.127407 0.000000
0.000000 0.124444 0.000000
0.000000 0.121481 0.000000
0.000000 0.118519 0.000000
0.000000 0.115556 0.000000
0.000000 0.112593 0.000000
0.000000 0.109630 0.000000
0.000000 0.106667 0.000000
0.000000 0.103704 0.000000
0.000000 0.100741 0.000000
0.000000 0.097778 0.000000
0.000000 0.094815 0.000000
0.000000 0.091852 0.000000
0.000000 0.088889 0.000000
0.000000 0.085926 0.000000
0.000000 0.082963 0.000000
0.000000 0.080000 0.000000
0.000000 0.077037 0.000000
0.000000 0.074074 0.000000
0.000000 0.071111 0.000000
0.000000 0.068148 0.000000
0.000000 0.065185 0.000000
0.000000 0.062222 0.000000
0.000000 0.059259 0.000000
0.000000 0.056296 0.000000
0.000000 0.053333 0.000000
0.000000 0.050370 0.000000
0.000000 0.047407 0.000000
0.000000 0.044444 0.000000
0.000000 0.041481 0.000000
0.000000 0.038519 0.000000
0.000000 0.035556 0.000000
0.000000 0.032593 0.000000
0.000000 0.029630 0.000000
0.000000 0.026667 0.000000
0.000000 0.023704 0.000000
0.000000 0.020741 0.000000
0.000000 0.017778 0.000000
0.000000 0.014815 0.000000
0.000000 0.011852 0.000000
0.000000 0.008889 0.000000
0.000000 0.005926 0.000000
0.000000 0.002963 0.000000
0.035500 0.072746 0.000000
0.035000 0.072419 0.000000
0.034500 0.072093 0.000000
0.034000 0.071767 0.000000
0.033500 0.071440 0.000000
0.033000 0.071114 0.000000
0.032500 0.070788 0.000000
0.032000 0.070461 0.000000
0.031500 0.070135 0.000000
0.031000 0.069809 0.000000
0.030500 0.069482 0.000000
0.030000 0.069156 0.000000
0.029500 0.068829 0.000000
0.029000 0.068503 0.000000
0.028500 0.068177 0.000000
0.028000 0.067850 0.000000
0.027500 0.067524 0.000000
0.027000 0.067198 0.000000
0.026500 0.066871 0.000000
0.026000 0.066545 0.000000
0.025500 0.066219 0.000000
0.025000 0.065892 0.000000
0.044500 0.087216 0.000000
0.045000 0.087505 0.000000
0.045500 0.087793 0.000000
0.046000 0.088081 0.000000
0.046500 0.088370 0.000000
0.047000 0.088658 0.000000
0.047500 0.088946 0.000000
0.048000 0.089235 0.000000
0.048500 0.089523 0.000000
0.049000 0.089811 0.000000
0.049500 0.090100 0.000000
0.050000 0.090388 0.000000
0.050500 0.090677 0.000000
0.051000 0.090965 0.000000
0.051500 0.091253 0.000000
0.052000 0.091542 0.000000
0.052500 0.091830 0.000000
0.053000 0.092118 0.000000
0.053500 0.092407 0.000000
0.054000 0.092695 0.000000
0.054500 0.092983 0.000000
0.055000 0.093272 0.000000
0.043704 0.086415 0.000000
0.043407 0.085902 0.000000
0.043111 0.085388 0.000000
0.042815 0.084875 0.000000
0.042519 0.084362 0.000000
0.042222 0.083849 0.000000
0.041926 0.083336 0.000000
0.041630 0.082823 0.000000
0.041333 0.082309 0.000000
0.041037 0.081796 0.000000
0.040741 0.081283 0.000000
0.040444 0.080770 0.000000
0.040148 0.080257 0.000000
0.039852 0.079743 0.000000
0.039556 0.079230 0.000000
0.039259 0.078717 0.000000
0.038963 0.078204 0.000000
0.038667 0.077691 0.000000
0.038370 0.077177 0.000000
0.038074 0.076664 0.000000
0.037778 0.076151 0.000000
0.037481 0.075638 0.000000
0.037185 0.075125 0.000000
0.036889 0.074612 0.000000
0.036593 0.074098 0.000000
0.036296 0.073585 0.000000
0.024000 0.065235 0.000000
0.023500 0.064904 0.000000
0.023000 0.064572 0.000000
0.022500 0.064241 0.000000
0.022000 0.063910 0.000000
0.021500 0.063579 0.000000
0.021000 0.063248 0.000000
0.020500 0.062916 0.000000
0.020000 0.062585 0.000000
0.019500 0.062254 0.000000
0.019000 0.061923 0.000000
0.018500 0.061592 0.000000
0.018000 0.061261 0.000000
0.017500 0.060929 0.000000
0.017000 0.060598 0.000000
0.016500 0.060267 0.000000
0.016000 0.059936 0.000000
0.015500 0.059605 0.000000
0.015000 0.059273 0.000000
0.014500 0.058942 0.000000
0.014000 0.058611 0.000000
0.013500 0.058280 0.000000
0.013000 0.057949 0.000000
0.012500 0.057617 0.000000
0.012000 0.057286 0.000000
0.011500 0.056955 0.000000
0.011000 0.056624 0.000000
0.010500 0.056293 0.000000
0.010000 0.055961 0.000000
0.009500 0.055630 0.000000
0.009000 0.055299 0.000000
0.008500 0.054968 0.000000
0.008000 0.054637 0.000000
0.007500 0.054305 0.000000
0.007000 0.053974 0.000000
0.006500 0.053643 0.000000
0.006000 0.053312 0.000000
0.005500 0.052981 0.000000
0.005000 0.052650 0.000000
0.004500 0.052318 0.000000
0.004000 0.051987 0.000000
0.003500 0.051656 0.000000
0.003000 0.051325 0.000000
0.002500 0.050994 0.000000
0.002000 0.050662 0.000000
0.001500 0.050331 0.000000
0.055990 0.093902 0.000000
0.056479 0.094245 0.000000
0.056969 0.094587 0.000000
0.057458 0.094930 0.000000
0.057948 0.095272 0.000000
0.058437 0.095615 0.000000
0.058927 0.095957 0.000000
0.059417 0.096300 0.000000
0.059906 0.096642 0.000000
0.060396 0.096985 0.000000
0.060885 0.097327 0.000000
0.061375 0.097670 0.000000
0.061865 0.098012 0.000000
0.062354 0.098355 0.000000
0.062844 0.098697 0.000000
0.063333 0.099040 0.000000
0.063823 0.099382 0.000000
0.064312 0.099725 0.000000
0.064802 0.100067 0.000000
0.065292 0.100410 0.000000
0.065781 0.100752 0.000000
0.066271 0.101095 0.000000
0.066760 0.101437 0.000000
0.067250 0.101780 0.000000
0.067740 0.102122 0.000000
0.068229 0.102465 0.000000
0.068719 0.102807 0.000000
0.069208 0.103150 0.000000
0.069698 0.103492 0.000000
0.070187 0.103835 0.000000
0.070677 0.104177 0.000000
0.071167 0.104520 0.000000
0.071656 0.104862 0.000000
0.072146 0.105205 0.000000
0.072635 0.105547 0.000000
0.073125 0.105890 0.000000
0.073615 0.106232 0.000000
0.074104 0.106575 0.000000
0.074594 0.106917 0.000000
0.075083 0.107260 0.000000
0.075573 0.107602 0.000000
0.076062 0.107945 0.000000
0.076552 0.108287 0.000000
0.077042 0.108630 0.000000
0.077531 0.108972 0.000000
0.078021 0.109315 0.000000
0.078510 0.109658 0.000000
0.043942 0.087469 0.000000
0.035556 0.157037 0.000000
0.044420 0.002920 0.000000
0.077037 0.038519 0.000000
0.002963 0.121481 0.000000
0.077037 0.059259 0.000000
0.002963 0.109630 0.000000
0.002923 0.098139 0.000000
0.077153 0.126913 0.000000
0.002808 0.032596 0.000000
0.077140 0.071061 0.000000
0.002963 0.085926 0.000000
0.002963 0.136296 0.000000
0.077041 0.023701 0.000000
0.056296 0.157037 0.000000
0.032593 0.002963 0.000000
0.077037 0.080000 0.000000
0.002813 0.077135 0.000000
0.077037 0.142222 0.000000
0.017778 0.157037 0.000000
0.062222 0.002963 0.000000
0.076992 0.088722 0.000000
0.002945 0.020743 0.000000
0.017777 0.002962 0.000000
0.002801 0.068434 0.000000
0.002959 0.011851 0.000000
0.065186 0.157038 0.000000
0.002963 0.148148 0.000000
0.077037 0.011852 0.000000
0.076887 0.094740 0.000000
0.077092 0.115875 0.000000
0.002677 0.044265 0.000000
0.077038 0.148148 0.000000
0.002985 0.062165 0.000000
0.077037 0.047407 0.000000
0.011852 0.002963 0.000000
[...]
POINT_DATA 4677
SCALARS UX float 1
LOOKUP_TABLE default
-0.000000
0.000001
0.020228
-0.020469
-0.011190
-0.013917
-0.039945
0.024373
-0.046948
0.043795
-0.000000
-0.000000
-0.000000
-0.000000
-0.000000
-0.000000
-0.000000
-0.000000
-0.000000
-0.000000
-0.000000
-0.000000
-0.000000
0.000000
0.000000
0.000000
0.000000
0.000000
0.000000
0.000000
0.000000
0.000000
0.000000
0.000000
0.000000
-0.000000
0.002950
0.004552
0.005743
0.006786
0.007746
0.008670
0.009559
0.010409
0.011238
0.012062
0.012917
0.013714
0.014525
0.015419
0.016208
0.017790
0.018585
0.019134
0.019514
0.019882
0.021146
0.022370
0.022912
0.025088
0.026729
0.029198
0.030702
0.031881
0.033356
0.034249
0.034687
0.036113
0.037845
0.039228
0.040716
0.042306
0.043897
0.046423
0.048648
0.050990
0.053236
0.052755
0.045440
0.039114
0.036757
0.033031
0.031103
0.027511
0.021590
0.019522
0.019297
0.019968
0.019634
0.018825
0.017494
0.016788
0.015050
0.013942
0.011931
0.010049
0.008538
0.007112
0.005606
0.003933
0.002360
0.001474
0.000306
-0.001069
-0.003004
-0.004659
-0.006180
-0.007210
-0.009337
-0.011216
-0.012642
-0.013733
-0.015513
-0.017519
-0.018998
-0.021041
-0.021558
-0.022558
-0.023339
-0.024371
-0.025410
-0.026746
-0.027749
-0.029686
-0.032076
-0.035469
-0.037845
-0.039866
-0.041167
-0.042240
-0.042894
-0.043741
-0.043858
-0.043790
-0.043865
-0.044158
-0.044860
-0.045969
-0.048654
-0.051382
-0.053441
-0.053831
-0.053346
-0.053975
-0.054521
-0.054256
-0.053867
-0.053134
-0.052157
-0.050865
-0.049386
-0.047606
-0.045274
-0.042334
-0.040207
-0.038027
-0.035127
-0.031164
-0.029842
-0.026150
-0.022336
-0.018701
-0.014696
-0.013336
-0.011866
-0.010197
-0.009331
-0.007560
-0.011232
-0.013363
-0.013865
-0.017126
-0.020290
-0.016975
-0.011376
-0.011439
-0.019272
-0.022878
-0.027156
-0.026392
-0.025833
-0.025859
-0.028258
-0.030912
-0.034834
-0.042429
-0.033813
-0.035113
-0.037255
-0.038876
-0.012643
-0.012560
-0.011607
-0.011343
-0.010557
-0.007909
-0.005694
-0.004178
-0.002240
-0.001559
0.000509
0.003554
0.006429
0.009135
0.005461
0.010814
0.013075
0.014015
0.018774
0.019541
0.020728
0.023088
-0.014600
-0.013487
-0.013014
-0.012412
-0.011610
-0.011186
-0.011085
-0.011170
-0.011395
-0.011583
-0.011914
-0.012265
-0.011622
-0.012577
-0.011929
-0.013279
-0.011654
-0.012020
-0.011391
-0.012095
-0.011485
-0.011911
-0.011911
-0.011850
-0.011780
-0.011673
-0.040792
-0.041429
-0.041840
-0.041915
-0.042324
-0.042538
-0.042702
-0.042852
-0.043187
-0.043269
-0.043428
-0.043576
-0.043718
-0.043849
-0.043974
-0.044085
-0.044168
-0.044226
-0.044252
-0.044279
-0.044306
-0.044351
-0.044418
-0.044508
-0.044614
-0.044742
-0.044883
-0.045040
-0.045241
-0.045425
-0.045624
-0.045800
-0.045966
-0.046132
-0.046268
-0.046400
-0.046517
-0.046589
-0.046694
-0.046755
-0.046845
-0.046904
-0.046949
-0.046990
-0.047035
-0.047025
0.025484
0.026325
0.027088
0.027666
0.028032
0.028504
0.028934
0.029339
0.029688
0.030103
0.030434
0.030782
0.031193
0.031526
0.031813
0.032126
0.032410
0.032749
0.033085
0.033459
0.033723
0.033987
0.034260
0.034543
0.034837
0.035140
0.035453
0.035770
0.036076
0.036376
0.036690
0.037084
0.037474
0.037870
0.038277
0.038658
0.039069
0.039458
0.039869
0.040265
0.040630
0.041111
0.041564
0.042015
0.042346
0.042862
0.043338
-0.015048
-0.002164
0.000056
0.013591
-0.037643
0.017814
-0.042159
-0.042225
0.042011
-0.027894
0.023108
-0.048268
-0.025882
0.009188
0.007891
-0.000166
0.028548
-0.051544
0.023380
-0.012105
0.000368
0.032278
-0.014444
-0.000469
-0.052564
-0.010207
0.012910
-0.021970
0.005503
0.034895
0.047338
-0.040844
0.016974
-0.051291
0.016621
-0.001180
0.015695
-0.018390
0.000885
-0.050335
0.037803
0.029501
0.000618
0.003102
-0.000268
-0.030609
0.010922
-0.008412
0.000245
0.018021
0.048796
-0.037791
-0.013002
0.050306
-0.033651
-0.050077
-0.052161
0.030093
-0.043268
-0.050891
0.020081
0.024924
0.017710
-0.042269
0.039299
-0.040253
-0.025411
-0.021058
0.014402
-0.005578
0.026361
0.000152
0.000012
-0.033172
0.011805
-0.000051
-0.013062
-0.000383
0.009190
0.004898
-0.023367
0.007418
-0.008945
-0.001709
-0.006795
-0.014584
0.000564
0.017593
-0.002660
-0.003161
-0.020379
0.002970
-0.019628
0.001265
0.043311
-0.016213
-0.046173
-0.048191
0.041685
-0.017117
-0.000028
0.012610
0.021629
-0.021440
-0.047834
0.047372
0.004085
-0.028406
0.019364
-0.000646
-0.036129
-0.011187
-0.049971
0.027019
0.037884
0.006942
-0.008344
-0.002961
-0.005376
0.015386
-0.019143
0.001867
0.045478
-0.043969
0.036432
-0.052159
0.033391
-0.052540
-0.047528
0.031154
0.048114
-0.032161
0.042899
-0.052172
0.026843
-0.045189
-0.042708
0.020922
0.018914
-0.042264
-0.042403
0.017954
-0.041135
0.017332
0.032888
0.015320
-0.039080
-0.000582
-0.035638
0.012683
-0.003922
0.000105
0.001730
-0.017948
-0.007234
0.000195
-0.000105
0.025320
-0.028076
0.010057
0.006172
-0.000237
-0.010303
0.000300
-0.011455
-0.000459
0.010932
-0.024486
0.008313
-0.000761
-0.022717
0.006492
0.013873
0.018550
-0.013368
0.000448
0.016685
0.017898
-0.016563
0.000711
-0.021468
0.004370
-0.046458
0.043773
0.042669
-0.048645
-0.046470
-0.014505
-0.017445
0.040719
-0.049227
0.046945
-0.034014
-0.012024
-0.011204
-0.010759
0.017233
-0.041075
-0.041017
0.043615
-0.034732
-0.004689
-0.011040
-0.050550
0.000383
0.008845
0.032147
-0.022846
-0.014308
0.035233
0.005240
-0.021005
0.000939
0.043120
-0.045592
0.039613
0.016469
-0.039961
0.016086
-0.037456
0.000983
-0.026026
0.010144
-0.001138
-0.002180
-0.019835
0.013239
0.015708
-0.045458
0.044008
-0.041513
0.044784
0.026037
-0.050676
0.047373
-0.049549
-0.048289
0.030661
0.028222
-0.040558
0.039930
-0.026684
-0.030132
-0.038877
0.019076
0.020025
-0.042269
0.011726
-0.000261
-0.000137
-0.018080
0.014487
0.013564
0.000193
0.000090
-0.044960
0.026838
0.002480
-0.008259
0.005344
-0.033303
-0.030864
0.015737
0.015992
0.021978
-0.001616
-0.014674
-0.000530
0.008449
-0.009535
-0.000880
0.007047
0.000612
-0.012879
-0.007018
-0.004090
0.015808
-0.017444
0.001397
0.003083
-0.023426
-0.018271
-0.015722
0.042323
-0.046043
-0.047439
0.044504
-0.046236
0.042126
-0.017046
-0.012736
-0.011432
-0.012258
-0.017332
-0.000227
0.012335
0.018174
-0.039818
0.000172
-0.031258
-0.019070
0.018190
0.026445
-0.000815
0.004731
-0.012194
-0.009494
-0.003204
-0.044948
0.042654
0.033110
-0.008662
-0.050240
0.010926
0.000081
0.012271
-0.001425
0.007604
0.013339
-0.025869
-0.018249
0.002229
-0.010118
-0.050789
0.033187
-0.023994
-0.050301
-0.040858
-0.049826
-0.041580
-0.040637
0.009851
0.018228
0.045313
0.016584
-0.040808
0.016341
0.023263
-0.038878
0.033342
0.031110
-0.043148
-0.000481
-0.000375
-0.006313
-0.024127
0.015408
0.000285
-0.009580
-0.013613
0.001716
0.010583
-0.035684
0.000491
-0.012917
0.016805
0.007939
-0.007968
-0.005702
0.006162
0.014108
0.011845
-0.001677
-0.021913
0.000754
-0.003150
-0.015639
-0.020273
0.014426
0.004225
0.001144
-0.031872
0.044546
-0.037704
-0.018410
-0.047806
-0.018549
-0.014395
0.040752
-0.043178
0.043934
-0.015762
-0.010521
0.041656
-0.047402
-0.044496
0.041488
0.043684
-0.010950
-0.008694
-0.010451
-0.046340
-0.039987
-0.018567
-0.006246
0.015500
-0.038757
-0.038072
-0.019697
0.039511
-0.000905
-0.048446
-0.035720
-0.009109
0.030890
-0.021151
0.000572
0.007599
-0.011529
-0.049477
-0.013796
-0.039067
0.001160
0.004975
0.014823
-0.000370
0.043266
-0.002464
-0.036953
-0.033592
0.013162
-0.008383
-0.002523
0.003155
-0.016595
0.019037
-0.042029
0.043281
0.021707
-0.049405
-0.039010
-0.044691
-0.039196
-0.000595
0.016295
0.009519
-0.039125
0.013348
-0.001035
-0.000081
-0.027807
0.041529
0.014945
-0.047797
0.029487
0.024416
0.003143
0.014634
0.012750
-0.017080
-0.023687
-0.010627
-0.001187
0.011327
-0.011005
0.005906
-0.001783
0.017191
0.000743
-0.005683
0.009276
0.012632
-0.028725
0.006688
-0.006878
0.013459
-0.004121
0.000249
-0.020569
-0.018905
0.001421
0.001748
-0.031795
-0.016005
-0.008886
-0.008810
-0.045434
-0.046212
0.041974
0.041050
-0.018715
-0.047139
-0.019421
0.039842
-0.050818
-0.013720
0.043735
0.028131
0.025207
0.021767
-0.038856
-0.043739
-0.010534
-0.010995
0.042955
-0.014350
-0.009704
0.011340
0.014855
-0.032040
-0.000145
0.022475
-0.033176
0.011757
0.041134
0.028196
0.003626
-0.024029
-0.010462
-0.001217
-0.040985
0.009434
0.000758
0.006666
0.042277
0.006638
-0.019437
-0.017497
-0.005137
-0.012494
0.008585
0.029627
0.016014
-0.002712
0.001573
-0.009549
-0.005615
0.002426
-0.007722
0.042645
-0.037064
0.015324
-0.009234
-0.015931
-0.000648
-0.038842
0.014043
0.015352
-0.002521
0.036689
-0.039681
-0.009848
-0.038172
0.000087
-0.035509
0.010008
0.001791
-0.047362
0.029806
0.021357
-0.049243
0.019351
0.000403
0.026522
-0.039631
-0.010614
-0.028302
-0.029179
0.009309
-0.007041
-0.004056
0.012096
-0.011947
0.005819
-0.001739
0.010648
0.000933
-0.022148
0.000641
-0.003564
0.010749
-0.007348
0.004094
-0.019753
-0.015287
0.008562
0.040167
-0.046265
-0.017450
-0.049594
-0.042925
-0.014883
-0.007269
-0.017773
-0.016655
-0.019605
-0.019575
-0.037291
-0.009010
-0.013449
-0.009326
-0.036595
-0.048937
-0.046304
-0.046927
0.014715
0.015166
0.041483
0.029388
0.023724
-0.044426
-0.047083
0.039466
-0.008748
0.042045
-0.045837
-0.023975
0.040144
0.040384
-0.010620
-0.018533
-0.001680
-0.037634
-0.035822
0.032693
-0.003177
-0.029264
-0.046878
-0.000159
-0.016176
0.007336
-0.034912
0.041072
-0.001721
0.026753
-0.010263
0.006447
0.001419
-0.042120
-0.048530
-0.013114
0.041244
0.014121
0.020566
0.012991
-0.005017
-0.006465
0.007893
-0.036562
-0.008180
-0.008520
0.000516
-0.003847
0.010044
0.004650
-0.048124
0.001270
-0.020408
0.003165
-0.018284
-0.018720
-0.013083
-0.037415
-0.045766
-0.040748
-0.024581
0.013864
0.013943
-0.034900
-0.028636
0.007937
0.024691
-0.000399
-0.049546
0.015372
-0.033976
0.000292
-0.000960
-0.046820
-0.026455
0.021050
0.008932
0.041284
-0.000380
-0.002169
-0.005870
0.008452
0.016920
0.012133
0.005069
0.000996
-0.022064
0.005455
0.011113
0.010098
-0.018933
0.039320
-0.003775
-0.011835
0.001936
-0.004793
0.039065
-0.016122
-0.045944
0.029986
0.040395
0.042458
-0.014363
-0.007587
-0.043578
-0.045467
0.015196
-0.039990
-0.016230
0.029158
-0.003154
-0.006893
-0.019619
-0.006481
-0.019606
-0.020128
-0.037148
-0.014445
0.040715
-0.006262
-0.008716
0.039582
-0.047647
-0.020224
-0.046194
0.039720
-0.005960
-0.046087
0.026907
-0.014787
-0.006839
-0.019635
0.017626
0.001266
0.011753
0.014159
-0.034014
-0.025019
0.020341
-0.037951
0.000626
-0.000170
-0.009635
-0.022069
0.004550
-0.003419
-0.003654
0.001273
-0.043309
-0.045476
-0.037853
-0.010719
0.006142
-0.017139
-0.031360
0.004144
0.010771
0.017295
-0.002935
0.007375
0.007293
-0.017479
-0.013010
-0.019935
-0.035664
-0.037584
-0.013947
-0.037189
-0.013514
-0.000639
-0.001334
0.039093
0.013263
-0.048734
-0.048118
0.024582
-0.008096
-0.047978
-0.004828
-0.001817
-0.029547
0.013041
-0.048630
-0.006694
0.012462
-0.009470
-0.043357
0.006765
-0.002269
-0.026512
0.008815
-0.044564
-0.048763
-0.036862
0.029293
0.028075
-0.004812
-0.047661
-0.001771
-0.006920
-0.020544
0.002801
0.009609
0.007789
-0.016771
0.009395
0.002505
0.003961
0.040700
-0.014590
-0.019223
0.001612
-0.035216
0.013694
0.030910
0.000086
-0.017337
0.041551
0.040210
-0.012050
-0.045609
0.037455
0.009221
0.040027
-0.046619
-0.003615
-0.014810
-0.018599
-0.020225
-0.046182
-0.005866
-0.020502
-0.041505
-0.004600
0.038644
0.041497
-0.047404
-0.015398
0.014412
0.022058
-0.037684
-0.003472
-0.000419
0.039509
-0.003884
0.038740
-0.006896
-0.045796
0.013041
-0.028667
0.008668
-0.001286
-0.025700
-0.034757
-0.000455
-0.045617
0.005928
0.025046
-0.047485
0.030391
0.004285
-0.002957
-0.020347
-0.009158
-0.036492
-0.004683
-0.047900
-0.042588
0.039706
-0.045337
0.005623
-0.034579
-0.043224
0.001553
-0.001009
-0.008083
-0.033746
0.006697
-0.038239
0.003857
-0.016320
0.011872
-0.021004
-0.047773
0.040601
0.028499
-0.044287
-0.015118
0.005254
-0.020904
-0.034655
0.015136
0.001355
-0.033022
0.011135
0.022617
-0.006425
-0.046578
-0.008109
-0.004935
0.013744
-0.000986
0.018877
-0.026521
0.012056
0.000326
0.003170
0.005949
-0.007156
0.000939
-0.014226
-0.036012
-0.001380
0.002004
-0.011323
-0.047288
-0.005978
0.008767
-0.013817
0.039131
-0.036567
-0.035872
-0.001675
-0.019193
-0.015522
-0.018313
0.010500
-0.031268
-0.024399
0.039377
0.012499
-0.035176
0.031849
0.011787
0.000993
-0.018453
-0.020968
-0.013271
-0.004889
-0.019640
-0.008629
0.040136
-0.009500
0.040985
-0.017336
0.038999
0.038498
-0.001136
-0.020688
0.038465
-0.000199
-0.047719
-0.014660
-0.003592
-0.045006
-0.048937
-0.037566
0.038547
0.001127
-0.035817
-0.016513
-0.046355
-0.049814
-0.012138
0.034149
-0.006263
-0.045731
-0.004479
-0.040852
0.040342
0.038254
-0.019597
-0.021896
0.002283
0.002517
0.011052
-0.034967
-0.033243
0.017933
-0.000762
-0.026316
0.039418
0.031098
-0.042161
-0.002184
-0.047126
-0.009076
-0.018518
-0.012293
0.009386
0.013241
-0.047607
-0.007964
0.002285
-0.034514
-0.009729
0.011017
-0.016467
-0.030429
0.004170
-0.001502
-0.034390
-0.005902
0.000414
0.003066
-0.015184
-0.017150
0.001144
-0.021920
0.037610
0.010304
-0.001246
-0.012177
0.038754
0.015713
0.005352
0.021481
0.011827
0.029469
0.026802
0.005050
-0.043854
-0.002527
0.012563
-0.044499
-0.047450
-0.003964
-0.027002
-0.046990
0.037822
-0.034048
-0.048638
-0.035944
0.000089
0.006122
-0.041070
0.001968
0.005038
-0.045567
-0.018135
-0.045942
0.032704
-0.034627
0.001451
-0.005908
-0.023789
0.007629
0.006202
-0.000911
-0.032895
-0.002302
-0.021659
-0.014896
0.010616
0.002490
0.009146
-0.006111
-0.008722
0.037039
-0.036339
0.034395
-0.046988
-0.046614
-0.017502
-0.019627
0.005013
-0.014218
-0.011956
-0.021494
-0.000818
0.039747
0.039374
-0.006363
-0.044656
0.040161
-0.020830
-0.047037
0.003623
-0.036612
-0.020646
0.039175
-0.000220
0.020183
-0.017295
-0.039361
0.004063
-0.045162
0.038077
0.038046
-0.014478
-0.002698
-0.030645
-0.049550
-0.002760
0.037964
-0.017776
-0.032552
0.007343
-0.020393
-0.018228
0.004997
0.004555
-0.032154
-0.026445
-0.044056
-0.002819
0.037830
0.004298
0.025721
-0.041354
0.028758
0.002960
-0.005696
-0.033441
-0.002327
0.037118
0.003232
-0.031803
-0.022196
-0.045368
-0.006884
-0.032728
-0.047133
-0.028143
-0.017345
0.001373
0.000110
0.002494
-0.008749
-0.047390
-0.035114
0.000919
0.009628
0.003952
-0.034681
0.037324
-0.004509
-0.040725
-0.046560
0.038985
-0.043395
0.011920
0.018366
-0.022582
-0.038119
-0.007199
0.004369
-0.006913
-0.015369
-0.034044
0.032382
0.028199
-0.000328
0.003501
-0.016010
0.006997
0.039309
0.014034
-0.013792
-0.019812
0.031795
0.000759
0.000457
-0.010700
0.038768
0.010178
0.006898
-0.012540
-0.003005
0.004216
0.007519
-0.017375
-0.003629
0.010455
-0.024198
0.006518
-0.044417
-0.020478
-0.035396
-0.001184
-0.049270
-0.017398
-0.014700
0.002672
-0.012665
-0.011267
-0.021552
-0.045162
-0.046205
-0.021801
0.037175
-0.034498
-0.018529
-0.004891
-0.037217
-0.018948
0.005157
0.011872
0.037430
0.003527
-0.010802
-0.045225
-0.002769
0.033967
0.016879
0.013161
0.038246
-0.000808
0.005710
-0.009899
0.037579
-0.005102
-0.032922
-0.000581
-0.029865
0.003150
-0.047168
-0.046889
0.030407
-0.013827
-0.000072
-0.015891
0.010644
0.006674
0.007084
0.006788
-0.027026
-0.032062
0.019068
0.014151
0.035415
-0.040300
-0.000388
-0.018302
0.002998
0.032350
0.001434
-0.002443
0.031080
-0.002920
-0.007759
-0.033828
-0.046360
0.009227
0.036617
0.024345
-0.046645
-0.032616
0.006331
-0.004066
-0.044857
-0.011307
-0.014637
0.004987
0.000910
-0.033495
-0.011008
0.036352
-0.023951
0.010204
0.002906
-0.037554
0.038756
-0.022190
0.027881
0.023875
-0.044860
-0.042301
-0.042484
0.003809
-0.018195
-0.005689
-0.048060
-0.035485
0.029665
-0.043834
0.003001
-0.032048
-0.009531
0.001861
0.017547
-0.000994
0.007562
-0.009319
0.001491
0.036348
0.003531
-0.016768
0.016008
0.038034
-0.021594
-0.046006
-0.003619
-0.001362
0.005995
0.000502
-0.032060
0.009938
-0.008137
-0.033710
-0.032543
-0.017102
0.003946
-0.006926
0.012390
-0.023644
0.005182
-0.001707
0.001541
-0.013585
-0.006856
0.003576
0.005208
0.005216
-0.001847
0.009893
0.038701
-0.016001
-0.017336
-0.016279
-0.021767
-0.019231
-0.020459
-0.046755
0.037759
0.037278
-0.021411
-0.013578
-0.010918
-0.018821
0.006865
-0.034549
-0.007508
-0.022514
0.003053
0.036913
-0.046698
-0.019374
-0.005603
-0.044663
0.026986
-0.001968
0.001773
0.038466
-0.029121
-0.045002
0.011605
-0.045262
-0.046751
-0.045851
0.003316
-0.047914
0.011335
0.001830
-0.000480
-0.021155
0.010047
-0.016345
-0.031509
0.007288
-0.031207
-0.026497
-0.028379
0.027642
-0.043671
0.024815
-0.001236
-0.045835
0.028315
-0.004909
0.030477
-0.016962
-0.046588
-0.032424
-0.009095
0.035796
-0.006911
0.038299
0.001019
0.001704
0.037511
0.002289
-0.016236
-0.046311
-0.006273
-0.020028
-0.046566
0.006315
-0.001747
-0.018862
0.002512
0.008860
0.007786
0.001122
-0.046014
0.008507
-0.034527
-0.001411
0.003201
-0.019043
0.022713
0.034642
-0.010863
-0.038844
-0.004519
-0.015583
-0.033570
-0.003715
0.036781
0.010332
-0.022315
-0.013143
0.016769
0.009242
-0.003047
0.003714
0.005118
-0.031988
-0.031132
-0.020622
0.031838
-0.007659
0.005425
-0.002265
-0.033332
-0.033769
0.009418
-0.025484
-0.014081
-0.008755
0.012944
0.002857
0.001569
-0.044746
-0.044657
-0.030062
0.000492
0.003630
-0.045093
-0.044588
0.002997
0.009230
-0.009659
0.000139
-0.011686
-0.032203
-0.021109
-0.003946
0.038157
0.005777
-0.014653
0.004277
-0.005354
0.015219
-0.016657
-0.000178
0.008292
0.011850
-0.014711
-0.019266
0.036405
-0.022398
-0.012237
-0.022060
-0.008954
0.035582
0.033596
0.007615
-0.022703
0.027383
0.037964
-0.046474
0.038217
-0.020170
-0.005154
-0.047088
-0.023569
-0.008302
0.000132
0.005618
-0.004143
0.036929
0.007380
0.027662
0.003784
-0.046108
-0.020075
-0.045000
-0.006193
-0.043958
0.002230
-0.039700
-0.041832
-0.043420
0.015343
0.003259
0.007812
-0.019779
0.008806
0.009470
-0.030712
0.008407
-0.025919
0.017303
0.033036
0.013844
-0.004115
-0.044606
0.002291
0.037845
0.027908
-0.008676
0.031790
-0.008257
-0.027891
-0.036978
-0.021116
-0.005088
-0.030977
0.002498
0.033221
-0.017450
-0.031528
-0.002665
-0.020150
0.011311
-0.045748
-0.023201
-0.042542
-0.045811
0.002840
0.003702
0.007274
0.002726
-0.006110
0.035345
0.009612
-0.000490
0.000624
-0.021843
-0.032471
0.029880
-0.032286
-0.035639
0.035993
-0.032159
-0.001789
-0.005004
0.008403
-0.013974
-0.012527
-0.046261
-0.010539
0.000264
0.001546
-0.004847
-0.043510
-0.018732
0.008814
0.010647
0.000911
-0.030994
-0.030971
0.029138
-0.005927
0.019972
0.026156
-0.025057
0.004602
0.012949
0.010043
0.023164
0.005893
0.000583
0.007992
-0.021762
0.001834
-0.003543
-0.012631
-0.014476
0.036546
0.000487
-0.015771
-0.041229
-0.000572
0.001922
-0.010323
0.015214
0.002580
-0.000747
0.037774
0.001788
-0.019153
0.004360
-0.017475
-0.001560
0.008420
-0.022318
-0.014943
-0.046787
-0.045665
-0.044286
-0.020045
-0.015250
-0.013543
0.006921
-0.010500
-0.020929
0.034245
-0.023046
0.023443
0.037824
0.008856
-0.003485
-0.020768
-0.022723
-0.041050
-0.047003
-0.006315
0.009741
-0.042693
0.037059
0.036067
0.037783
0.036661
-0.045931
0.004700
-0.044758
-0.010237
0.005937
-0.044535
-0.044121
0.031089
0.006791
-0.017081
0.013328
-0.021133
-0.033389
0.012648
0.015894
-0.042426
0.025467
-0.009855
0.037341
-0.003173
0.000954
-0.017325
-0.046062
0.030609
0.031752
-0.001204
0.034851
0.036882
-0.030895
-0.029235
-0.038665
-0.024989
0.021653
0.003561
-0.001559
0.035975
0.000479
0.001780
-0.042828
0.005068
0.010070
-0.046481
-0.007072
-0.005861
-0.020961
0.010089
0.007511
0.006336
0.008231
-0.045478
-0.020224
-0.014874
0.026734
-0.000857
-0.003170
-0.045323
0.026836
-0.033224
0.032541
-0.045565
-0.030231
-0.002119
0.018831
0.034861
0.003003
0.009398
0.023889
-0.030086
0.035714
-0.031026
0.036802
-0.000033
0.037133
0.011808
0.029528
-0.011778
-0.008355
-0.022499
0.010015
-0.013054
-0.015948
-0.010939
-0.009042
0.001815
-0.015763
-0.044008
0.000250
0.001187
-0.014891
-0.004236
0.014612
0.008182
0.035447
-0.005612
0.009340
0.001984
-0.006891
0.034002
0.005757
0.009582
-0.021999
-0.017233
-0.008996
-0.018484
0.003585
-0.043816
-0.001110
-0.016134
-0.039934
0.006177
0.028774
0.002737
0.007944
-0.022950
-0.020065
0.037269
-0.031507
-0.046326
-0.013733
0.011025
-0.007196
-0.011753
-0.030130
0.036029
-0.023170
-0.009579
-0.042229
-0.022615
-0.031025
-0.015150
0.003234
-0.045474