# vtk DataFile Version 2.0
Test
ASCII
DATASET POLYDATA
POINTS 4677 float
0.000000 0.000000 0.000000
0.080000 0.000000 0.000000
0.080000 0.160000 0.000000
0.000000 0.160000 0.000000
0.036000 0.073072 0.000000
0.044000 0.086928 0.000000
0.024500 0.065566 0.000000
0.055500 0.093560 0.000000
0.001000 0.050000 0.000000
0.079000 0.110000 0.000000
0.002963 0.000000 0.000000
0.005926 0.000000 0.000000
0.008889 0.000000 0.000000
0.011852 0.000000 0.000000
0.014815 0.000000 0.000000
0.017778 0.000000 0.000000
0.020741 0.000000 0.000000
0.023704 0.000000 0.000000
0.026667 0.000000 0.000000
0.029630 0.000000 0.000000
0.032593 0.000000 0.000000
0.035556 0.000000 0.000000
0.038519 0.000000 0.000000
0.041481 0.000000 0.000000
0.044444 0.000000 0.000000
0.047407 0.000000 0.000000
0.050370 0.000000 0.000000
0.053333 0.000000 0.000000
0.056296 0.000000 0.000000
0.059259 0.000000 0.000000
0.062222 0.000000 0.000000
0.065185 0.000000 0.000000
0.068148 0.000000 0.000000
0.071111 0.000000 0.000000
0.074074 0.000000 0.000000
0.077037 0.000000 0.000000
0.080000 0.002963 0.000000
0.080000 0.005926 0.000000
0.080000 0.008889 0.000000
0.080000 0.011852 0.000000
0.080000 0.014815 0.000000
0.080000 0.017778 0.000000
0.080000 0.020741 0.000000
0.080000 0.023704 0.000000
0.080000 0.026667 0.000000
0.080000 0.029630 0.000000
0.080000 0.032593 0.000000
0.080000 0.035556 0.000000
0.080000 0.038519 0.000000
0.080000 0.041481 0.000000
0.080000 0.044444 0.000000
0.080000 0.047407 0.000000
0.080000 0.050370 0.000000
0.080000 0.053333 0.000000
0.080000 0.056296 0.000000
0.080000 0.059259 0.000000
0.080000 0.062222 0.000000
0.080000 0.065185 0.000000
0.080000 0.068148 0.000000
0.080000 0.071111 0.000000
0.080000 0.074074 0.000000
0.080000 0.077037 0.000000
0.080000 0.080000 0.000000
0.080000 0.082963 0.000000
0.080000 0.085926 0.000000
0.080000 0.088889 0.000000
0.080000 0.091852 0.000000
0.080000 0.094815 0.000000
0.080000 0.097778 0.000000
0.080000 0.100741 0.000000
0.080000 0.103704 0.000000
0.080000 0.106667 0.000000
0.080000 0.109630 0.000000
0.080000 0.112593 0.000000
0.080000 0.115556 0.000000
0.080000 0.118519 0.000000
0.080000 0.121481 0.000000
0.080000 0.124444 0.000000
0.080000 0.127407 0.000000
0.080000 0.130370 0.000000
0.080000 0.133333 0.000000
0.080000 0.136296 0.000000
0.080000 0.139259 0.000000
0.080000 0.142222 0.000000
0.080000 0.145185 0.000000
0.080000 0.148148 0.000000
0.080000 0.151111 0.000000
0.080000 0.154074 0.000000
0.080000 0.157037 0.000000
0.077037 0.160000 0.000000
0.074074 0.160000 0.000000
0.071111 0.160000 0.000000
0.068148 0.160000 0.000000
0.065185 0.160000 0.000000
0.062222 0.160000 0.000000
0.059259 0.160000 0.000000
0.056296 0.160000 0.000000
0.053333 0.160000 0.000000
0.050370 0.160000 0.000000
0.047407 0.160000 0.000000
0.044444 0.160000 0.000000
0.041481 0.160000 0.000000
0.038519 0.160000 0.000000
0.035556 0.160000 0.000000
0.032593 0.160000 0.000000
0.029630 0.160000 0.000000
0.026667 0.160000 0.000000
0.023704 0.160000 0.000000
0.020741 0.160000 0.000000
0.017778 0.160000 0.000000
0.014815 0.160000 0.000000
0.011852 0.160000 0.000000
0.008889 0.160000 0.000000
0.005926 0.160000 0.000000
0.002963 0.160000 0.000000
0.000000 0.157037 0.000000
0.000000 0.154074 0.000000
0.000000 0.151111 0.000000
0.000000 0.148148 0.000000
0.000000 0.145185 0.000000
0.000000 0.142222 0.000000
0.000000 0.139259 0.000000
0.000000 0.136296 0.000000
0.000000 0.133333 0.000000
0.000000 0.130370 0.000000
0.000000 0.127407 0.000000
0.000000 0.124444 0.000000
0.000000 0.121481 0.000000
0.000000 0.118519 0.000000
0.000000 0.115556 0.000000
0.000000 0.112593 0.000000
0.000000 0.109630 0.000000
0.000000 0.106667 0.000000
0.000000 0.103704 0.000000
0.000000 0.100741 0.000000
0.000000 0.097778 0.000000
0.000000 0.094815 0.000000
0.000000 0.091852 0.000000
0.000000 0.088889 0.000000
0.000000 0.085926 0.000000
0.000000 0.082963 0.000000
0.000000 0.080000 0.000000
0.000000 0.077037 0.000000
0.000000 0.074074 0.000000
0.000000 0.071111 0.000000
0.000000 0.068148 0.000000
0.000000 0.065185 0.000000
0.000000 0.062222 0.000000
0.000000 0.059259 0.000000
0.000000 0.056296 0.000000
0.000000 0.053333 0.000000
0.000000 0.050370 0.000000
0.000000 0.047407 0.000000
0.000000 0.044444 0.000000
0.000000 0.041481 0.000000
0.000000 0.038519 0.000000
0.000000 0.035556 0.000000
0.000000 0.032593 0.000000
0.000000 0.029630 0.000000
0.000000 0.026667 0.000000
0.000000 0.023704 0.000000
0.000000 0.020741 0.000000
0.000000 0.017778 0.000000
0.000000 0.014815 0.000000
0.000000 0.011852 0.000000
0.000000 0.008889 0.000000
0.000000 0.005926 0.000000
0.000000 0.002963 0.000000
0.035500 0.072746 0.000000
0.035000 0.072419 0.000000
0.034500 0.072093 0.000000
0.034000 0.071767 0.000000
0.033500 0.071440 0.000000
0.033000 0.071114 0.000000
0.032500 0.070788 0.000000
0.032000 0.070461 0.000000
0.031500 0.070135 0.000000
0.031000 0.069809 0.000000
0.030500 0.069482 0.000000
0.030000 0.069156 0.000000
0.029500 0.068829 0.000000
0.029000 0.068503 0.000000
0.028500 0.068177 0.000000
0.028000 0.067850 0.000000
0.027500 0.067524 0.000000
0.027000 0.067198 0.000000
0.026500 0.066871 0.000000
0.026000 0.066545 0.000000
0.025500 0.066219 0.000000
0.025000 0.065892 0.000000
0.044500 0.087216 0.000000
0.045000 0.087505 0.000000
0.045500 0.087793 0.000000
0.046000 0.088081 0.000000
0.046500 0.088370 0.000000
0.047000 0.088658 0.000000
0.047500 0.088946 0.000000
0.048000 0.089235 0.000000
0.048500 0.089523 0.000000
0.049000 0.089811 0.000000
0.049500 0.090100 0.000000
0.050000 0.090388 0.000000
0.050500 0.090677 0.000000
0.051000 0.090965 0.000000
0.051500 0.091253 0.000000
0.052000 0.091542 0.000000
0.052500 0.091830 0.000000
0.053000 0.092118 0.000000
0.053500 0.092407 0.000000
0.054000 0.092695 0.000000
0.054500 0.092983 0.000000
0.055000 0.093272 0.000000
0.043704 0.086415 0.000000
0.043407 0.085902 0.000000
0.043111 0.085388 0.000000
0.042815 0.084875 0.000000
0.042519 0.084362 0.000000
0.042222 0.083849 0.000000
0.041926 0.083336 0.000000
0.041630 0.082823 0.000000
0.041333 0.082309 0.000000
0.041037 0.081796 0.000000
0.040741 0.081283 0.000000
0.040444 0.080770 0.000000
0.040148 0.080257 0.000000
0.039852 0.079743 0.000000
0.039556 0.079230 0.000000
0.039259 0.078717 0.000000
0.038963 0.078204 0.000000
0.038667 0.077691 0.000000
0.038370 0.077177 0.000000
0.038074 0.076664 0.000000
0.037778 0.076151 0.000000
0.037481 0.075638 0.000000
0.037185 0.075125 0.000000
0.036889 0.074612 0.000000
0.036593 0.074098 0.000000
0.036296 0.073585 0.000000
0.024000 0.065235 0.000000
0.023500 0.064904 0.000000
0.023000 0.064572 0.000000
0.022500 0.064241 0.000000
0.022000 0.063910 0.000000
0.021500 0.063579 0.000000
0.021000 0.063248 0.000000
0.020500 0.062916 0.000000
0.020000 0.062585 0.000000
0.019500 0.062254 0.000000
0.019000 0.061923 0.000000
0.018500 0.061592 0.000000
0.018000 0.061261 0.000000
0.017500 0.060929 0.000000
0.017000 0.060598 0.000000
0.016500 0.060267 0.000000
0.016000 0.059936 0.000000
0.015500 0.059605 0.000000
0.015000 0.059273 0.000000
0.014500 0.058942 0.000000
0.014000 0.058611 0.000000
0.013500 0.058280 0.000000
0.013000 0.057949 0.000000
0.012500 0.057617 0.000000
0.012000 0.057286 0.000000
0.011500 0.056955 0.000000
0.011000 0.056624 0.000000
0.010500 0.056293 0.000000
0.010000 0.055961 0.000000
0.009500 0.055630 0.000000
0.009000 0.055299 0.000000
0.008500 0.054968 0.000000
0.008000 0.054637 0.000000
0.007500 0.054305 0.000000
0.007000 0.053974 0.000000
0.006500 0.053643 0.000000
0.006000 0.053312 0.000000
0.005500 0.052981 0.000000
0.005000 0.052650 0.000000
0.004500 0.052318 0.000000
0.004000 0.051987 0.000000
0.003500 0.051656 0.000000
0.003000 0.051325 0.000000
0.002500 0.050994 0.000000
0.002000 0.050662 0.000000
0.001500 0.050331 0.000000
0.055990 0.093902 0.000000
0.056479 0.094245 0.000000
0.056969 0.094587 0.000000
0.057458 0.094930 0.000000
0.057948 0.095272 0.000000
0.058437 0.095615 0.000000
0.058927 0.095957 0.000000
0.059417 0.096300 0.000000
0.059906 0.096642 0.000000
0.060396 0.096985 0.000000
0.060885 0.097327 0.000000
0.061375 0.097670 0.000000
0.061865 0.098012 0.000000
0.062354 0.098355 0.000000
0.062844 0.098697 0.000000
0.063333 0.099040 0.000000
0.063823 0.099382 0.000000
0.064312 0.099725 0.000000
0.064802 0.100067 0.000000
0.065292 0.100410 0.000000
0.065781 0.100752 0.000000
0.066271 0.101095 0.000000
0.066760 0.101437 0.000000
0.067250 0.101780 0.000000
0.067740 0.102122 0.000000
0.068229 0.102465 0.000000
0.068719 0.102807 0.000000
0.069208 0.103150 0.000000
0.069698 0.103492 0.000000
0.070187 0.103835 0.000000
0.070677 0.104177 0.000000
0.071167 0.104520 0.000000
0.071656 0.104862 0.000000
0.072146 0.105205 0.000000
0.072635 0.105547 0.000000
0.073125 0.105890 0.000000
0.073615 0.106232 0.000000
0.074104 0.106575 0.000000
0.074594 0.106917 0.000000
0.075083 0.107260 0.000000
0.075573 0.107602 0.000000
0.076062 0.107945 0.000000
0.076552 0.108287 0.000000
0.077042 0.108630 0.000000
0.077531 0.108972 0.000000
0.078021 0.109315 0.000000
0.078510 0.109658 0.000000
0.043942 0.087469 0.000000
0.035556 0.157037 0.000000
0.044420 0.002920 0.000000
0.077037 0.038519 0.000000
0.002963 0.121481 0.000000
0.077037 0.059259 0.000000
0.002963 0.109630 0.000000
0.002923 0.098139 0.000000
0.077153 0.126913 0.000000
0.002808 0.032596 0.000000
0.077140 0.071061 0.000000
0.002963 0.085926 0.000000
0.002963 0.136296 0.000000
0.077041 0.023701 0.000000
0.056296 0.157037 0.000000
0.032593 0.002963 0.000000
0.077037 0.080000 0.000000
0.002813 0.077135 0.000000
0.077037 0.142222 0.000000
0.017778 0.157037 0.000000
0.062222 0.002963 0.000000
0.076992 0.088722 0.000000
0.002945 0.020743 0.000000
0.017777 0.002962 0.000000
0.002801 0.068434 0.000000
0.002959 0.011851 0.000000
0.065186 0.157038 0.000000
0.002963 0.148148 0.000000
0.077037 0.011852 0.000000
0.076887 0.094740 0.000000
0.077092 0.115875 0.000000
0.002677 0.044265 0.000000
0.077038 0.148148 0.000000
0.002985 0.062165 0.000000
0.077037 0.047407 0.000000
0.011852 0.002963 0.000000
[...]
POINT_DATA 4677
SCALARS UX float 1
LOOKUP_TABLE default
-0.000002
0.000002
0.180848
0.045038
0.025307
0.010892
-0.044937
0.093502
-0.085226
0.219734
-0.000000
-0.000000
-0.000000
-0.000000
-0.000000
-0.000000
-0.000000
-0.000000
-0.000000
-0.000000
-0.000000
-0.000000
-0.000000
0.000000
0.000000
0.000000
0.000000
0.000000
0.000000
0.000000
0.000000
0.000000
0.000000
0.000000
0.000001
-0.000000
0.001834
0.003671
0.005631
0.008073
0.010484
0.015340
0.020834
0.026792
0.032725
0.038639
0.044621
0.050657
0.056615
0.062571
0.068166
0.072367
0.074420
0.081987
0.089476
0.096396
0.104382
0.105619
0.106176
0.111469
0.119862
0.123336
0.128482
0.136769
0.141357
0.145094
0.156107
0.165359
0.178307
0.194239
0.207224
0.212622
0.218785
0.227285
0.232565
0.231532
0.236511
0.242016
0.228363
0.194659
0.187220
0.175804
0.175364
0.178467
0.179728
0.180368
0.180987
0.180291
0.180369
0.173235
0.165663
0.154366
0.149574
0.145138
0.140834
0.136580
0.132324
0.127982
0.123546
0.119179
0.114993
0.111049
0.107291
0.103578
0.099743
0.095742
0.091513
0.087086
0.082463
0.077638
0.072618
0.067423
0.062048
0.056446
0.050861
0.044480
0.043405
0.041790
0.039680
0.037137
0.034218
0.030953
0.027378
0.023630
0.019476
0.015267
0.010327
0.004986
-0.000916
-0.007127
-0.013210
-0.018727
-0.023309
-0.026786
-0.029262
-0.031182
-0.032775
-0.034447
-0.036385
-0.039127
-0.042158
-0.046563
-0.051427
-0.057092
-0.064126
-0.070987
-0.077227
-0.082142
-0.086402
-0.088509
-0.089320
-0.087047
-0.080228
-0.071556
-0.063042
-0.055585
-0.050020
-0.046093
-0.043251
-0.043325
-0.041737
-0.040498
-0.033929
-0.023393
-0.019221
-0.012299
-0.006942
-0.000814
0.026301
0.030050
0.024227
0.018391
0.013371
0.006531
-0.001701
-0.004191
-0.008758
-0.009206
-0.014788
-0.019232
-0.023029
-0.025270
-0.027548
-0.029855
-0.030644
-0.033655
-0.035600
-0.040021
-0.041108
-0.044525
0.017136
0.000374
0.013008
0.013766
0.015267
0.016051
0.021802
0.023377
0.027807
0.032991
0.039155
0.038016
0.037187
0.041652
0.045661
0.050767
0.056151
0.062780
0.068643
0.078964
0.086547
0.093066
0.002442
-0.000840
-0.004250
0.003756
0.008151
0.010846
0.010364
0.009637
0.011958
0.017777
0.019825
0.011037
0.009217
0.004980
0.001066
0.013163
0.011994
0.010853
0.012632
0.023510
0.024579
0.025557
0.023590
0.020700
0.018527
0.021825
-0.046745
-0.047810
-0.048970
-0.050076
-0.052318
-0.054847
-0.053942
-0.055211
-0.056598
-0.059285
-0.058794
-0.060983
-0.062652
-0.064328
-0.065944
-0.068326
-0.070949
-0.073632
-0.073813
-0.074366
-0.074724
-0.075297
-0.075933
-0.076624
-0.077297
-0.077943
-0.078415
-0.078855
-0.079753
-0.080636
-0.081556
-0.082047
-0.082310
-0.082579
-0.083203
-0.083735
-0.084076
-0.084338
-0.084565
-0.084747
-0.084936
-0.085057
-0.085209
-0.085286
-0.085387
-0.085317
0.098457
0.099362
0.101796
0.104094
0.106175
0.108288
0.109700
0.111662
0.113938
0.116641
0.118351
0.118484
0.119091
0.120956
0.123440
0.125426
0.127023
0.129288
0.131811
0.134182
0.134162
0.136389
0.138430
0.142748
0.147395
0.152139
0.156960
0.161895
0.166888
0.171982
0.177032
0.182244
0.187437
0.199139
0.195462
0.199115
0.202512
0.205674
0.207055
0.208190
0.210724
0.211886
0.213122
0.214500
0.215627
0.216762
0.217999
0.005987
0.103525
-0.000081
0.049829
0.010827
0.095375
-0.014441
-0.026847
0.213420
-0.043300
0.107164
-0.034798
0.033430
0.020517
0.132246
-0.000071
0.123257
-0.048079
0.170683
0.077501
0.000022
0.138676
-0.039397
-0.000296
-0.068725
-0.016340
0.145264
0.045821
0.004906
0.153985
0.224980
-0.067215
0.173035
-0.081079
0.067578
-0.000255
0.160408
0.056418
0.000140
-0.084530
0.184110
0.173395
0.110981
0.119205
-0.000224
0.025581
0.032161
0.087017
-0.000009
0.172540
0.229555
-0.058412
0.019450
0.233399
-0.051874
-0.086909
-0.054562
0.129236
-0.029951
-0.038752
0.102473
0.112191
0.080144
-0.022995
0.200537
-0.001738
-0.041073
-0.040497
0.055755
0.095733
0.168739
-0.000038
0.000120
0.021047
0.037961
0.000039
-0.029824
-0.000028
0.136511
0.123571
0.040313
0.011538
-0.006977
-0.000331
0.000009
0.067216
0.000078
0.173669
0.000005
0.000016
0.049544
0.001329
0.050589
0.000180
0.218884
0.002415
-0.083345
-0.087103
0.212359
0.005626
-0.000086
0.043452
0.105747
-0.038335
-0.034890
0.226788
0.123285
0.031184
0.160032
-0.000537
-0.057022
-0.025373
-0.082456
0.117175
0.187665
0.131749
-0.009811
-0.000433
-0.000353
0.165274
0.055478
0.000304
0.223632
-0.076762
0.166041
-0.075070
0.144447
-0.061607
-0.086645
0.134424
0.226425
-0.047576
0.216311
-0.043150
0.117623
-0.031706
-0.028258
0.101410
0.102865
-0.025402
-0.019372
0.087823
-0.008349
0.072892
0.179533
0.061643
0.004796
0.107251
0.016171
0.043893
0.099765
-0.000079
0.114988
-0.039975
0.091491
-0.000041
0.000005
0.170043
0.029633
0.026278
0.127967
-0.000105
0.082366
0.000007
-0.020202
0.000037
0.140802
0.037040
0.015263
-0.000409
0.043257
0.007628
0.150259
0.171766
0.072457
0.000035
0.165070
0.172406
0.061913
0.000110
0.047938
0.002950
-0.083831
0.220603
0.216813
-0.084215
-0.084171
0.008967
-0.001380
0.208625
-0.087669
0.223073
-0.053445
-0.004076
0.013303
-0.010679
0.098962
-0.025120
-0.015337
0.216404
-0.055873
0.099767
0.081993
-0.058861
-0.000044
0.019963
0.136941
0.043000
0.071940
0.159505
0.004695
0.049241
0.000047
0.218429
-0.082180
0.205007
0.085813
-0.003133
0.070112
0.010494
0.114843
0.035316
0.140756
-0.000020
-0.001475
0.053903
0.149605
0.166870
-0.081460
0.220191
-0.070748
0.215380
0.114549
-0.075222
0.213922
-0.041057
-0.086074
0.131229
0.122319
-0.021494
0.203790
-0.042657
-0.047742
-0.063201
0.095083
0.100800
-0.028682
0.038033
-0.000165
0.000110
-0.037889
0.056202
0.049582
-0.000149
-0.000220
-0.031314
0.162188
0.119045
0.091313
0.127608
0.021525
0.026277
0.161526
0.163758
0.161799
0.107237
-0.037051
-0.000472
0.136360
-0.015534
-0.000779
0.010905
0.000001
-0.034939
-0.000806
-0.000631
0.163522
0.061198
0.000229
0.001078
-0.041003
0.001529
0.009312
0.216162
-0.083378
-0.086149
0.222312
-0.083017
0.214379
-0.004630
0.014054
0.007479
-0.004476
0.009374
-0.000111
0.043218
0.094372
-0.025648
0.115299
0.027287
-0.037083
0.153506
0.115563
-0.000658
0.127916
-0.034214
-0.020833
-0.000823
-0.080957
0.215585
0.188775
-0.010340
-0.053033
0.032925
-0.000313
0.155830
0.000519
0.136337
0.156140
0.036842
0.059691
0.000315
0.005709
-0.065630
0.141598
-0.040575
-0.078541
-0.018878
-0.045934
-0.026192
-0.023562
0.026128
0.099097
0.217772
0.092801
-0.009456
0.077912
0.107422
0.004237
0.190859
0.132194
-0.028602
0.110754
-0.000134
0.095861
0.039437
0.062576
-0.000104
0.086856
-0.034985
0.118984
0.031678
0.016302
-0.000022
0.077087
0.162832
0.015011
-0.011343
-0.001109
0.007058
0.156568
0.145280
-0.001676
0.046286
-0.000003
0.103566
0.066729
0.051806
0.158748
0.002724
0.000135
-0.051148
0.221442
-0.061783
-0.002087
-0.086138
0.005318
0.014773
0.210448
-0.075715
0.214667
-0.002288
0.013576
0.213651
-0.085851
-0.079357
0.212625
0.216299
-0.000306
-0.000543
-0.006006
-0.084103
-0.067466
0.009543
0.002180
0.090684
-0.016732
-0.022936
-0.037328
0.211491
0.115243
-0.050180
-0.058824
0.091372
0.130384
0.048854
-0.000071
0.014329
-0.031937
-0.076960
0.076065
-0.004716
0.000006
0.004441
0.074598
-0.000196
0.213235
0.107622
0.010661
0.022094
0.155268
-0.017076
-0.002849
0.001082
0.065316
0.098788
-0.073036
0.214551
0.160376
-0.060530
-0.021318
-0.032272
-0.023096
-0.000517
0.094200
0.025260
-0.015149
0.049707
0.111787
-0.000322
-0.045391
0.203755
0.151748
-0.040747
0.125591
0.111196
0.123844
0.064246
0.154828
-0.035664
0.041159
0.086170
-0.000736
0.036931
-0.028939
0.132081
-0.000997
0.092854
-0.000045
0.099909
0.140726
0.150347
0.032227
0.010251
-0.001819
0.157512
-0.000553
-0.000257
0.052138
0.057655
0.000079
0.000201
-0.052721
0.012494
0.014626
-0.000459
-0.082283
-0.083907
0.213646
0.211819
-0.005547
-0.085043
0.001390
0.206812
-0.071612
0.013623
0.214942
0.120341
0.180453
0.104859
-0.065178
-0.077563
0.010497
0.010498
0.210876
0.002306
0.014621
0.038097
0.091479
0.026558
-0.000497
0.105086
-0.055798
0.148588
0.209093
0.119494
0.127574
0.042555
0.090161
-0.000827
-0.070847
0.147576
-0.000122
0.010467
0.209954
0.136088
0.054668
0.063377
0.020471
-0.032375
0.021193
0.190974
0.089348
-0.002153
0.000032
-0.024796
-0.007525
0.000328
0.012273
0.210643
-0.020408
0.080959
0.014738
-0.036471
-0.000386
-0.019003
0.056876
0.095835
0.110859
0.199367
-0.010234
0.015326
0.003068
-0.000431
0.017340
0.147617
0.122615
-0.043338
0.126068
0.168147
-0.063972
0.096954
-0.000089
0.114327
-0.025708
-0.030068
-0.047498
0.032685
0.026021
-0.007753
0.103744
0.148301
0.081242
0.006650
-0.000947
0.145295
-0.000051
0.045242
0.119040
-0.003927
0.148034
0.095751
0.002656
0.055126
0.070787
0.019345
0.207935
-0.083959
0.013186
-0.073591
-0.075791
0.013946
0.008589
-0.002789
-0.000057
-0.002078
0.005445
-0.062618
0.011976
0.014557
0.014626
-0.017970
-0.055807
-0.036344
-0.084461
0.151422
0.086040
0.211997
0.127186
0.109713
-0.079771
-0.085161
0.205515
0.006702
0.212154
-0.083113
-0.041014
0.207066
0.208818
0.012524
0.013905
0.021415
-0.007404
-0.019992
0.192699
0.112380
0.032705
-0.047523
-0.000623
-0.035167
0.015296
-0.059826
0.205580
-0.002197
0.112895
-0.031844
0.143979
0.124007
-0.074142
-0.074969
0.079942
0.206443
0.088133
0.171455
0.058081
0.103789
0.015796
0.143231
0.008408
-0.021018
0.095074
-0.000149
-0.006305
0.144844
0.004098
-0.058449
-0.000112
0.050979
0.001069
0.060882
-0.002528
0.014961
-0.014916
-0.038894
-0.029390
-0.043770
0.079226
0.092957
-0.016447
-0.049587
0.016704
0.108874
-0.000373
-0.069211
0.089976
0.020322
-0.000184
-0.000775
-0.083724
0.037971
0.100565
0.147276
0.209856
0.119306
-0.000406
-0.007375
0.140358
0.091799
0.044467
0.132018
-0.000093
0.046819
0.006080
0.148309
0.031428
0.057901
0.204604
0.107248
0.085175
0.000176
-0.004954
0.201589
0.068973
-0.083571
0.125167
0.211008
0.209590
0.005447
0.020152
-0.077850
-0.082473
0.153517
-0.068734
0.015159
0.122157
0.022008
0.014724
-0.001962
0.010680
0.009943
0.001578
-0.016472
0.014686
0.209933
0.013436
0.014279
0.205745
-0.085302
-0.037778
-0.083838
0.206315
0.004266
-0.083712
0.179213
-0.033475
0.007343
0.013858
0.162566
0.025027
0.084560
0.085478
-0.016281
-0.046167
0.099463
-0.065445
-0.000227
0.123509
0.094151
0.048187
0.004067
0.022059
0.017368
-0.000037
-0.077324
-0.082755
-0.013742
-0.029580
0.009623
-0.033996
0.026960
0.131824
0.039116
0.088959
-0.001705
0.140047
0.145259
0.063656
0.083646
-0.000534
-0.013707
-0.010786
0.015159
0.002894
-0.035081
-0.000354
-0.001075
0.200697
0.072951
-0.069067
-0.062830
0.107141
0.011937
-0.085132
0.107781
0.021484
-0.052659
0.089190
-0.071154
0.099860
0.049902
-0.028043
-0.033348
0.144514
-0.002402
0.038571
0.143190
-0.080441
-0.078920
-0.022375
0.120217
0.116065
-0.007432
-0.052490
0.115820
-0.014468
0.052543
0.128097
0.031454
0.020569
0.066661
0.143962
0.000335
0.002596
0.207615
0.074556
0.056604
-0.000032
0.015076
0.156167
0.128274
-0.000374
0.016038
0.205590
0.202490
0.020609
-0.082841
0.202293
0.146250
0.206541
-0.082635
0.020622
0.007485
-0.001254
0.000157
-0.042579
0.021897
0.007121
-0.072618
0.021132
0.198361
0.206010
-0.084545
0.015637
0.085007
0.169153
-0.002675
0.033860
-0.000443
0.204807
0.018543
0.199854
0.018479
-0.083496
0.152948
0.032313
0.031578
0.030590
-0.048640
-0.019484
-0.000711
-0.046799
0.010609
0.106216
-0.065198
0.123727
0.139762
-0.006973
0.053843
-0.029557
-0.006884
0.111500
-0.077129
-0.075682
0.202421
-0.082601
0.140427
0.014839
-0.035839
-0.000109
0.022953
0.098414
-0.013792
0.139536
-0.026671
0.002495
0.069572
0.074354
0.001313
-0.071606
0.202861
0.115241
-0.079888
0.017045
0.006056
-0.040870
-0.062353
0.085218
0.126907
0.021256
0.048032
0.104376
0.102991
-0.057620
-0.023731
-0.011163
0.087547
-0.000778
0.094491
0.038590
0.088472
-0.000227
0.001156
0.135997
-0.018231
-0.000171
0.078194
-0.001891
0.119972
0.000151
0.089141
-0.083930
-0.012392
0.025902
-0.033665
0.199254
-0.010206
-0.011900
-0.004024
0.058123
0.072313
0.060377
0.149363
-0.056985
0.043499
0.199342
0.080971
-0.014839
0.133655
0.159842
0.024143
0.016812
0.003129
0.020005
0.017501
-0.002296
0.010754
0.199935
0.022387
0.202644
0.001632
0.203685
0.197130
0.030133
0.010213
0.195267
-0.000570
-0.066546
0.009703
0.025361
-0.081589
-0.085975
-0.012731
0.194313
0.027107
0.008530
0.017092
-0.082119
-0.080361
-0.031679
0.179783
0.021390
-0.083180
0.024636
-0.070694
0.203637
0.194976
0.015834
0.003639
0.025549
0.049439
0.082481
-0.002756
-0.017086
0.090988
-0.000700
0.038448
0.196912
0.125473
-0.073819
0.120763
-0.062871
0.098112
0.059273
0.087330
0.040465
0.080888
-0.079349
-0.025847
0.129610
0.012798
-0.028870
0.052105
0.018585
0.027227
0.003673
0.035930
-0.010652
-0.015632
-0.000359
0.001132
0.075370
0.066319
-0.000031
0.049264
0.187221
0.076207
-0.001493
-0.031951
0.199800
0.082209
0.136037
0.098995
0.067422
0.118589
0.110396
0.007428
-0.078742
0.116268
0.084052
-0.040121
-0.074902
-0.007123
-0.052450
-0.061189
0.190610
-0.012490
-0.081465
-0.023801
-0.000374
0.139507
-0.030160
0.000106
0.140187
-0.082409
0.062170
-0.052655
0.137172
-0.008176
0.042652
0.107682
0.044058
0.026169
0.015245
0.124392
-0.013090
-0.005150
-0.043199
-0.032742
0.151505
0.000308
0.151575
0.012223
0.017633
0.193655
0.003991
0.183713
-0.083143
-0.082261
0.003741
-0.002165
0.143068
0.021558
0.023000
0.006358
-0.000686
0.201274
0.198716
0.024817
-0.081015
0.199985
-0.000477
-0.068805
0.029376
-0.009442
0.013228
0.202956
0.033871
0.159207
0.018230
-0.067854
0.031675
-0.082527
0.189652
0.195280
0.009781
0.031097
-0.059125
-0.085085
0.027142
0.192004
-0.037134
0.020509
0.142081
0.015527
-0.039515
0.046583
0.032700
-0.014229
-0.054220
-0.044826
0.121752
0.191757
0.010578
0.105413
-0.071703
0.114529
0.138179
0.024158
-0.006633
-0.004994
0.179568
0.050124
0.019652
0.005753
-0.056637
0.107555
-0.010792
-0.080853
0.032855
0.018290
0.000135
-0.000625
0.000335
-0.027516
-0.083109
-0.006828
0.026517
0.046889
0.136846
0.002217
0.184873
-0.010264
-0.032891
-0.062586
0.199756
-0.077168
0.085010
0.092501
-0.046128
-0.027718
0.103872
0.136217
-0.021359
-0.034326
-0.021278
0.190990
0.170429
-0.000438
0.002023
0.072266
0.026529
0.199465
0.080068
0.081653
0.054591
0.129692
-0.000268
0.127934
0.092724
0.196420
0.070791
0.020460
-0.032053
-0.005884
0.007327
0.154477
0.064728
0.116087
0.079588
0.044094
0.146271
-0.080391
-0.001685
-0.006381
-0.001285
-0.083298
0.007118
0.022897
0.048353
0.023712
0.024705
0.009097
-0.082657
-0.081692
0.001767
0.180342
0.007009
0.017216
0.031585
-0.065279
-0.000355
0.041065
0.144358
0.187092
0.132590
-0.030270
-0.081710
0.020102
0.144630
0.087206
0.067891
0.194805
0.038659
0.036024
0.018377
0.189965
-0.011993
-0.008539
0.031638
0.026265
0.140658
-0.077259
-0.073210
0.120810
0.014339
0.037551
-0.036560
0.078698
0.040350
0.047701
0.134763
0.032234
-0.003932
0.090462
0.076311
0.185370
-0.069501
-0.000833
0.059577
0.007895
0.133048
0.138534
0.024578
0.123287
-0.007725
-0.025792
-0.002197
-0.072117
0.070039
0.176108
0.102148
-0.075760
-0.018923
0.053813
0.118052
-0.081817
0.092081
0.078262
0.015215
0.000014
-0.004419
-0.029702
0.169258
0.044084
0.062172
0.133553
-0.029440
0.196889
0.008398
0.111388
0.172096
-0.049598
-0.035937
-0.074982
0.004462
0.018390
0.111508
-0.082033
-0.025457
0.117003
-0.079130
0.001281
-0.006171
0.098449
0.000076
0.150558
-0.000619
0.033533
0.020980
0.040660
0.168411
0.137632
0.068361
0.084044
0.192014
0.049486
-0.059354
-0.008016
0.125585
0.020214
-0.000445
-0.010074
0.077247
0.103053
0.001567
0.014462
0.064605
0.143895
-0.024621
0.076693
-0.049547
0.145657
-0.003889
0.130823
-0.031507
0.019409
0.029223
0.050787
0.147945
0.021402
0.053514
0.197205
0.021585
0.010538
0.007007
-0.000036
0.001151
-0.002382
-0.082191
0.191160
0.184999
0.012360
0.024035
0.025288
-0.041699
0.043766
-0.062654
0.029454
0.003553
0.133367
0.180200
-0.078906
0.017124
-0.014639
-0.081002
0.108441
0.035427
0.032856
0.195550
0.025336
-0.053056
0.059865
-0.081454
-0.063455
-0.080799
0.049093
-0.084342
0.079857
0.048477
0.035133
0.015117
0.073775
-0.038310
-0.016646
0.042178
-0.001344
0.031451
-0.058378
0.181128
-0.047133
0.100332
-0.001424
-0.060720
0.111572
0.118482
0.119965
0.064614
-0.061769
0.002083
0.101482
0.163736
-0.022978
0.193128
-0.000077
0.141028
0.187425
0.000293
0.069382
-0.077271
0.023866
0.054698
-0.079626
0.043255
-0.003484
0.009538
0.029778
0.057793
0.040296
0.131146
-0.080166
0.056871
-0.026044
0.029215
0.002119
0.018803
0.098298
0.150030
0.094302
-0.067035
-0.013812
0.073235
-0.022591
-0.012819
0.182477
0.136893
0.049410
0.085028
0.086546
0.072883
0.123524
0.011636
0.021541
-0.008349
-0.011966
-0.045552
0.127963
0.107160
0.044843
-0.004793
0.007846
-0.003718
0.072704
0.038652
-0.032740
-0.026793
0.076221
0.004629
0.136250
-0.080006
-0.081028
0.020917
0.028144
0.147834
-0.057774
-0.054792
0.136445
0.063726
-0.028695
-0.001011
-0.029786
-0.002272
-0.001533
0.029423
0.193225
0.037241
0.005427
0.032569
-0.018405
0.079975
0.021023
0.128639
0.050508
0.078198
0.024507
0.003582
0.173692
0.001635
0.025379
0.012175
0.027157
0.159580
0.142277
0.053162
0.005667
0.108307
0.191160
-0.081236
0.191984
0.017279
0.114617
-0.081789
-0.051180
0.012379
0.025068
0.044190
0.031467
0.179792
0.049691
0.112219
0.003476
-0.074869
-0.001989
-0.080786
-0.019068
-0.079940
0.135067
-0.032066
-0.073047
-0.077679
0.140817
0.037268
0.054940
0.019210
0.067968
0.128379
-0.013759
0.049195
-0.055815
0.084886
0.176916
0.074938
0.122383
-0.056118
0.006866
0.189373
0.109042
0.104825
0.126746
-0.024341
0.026857
-0.030435
-0.002818
0.020200
0.000924
0.000946
0.137762
-0.041444
0.014554
-0.007656
0.000245
0.072975
-0.073549
0.044407
-0.042374
-0.076430
0.129317
0.035215
0.046749
0.003125
0.114058
0.156158
0.058751
0.129487
0.133845
0.013970
-0.000178
0.117364
-0.021244
-0.063306
0.167879
0.007090
-0.004126
-0.016706
0.047811
0.080865
0.087063
-0.062702
0.097520
0.138176
-0.000033
0.029408
-0.079101
0.059490
0.070085
0.074334
0.132330
-0.007105
-0.003000
0.114684
-0.019938
0.163459
0.104617
0.037148
0.017718
0.071722
0.050116
0.097116
0.028666
-0.000291
0.062027
0.049782
0.005603
-0.011373
-0.029650
-0.034093
0.176364
0.136353
0.070011
-0.037368
-0.001681
0.141844
-0.028997
0.079832
0.144534
0.031157
0.182957
0.028365
0.006687
0.035707
0.020985
0.127079
0.052394
-0.000157
0.023882
-0.080921
-0.079921
-0.051538
-0.000599
0.003756
0.025598
0.036270
0.026471
0.017053
0.145935
0.003445
0.101988
0.187268
0.054077
0.021768
-0.047130
0.007957
-0.071425
-0.065168
0.111530
0.061330
-0.076307
0.180746
0.167602
0.188525
0.174898
-0.078333
0.005391
-0.078967
0.021651
0.042682
-0.080310
-0.080941
0.122665
0.052287
-0.041235
0.130899
0.049634
-0.061084
0.069981
0.079307
-0.044730
0.101381
0.101010
0.184897
-0.009831
0.005586
0.063849
-0.061786
0.120281
0.126044
0.134394
0.152156
0.177411
0.007269
0.020867
-0.035288
0.035298
0.095052
0.018365
-0.003151
0.164530
-0.000581
0.000125
-0.078401
0.040383
0.058627
-0.065468
-0.021237
-0.019123
-0.002638
0.069092
0.049465
0.034861
0.065942
-0.077337
0.055308
0.075727
0.172584
0.133317
0.125114
-0.058945
0.105409
-0.024331
0.131708
-0.078822
-0.008782
0.016394
0.088901
0.170863
0.012276
0.068969
0.096690
0.001587
0.162490
-0.005042
0.175150
-0.000748
0.179515
0.069795
0.115272
0.090742
0.027223
-0.049722
0.058308
-0.031946
0.069773
-0.028233
-0.024576
0.003127
-0.037435
-0.080314
0.131505
0.143082
-0.035900
-0.014236
0.077693
0.066197
0.159034
0.118165
0.056498
0.031729
0.024901
0.143404
0.130411
0.056297
-0.001657
0.004091
0.028405
0.021352
0.032085
-0.053115
0.026120
0.023618
-0.069915
0.043984
0.112279
0.002046
0.045930
0.001512
0.003850
0.181878
0.000877
-0.080090
0.025838
0.061732
0.109879
0.026629
0.014866
0.168460
0.005656
-0.026343
-0.074939
0.011400
-0.017516
0.001693
0.040052
-0.075612
0.063976
-0.078708
-0.079069
0.183201
0.169335
0.131227
-0.040321
0.019230
0.016759
0.048775
0.022914
0.047123
-0.001977
0.096660
0.140962
-0.080195
-0.034468
0.061725
0.018766
-0.055645
0.146358
0.013453
-0.054606
0.097712
-0.002146
0.106562
-0.061330
0.122103
0.084597
0.113326
0.174576
0.068930
0.020130
-0.022376
-0.077138
0.123072
-0.018158
0.130575
0.067713
0.031774
-0.078538
0.074991
0.056600
0.058470
0.107650
0.000884
0.138447
-0.011776
0.075872
0.044245