# vtk DataFile Version 2.0
Test
ASCII
DATASET POLYDATA
POINTS 4677 float
0.000000 0.000000 0.000000
0.080000 0.000000 0.000000
0.080000 0.160000 0.000000
0.000000 0.160000 0.000000
0.036000 0.073072 0.000000
0.044000 0.086928 0.000000
0.024500 0.065566 0.000000
0.055500 0.093560 0.000000
0.001000 0.050000 0.000000
0.079000 0.110000 0.000000
0.002963 0.000000 0.000000
0.005926 0.000000 0.000000
0.008889 0.000000 0.000000
0.011852 0.000000 0.000000
0.014815 0.000000 0.000000
0.017778 0.000000 0.000000
0.020741 0.000000 0.000000
0.023704 0.000000 0.000000
0.026667 0.000000 0.000000
0.029630 0.000000 0.000000
0.032593 0.000000 0.000000
0.035556 0.000000 0.000000
0.038519 0.000000 0.000000
0.041481 0.000000 0.000000
0.044444 0.000000 0.000000
0.047407 0.000000 0.000000
0.050370 0.000000 0.000000
0.053333 0.000000 0.000000
0.056296 0.000000 0.000000
0.059259 0.000000 0.000000
0.062222 0.000000 0.000000
0.065185 0.000000 0.000000
0.068148 0.000000 0.000000
0.071111 0.000000 0.000000
0.074074 0.000000 0.000000
0.077037 0.000000 0.000000
0.080000 0.002963 0.000000
0.080000 0.005926 0.000000
0.080000 0.008889 0.000000
0.080000 0.011852 0.000000
0.080000 0.014815 0.000000
0.080000 0.017778 0.000000
0.080000 0.020741 0.000000
0.080000 0.023704 0.000000
0.080000 0.026667 0.000000
0.080000 0.029630 0.000000
0.080000 0.032593 0.000000
0.080000 0.035556 0.000000
0.080000 0.038519 0.000000
0.080000 0.041481 0.000000
0.080000 0.044444 0.000000
0.080000 0.047407 0.000000
0.080000 0.050370 0.000000
0.080000 0.053333 0.000000
0.080000 0.056296 0.000000
0.080000 0.059259 0.000000
0.080000 0.062222 0.000000
0.080000 0.065185 0.000000
0.080000 0.068148 0.000000
0.080000 0.071111 0.000000
0.080000 0.074074 0.000000
0.080000 0.077037 0.000000
0.080000 0.080000 0.000000
0.080000 0.082963 0.000000
0.080000 0.085926 0.000000
0.080000 0.088889 0.000000
0.080000 0.091852 0.000000
0.080000 0.094815 0.000000
0.080000 0.097778 0.000000
0.080000 0.100741 0.000000
0.080000 0.103704 0.000000
0.080000 0.106667 0.000000
0.080000 0.109630 0.000000
0.080000 0.112593 0.000000
0.080000 0.115556 0.000000
0.080000 0.118519 0.000000
0.080000 0.121481 0.000000
0.080000 0.124444 0.000000
0.080000 0.127407 0.000000
0.080000 0.130370 0.000000
0.080000 0.133333 0.000000
0.080000 0.136296 0.000000
0.080000 0.139259 0.000000
0.080000 0.142222 0.000000
0.080000 0.145185 0.000000
0.080000 0.148148 0.000000
0.080000 0.151111 0.000000
0.080000 0.154074 0.000000
0.080000 0.157037 0.000000
0.077037 0.160000 0.000000
0.074074 0.160000 0.000000
0.071111 0.160000 0.000000
0.068148 0.160000 0.000000
0.065185 0.160000 0.000000
0.062222 0.160000 0.000000
0.059259 0.160000 0.000000
0.056296 0.160000 0.000000
0.053333 0.160000 0.000000
0.050370 0.160000 0.000000
0.047407 0.160000 0.000000
0.044444 0.160000 0.000000
0.041481 0.160000 0.000000
0.038519 0.160000 0.000000
0.035556 0.160000 0.000000
0.032593 0.160000 0.000000
0.029630 0.160000 0.000000
0.026667 0.160000 0.000000
0.023704 0.160000 0.000000
0.020741 0.160000 0.000000
0.017778 0.160000 0.000000
0.014815 0.160000 0.000000
0.011852 0.160000 0.000000
0.008889 0.160000 0.000000
0.005926 0.160000 0.000000
0.002963 0.160000 0.000000
0.000000 0.157037 0.000000
0.000000 0.154074 0.000000
0.000000 0.151111 0.000000
0.000000 0.148148 0.000000
0.000000 0.145185 0.000000
0.000000 0.142222 0.000000
0.000000 0.139259 0.000000
0.000000 0.136296 0.000000
0.000000 0.133333 0.000000
0.000000 0.130370 0.000000
0.000000 0.127407 0.000000
0.000000 0.124444 0.000000
0.000000 0.121481 0.000000
0.000000 0.118519 0.000000
0.000000 0.115556 0.000000
0.000000 0.112593 0.000000
0.000000 0.109630 0.000000
0.000000 0.106667 0.000000
0.000000 0.103704 0.000000
0.000000 0.100741 0.000000
0.000000 0.097778 0.000000
0.000000 0.094815 0.000000
0.000000 0.091852 0.000000
0.000000 0.088889 0.000000
0.000000 0.085926 0.000000
0.000000 0.082963 0.000000
0.000000 0.080000 0.000000
0.000000 0.077037 0.000000
0.000000 0.074074 0.000000
0.000000 0.071111 0.000000
0.000000 0.068148 0.000000
0.000000 0.065185 0.000000
0.000000 0.062222 0.000000
0.000000 0.059259 0.000000
0.000000 0.056296 0.000000
0.000000 0.053333 0.000000
0.000000 0.050370 0.000000
0.000000 0.047407 0.000000
0.000000 0.044444 0.000000
0.000000 0.041481 0.000000
0.000000 0.038519 0.000000
0.000000 0.035556 0.000000
0.000000 0.032593 0.000000
0.000000 0.029630 0.000000
0.000000 0.026667 0.000000
0.000000 0.023704 0.000000
0.000000 0.020741 0.000000
0.000000 0.017778 0.000000
0.000000 0.014815 0.000000
0.000000 0.011852 0.000000
0.000000 0.008889 0.000000
0.000000 0.005926 0.000000
0.000000 0.002963 0.000000
0.035500 0.072746 0.000000
0.035000 0.072419 0.000000
0.034500 0.072093 0.000000
0.034000 0.071767 0.000000
0.033500 0.071440 0.000000
0.033000 0.071114 0.000000
0.032500 0.070788 0.000000
0.032000 0.070461 0.000000
0.031500 0.070135 0.000000
0.031000 0.069809 0.000000
0.030500 0.069482 0.000000
0.030000 0.069156 0.000000
0.029500 0.068829 0.000000
0.029000 0.068503 0.000000
0.028500 0.068177 0.000000
0.028000 0.067850 0.000000
0.027500 0.067524 0.000000
0.027000 0.067198 0.000000
0.026500 0.066871 0.000000
0.026000 0.066545 0.000000
0.025500 0.066219 0.000000
0.025000 0.065892 0.000000
0.044500 0.087216 0.000000
0.045000 0.087505 0.000000
0.045500 0.087793 0.000000
0.046000 0.088081 0.000000
0.046500 0.088370 0.000000
0.047000 0.088658 0.000000
0.047500 0.088946 0.000000
0.048000 0.089235 0.000000
0.048500 0.089523 0.000000
0.049000 0.089811 0.000000
0.049500 0.090100 0.000000
0.050000 0.090388 0.000000
0.050500 0.090677 0.000000
0.051000 0.090965 0.000000
0.051500 0.091253 0.000000
0.052000 0.091542 0.000000
0.052500 0.091830 0.000000
0.053000 0.092118 0.000000
0.053500 0.092407 0.000000
0.054000 0.092695 0.000000
0.054500 0.092983 0.000000
0.055000 0.093272 0.000000
0.043704 0.086415 0.000000
0.043407 0.085902 0.000000
0.043111 0.085388 0.000000
0.042815 0.084875 0.000000
0.042519 0.084362 0.000000
0.042222 0.083849 0.000000
0.041926 0.083336 0.000000
0.041630 0.082823 0.000000
0.041333 0.082309 0.000000
0.041037 0.081796 0.000000
0.040741 0.081283 0.000000
0.040444 0.080770 0.000000
0.040148 0.080257 0.000000
0.039852 0.079743 0.000000
0.039556 0.079230 0.000000
0.039259 0.078717 0.000000
0.038963 0.078204 0.000000
0.038667 0.077691 0.000000
0.038370 0.077177 0.000000
0.038074 0.076664 0.000000
0.037778 0.076151 0.000000
0.037481 0.075638 0.000000
0.037185 0.075125 0.000000
0.036889 0.074612 0.000000
0.036593 0.074098 0.000000
0.036296 0.073585 0.000000
0.024000 0.065235 0.000000
0.023500 0.064904 0.000000
0.023000 0.064572 0.000000
0.022500 0.064241 0.000000
0.022000 0.063910 0.000000
0.021500 0.063579 0.000000
0.021000 0.063248 0.000000
0.020500 0.062916 0.000000
0.020000 0.062585 0.000000
0.019500 0.062254 0.000000
0.019000 0.061923 0.000000
0.018500 0.061592 0.000000
0.018000 0.061261 0.000000
0.017500 0.060929 0.000000
0.017000 0.060598 0.000000
0.016500 0.060267 0.000000
0.016000 0.059936 0.000000
0.015500 0.059605 0.000000
0.015000 0.059273 0.000000
0.014500 0.058942 0.000000
0.014000 0.058611 0.000000
0.013500 0.058280 0.000000
0.013000 0.057949 0.000000
0.012500 0.057617 0.000000
0.012000 0.057286 0.000000
0.011500 0.056955 0.000000
0.011000 0.056624 0.000000
0.010500 0.056293 0.000000
0.010000 0.055961 0.000000
0.009500 0.055630 0.000000
0.009000 0.055299 0.000000
0.008500 0.054968 0.000000
0.008000 0.054637 0.000000
0.007500 0.054305 0.000000
0.007000 0.053974 0.000000
0.006500 0.053643 0.000000
0.006000 0.053312 0.000000
0.005500 0.052981 0.000000
0.005000 0.052650 0.000000
0.004500 0.052318 0.000000
0.004000 0.051987 0.000000
0.003500 0.051656 0.000000
0.003000 0.051325 0.000000
0.002500 0.050994 0.000000
0.002000 0.050662 0.000000
0.001500 0.050331 0.000000
0.055990 0.093902 0.000000
0.056479 0.094245 0.000000
0.056969 0.094587 0.000000
0.057458 0.094930 0.000000
0.057948 0.095272 0.000000
0.058437 0.095615 0.000000
0.058927 0.095957 0.000000
0.059417 0.096300 0.000000
0.059906 0.096642 0.000000
0.060396 0.096985 0.000000
0.060885 0.097327 0.000000
0.061375 0.097670 0.000000
0.061865 0.098012 0.000000
0.062354 0.098355 0.000000
0.062844 0.098697 0.000000
0.063333 0.099040 0.000000
0.063823 0.099382 0.000000
0.064312 0.099725 0.000000
0.064802 0.100067 0.000000
0.065292 0.100410 0.000000
0.065781 0.100752 0.000000
0.066271 0.101095 0.000000
0.066760 0.101437 0.000000
0.067250 0.101780 0.000000
0.067740 0.102122 0.000000
0.068229 0.102465 0.000000
0.068719 0.102807 0.000000
0.069208 0.103150 0.000000
0.069698 0.103492 0.000000
0.070187 0.103835 0.000000
0.070677 0.104177 0.000000
0.071167 0.104520 0.000000
0.071656 0.104862 0.000000
0.072146 0.105205 0.000000
0.072635 0.105547 0.000000
0.073125 0.105890 0.000000
0.073615 0.106232 0.000000
0.074104 0.106575 0.000000
0.074594 0.106917 0.000000
0.075083 0.107260 0.000000
0.075573 0.107602 0.000000
0.076062 0.107945 0.000000
0.076552 0.108287 0.000000
0.077042 0.108630 0.000000
0.077531 0.108972 0.000000
0.078021 0.109315 0.000000
0.078510 0.109658 0.000000
0.043942 0.087469 0.000000
0.035556 0.157037 0.000000
0.044420 0.002920 0.000000
0.077037 0.038519 0.000000
0.002963 0.121481 0.000000
0.077037 0.059259 0.000000
0.002963 0.109630 0.000000
0.002923 0.098139 0.000000
0.077153 0.126913 0.000000
0.002808 0.032596 0.000000
0.077140 0.071061 0.000000
0.002963 0.085926 0.000000
0.002963 0.136296 0.000000
0.077041 0.023701 0.000000
0.056296 0.157037 0.000000
0.032593 0.002963 0.000000
0.077037 0.080000 0.000000
0.002813 0.077135 0.000000
0.077037 0.142222 0.000000
0.017778 0.157037 0.000000
0.062222 0.002963 0.000000
0.076992 0.088722 0.000000
0.002945 0.020743 0.000000
0.017777 0.002962 0.000000
0.002801 0.068434 0.000000
0.002959 0.011851 0.000000
0.065186 0.157038 0.000000
0.002963 0.148148 0.000000
0.077037 0.011852 0.000000
0.076887 0.094740 0.000000
0.077092 0.115875 0.000000
0.002677 0.044265 0.000000
0.077038 0.148148 0.000000
0.002985 0.062165 0.000000
0.077037 0.047407 0.000000
0.011852 0.002963 0.000000
[...]
POINT_DATA 4677
SCALARS UX float 1
LOOKUP_TABLE default
-0.000000
0.000000
0.018395
-0.002554
-0.000283
0.000619
-0.007195
0.008100
-0.011899
0.014678
-0.000000
-0.000000
-0.000000
-0.000000
-0.000000
-0.000000
-0.000000
-0.000000
-0.000000
-0.000000
-0.000000
-0.000000
-0.000000
0.000000
0.000000
0.000000
0.000000
0.000000
0.000000
0.000000
0.000000
0.000000
0.000000
0.000000
0.000000
-0.000000
0.002057
0.003149
0.003957
0.004639
0.005244
0.005793
0.006296
0.006759
0.007203
0.007631
0.008064
0.008469
0.008870
0.009269
0.009494
0.009959
0.010156
0.010312
0.010479
0.010672
0.010900
0.011162
0.011441
0.011686
0.011968
0.012484
0.012767
0.013287
0.013544
0.013899
0.014181
0.014453
0.014686
0.014865
0.014970
0.015029
0.014972
0.015026
0.015084
0.015174
0.015368
0.015514
0.015806
0.015952
0.015959
0.016220
0.016501
0.016614
0.016889
0.017279
0.017509
0.017675
0.017980
0.017637
0.016715
0.016014
0.015420
0.014528
0.013694
0.013048
0.012176
0.011508
0.010641
0.009979
0.009126
0.008329
0.007682
0.006995
0.006086
0.005388
0.004536
0.003767
0.002996
0.002246
0.001483
0.000706
-0.000087
-0.000904
-0.001717
-0.002603
-0.002705
-0.002865
-0.003080
-0.003345
-0.003641
-0.003895
-0.004341
-0.004853
-0.005261
-0.005563
-0.005874
-0.006164
-0.006643
-0.006944
-0.007088
-0.007293
-0.007550
-0.007861
-0.008205
-0.008570
-0.008960
-0.009368
-0.009801
-0.010347
-0.010729
-0.011121
-0.011553
-0.011831
-0.012070
-0.012227
-0.012431
-0.012567
-0.012674
-0.012628
-0.012448
-0.012151
-0.011814
-0.011616
-0.011394
-0.011183
-0.010860
-0.010612
-0.010264
-0.009850
-0.009533
-0.009052
-0.008717
-0.007890
-0.006985
-0.005992
-0.004771
-0.003284
0.000661
-0.000009
-0.000960
-0.001223
-0.001749
-0.002281
-0.001964
-0.002298
-0.002511
-0.002806
-0.003108
-0.003495
-0.003861
-0.004238
-0.004577
-0.004931
-0.005337
-0.005669
-0.005955
-0.006191
-0.006528
-0.006870
0.001160
0.001586
0.002115
0.001901
0.002350
0.003115
0.003719
0.003768
0.003169
0.004001
0.004465
0.005458
0.005797
0.005448
0.004985
0.005660
0.005936
0.007055
0.007746
0.005990
0.006543
0.007390
0.000792
0.000778
0.000800
0.000836
0.000839
0.000825
0.000780
0.000727
0.000703
0.000651
0.000613
0.000574
0.000506
0.000451
0.000371
0.000310
0.000256
0.000203
0.000148
0.000117
0.000072
0.000065
0.000056
0.000077
0.000102
-0.000056
-0.007250
-0.007489
-0.007548
-0.007628
-0.007710
-0.007807
-0.007917
-0.008032
-0.008156
-0.008269
-0.008414
-0.008548
-0.008680
-0.008775
-0.008879
-0.008970
-0.009089
-0.009239
-0.009338
-0.009438
-0.009530
-0.009654
-0.009750
-0.009858
-0.009963
-0.010067
-0.010170
-0.010272
-0.010372
-0.010471
-0.010569
-0.010666
-0.010761
-0.010856
-0.010949
-0.011040
-0.011129
-0.011216
-0.011301
-0.011384
-0.011464
-0.011542
-0.011618
-0.011691
-0.011764
-0.011832
0.008113
0.008327
0.008362
0.008497
0.008619
0.008784
0.008929
0.009040
0.009168
0.009284
0.009432
0.009517
0.009706
0.009872
0.010006
0.010135
0.010289
0.010439
0.010608
0.010773
0.010926
0.011046
0.011184
0.011327
0.011471
0.011613
0.011754
0.011893
0.012032
0.012170
0.012308
0.012447
0.012585
0.012724
0.012863
0.013002
0.013142
0.013282
0.013423
0.013565
0.013706
0.013847
0.013989
0.014129
0.014268
0.014405
0.014541
0.000956
0.006640
0.000016
0.008237
-0.005509
0.009816
-0.006563
-0.007772
0.014916
-0.010010
0.010847
-0.009511
-0.003652
0.006105
0.011876
-0.000218
0.012070
-0.010896
0.015929
0.002190
0.000315
0.013170
-0.008561
-0.000549
-0.011664
-0.006355
0.014232
-0.002230
0.003923
0.013657
0.014259
-0.011045
0.016496
-0.012011
0.009248
-0.000929
0.015748
-0.000910
0.000732
-0.012002
0.014081
0.015228
0.008083
0.009704
-0.000300
-0.004414
0.006994
0.003701
0.000210
0.017299
0.014287
-0.010785
0.001261
0.014579
-0.010599
-0.012197
-0.011227
0.012487
-0.008537
-0.010048
0.010266
0.011066
0.009504
-0.007141
0.014156
-0.006163
-0.009690
-0.009393
0.008542
0.005170
0.015427
0.000120
-0.000034
-0.004871
0.007419
-0.000101
-0.008087
-0.000442
0.012804
0.010323
-0.002807
0.005119
-0.005241
-0.001143
-0.003538
0.000668
0.000476
0.016747
-0.001688
-0.001773
-0.001846
0.002237
-0.001744
0.001032
0.014301
0.000741
-0.011598
-0.011909
0.014376
0.000746
-0.000109
0.007600
0.010275
-0.009243
-0.009168
0.013875
0.010089
-0.003692
0.014610
-0.000786
-0.010360
-0.007427
-0.011708
0.011448
0.013430
0.011554
-0.005602
-0.001934
-0.003137
0.015772
-0.001012
0.001549
0.014299
-0.011311
0.013967
-0.011886
0.013451
-0.011510
-0.011934
0.012861
0.014747
-0.010406
0.014590
-0.010468
0.011666
-0.008925
-0.008129
0.010591
0.010039
-0.007491
-0.006826
0.009663
-0.006377
0.009392
0.015119
0.008884
-0.005850
0.007499
-0.005160
0.007832
0.005848
0.000071
0.008786
-0.009026
0.004391
0.000164
-0.000156
0.015704
-0.003992
0.006557
0.011244
-0.000287
0.002931
0.000258
-0.007265
-0.000435
0.013436
-0.003145
0.005635
-0.000615
-0.002498
0.004557
0.015138
0.016240
0.001442
0.000381
0.016375
0.016990
-0.000111
0.000594
-0.002011
0.003181
-0.011719
0.014482
0.014192
-0.011548
-0.011587
0.001258
0.000558
0.014380
-0.012056
0.013697
-0.010321
0.001492
0.001404
0.001712
0.009189
-0.007601
-0.006140
0.013016
-0.009958
0.005641
0.002673
-0.010897
0.000317
0.005895
0.012799
-0.002341
0.001320
0.013364
0.003852
-0.001676
0.000803
0.014080
-0.011418
0.014091
0.008865
-0.005630
0.008600
-0.005073
0.008550
-0.003237
0.013228
-0.001050
-0.001477
-0.001182
0.014802
0.015988
-0.011496
0.014294
-0.010828
0.013765
0.011299
-0.011431
0.013848
-0.009865
-0.011673
0.012510
0.011840
-0.006790
0.013901
-0.009814
-0.010016
-0.010565
0.009741
0.010028
-0.008352
0.007248
-0.000341
-0.000217
-0.008874
0.008253
0.007921
0.000124
0.000014
-0.008752
0.014354
0.009450
0.004135
0.010935
-0.004423
-0.004082
0.014908
0.015351
0.014385
0.007145
-0.008449
-0.000532
0.012500
-0.006597
-0.000798
0.004936
0.000523
-0.007870
-0.004536
-0.002446
0.016150
-0.000204
0.001185
0.002428
-0.009477
0.000488
0.001246
0.013978
-0.011431
-0.011772
0.014678
-0.011760
0.014306
0.000581
0.001831
0.001275
0.001810
0.000957
-0.000338
0.007257
0.009175
-0.007709
0.008483
-0.003529
-0.008824
0.013507
0.011168
-0.000917
0.010647
-0.007757
-0.006717
-0.002576
-0.011205
0.013790
0.013404
0.001986
-0.010613
0.006894
-0.000026
0.013937
-0.001438
0.012153
0.014708
-0.002750
-0.000382
0.001862
0.001306
-0.011088
0.012982
-0.009381
-0.011541
-0.006467
-0.010307
-0.007854
-0.007264
0.006392
0.009389
0.013520
0.009032
-0.005880
0.008730
0.010400
-0.005469
0.014246
0.012428
-0.008144
0.007769
-0.000429
0.004853
-0.002716
0.008459
0.000221
0.003352
-0.008191
0.009059
0.006618
-0.004703
0.000417
0.002037
0.015109
0.005428
-0.005866
-0.003739
0.004421
0.015111
0.014005
-0.001296
-0.001988
0.000645
0.006315
0.000581
-0.001405
0.015451
0.003201
0.000975
-0.009864
0.013227
-0.010243
0.000336
-0.011642
0.000579
0.001615
0.013959
-0.010970
0.013771
0.000584
0.002413
0.013869
-0.011659
-0.011224
0.014090
0.013974
0.002073
0.002076
0.002148
-0.011418
-0.010421
0.000794
0.002410
0.008327
-0.006100
-0.007114
-0.008724
0.012493
0.008175
-0.010045
-0.009775
0.003854
0.012251
-0.001553
0.000469
0.005212
-0.007493
-0.011193
0.001829
-0.005281
0.000990
0.003733
0.007887
-0.000478
0.013381
0.006887
-0.004554
-0.003934
0.014433
-0.006030
-0.002140
0.002542
0.000387
0.009337
-0.010619
0.012985
0.013493
-0.010584
-0.006913
-0.008551
-0.007261
-0.000695
0.008711
0.006143
-0.005826
0.007497
0.007712
-0.000192
-0.009601
0.013196
0.013765
-0.009527
0.011867
0.010747
0.010010
0.007846
0.014147
-0.008570
-0.002418
0.003165
-0.001216
0.006966
-0.007244
0.011465
-0.001816
0.008920
0.000625
0.005308
0.012951
0.014417
-0.003172
0.004738
-0.004889
0.014847
-0.003112
0.000150
-0.001203
-0.000610
0.001214
0.001488
-0.009521
0.001451
0.001594
0.002440
-0.011236
-0.011316
0.013731
0.013660
0.000305
-0.011390
0.000330
0.013536
-0.011308
0.002086
0.013190
0.011464
0.013480
0.010020
-0.010115
-0.010949
0.001131
0.002058
0.013620
0.000625
0.002548
0.006518
0.007998
-0.003318
-0.000279
0.010037
-0.009384
0.012972
0.012454
0.011338
0.010361
-0.002013
0.003617
-0.001379
-0.010303
0.013430
0.000618
0.004692
0.013234
0.011890
-0.000791
0.000153
0.002136
-0.007814
0.005618
0.012640
0.008451
-0.002527
0.001331
-0.006596
-0.004188
0.002030
0.001474
0.012799
-0.006703
0.008208
0.001221
-0.008326
-0.000784
-0.006467
0.007706
0.008468
0.007237
0.012655
-0.005481
0.002590
-0.004896
-0.000043
-0.004358
0.013039
0.009530
-0.009548
0.011911
0.012673
-0.010573
0.009273
0.000308
0.010857
-0.007480
-0.007063
-0.009356
-0.002871
0.005968
-0.005164
0.006131
0.014145
0.002514
0.004247
-0.001618
0.013742
0.000792
-0.001947
0.008759
-0.003015
0.013651
0.004686
0.003171
-0.000884
0.001125
0.005677
0.013367
-0.011173
0.001137
-0.011029
-0.010661
0.001715
0.002549
0.000322
0.000382
0.000226
0.000390
-0.009706
0.001323
0.002308
0.002668
-0.006285
-0.010355
-0.009052
-0.011247
0.012963
0.008224
0.013685
0.012237
0.010863
-0.010972
-0.011457
0.013384
0.002424
0.013503
-0.011272
-0.009089
0.013734
0.013511
0.002359
0.000952
0.002512
-0.004922
-0.006468
0.012031
0.007288
-0.002539
-0.009434
-0.000300
-0.008142
0.004969
-0.009348
0.012344
-0.001803
0.010659
-0.006945
0.012249
0.009448
-0.010378
-0.010792
0.002304
0.013150
0.007642
0.012136
0.007100
0.005863
0.001586
0.012674
-0.004325
-0.005923
0.004362
0.000394
-0.003318
0.013458
0.003539
-0.010109
0.001069
-0.001189
0.002569
-0.000130
0.000184
0.002175
-0.005767
-0.008900
-0.007871
-0.008857
0.007497
0.007758
-0.005946
-0.009124
0.005281
0.010410
-0.000534
-0.010820
0.008200
-0.003673
0.000172
-0.001038
-0.011143
-0.002465
0.009583
0.013200
0.013486
0.008590
-0.002045
-0.004474
0.012660
0.008677
0.006895
0.011237
0.000829
-0.001636
0.004026
0.013885
0.006247
-0.000455
0.013099
0.006522
0.002992
0.001639
-0.003555
0.013356
0.000885
-0.010945
0.011661
0.013284
0.012988
0.000586
0.002939
-0.010693
-0.011136
0.012744
-0.009940
0.001496
0.011471
0.002694
0.001754
0.000200
0.002723
0.000558
0.000188
-0.006061
0.001892
0.013460
0.001674
0.002930
0.013588
-0.011463
-0.008545
-0.011226
0.013215
0.002810
-0.011062
0.012096
-0.008169
0.002647
0.000724
0.011584
0.002773
0.006944
0.007634
-0.005795
-0.008620
0.009225
-0.009517
0.000481
0.008988
0.004028
-0.001290
0.003436
0.003074
0.001907
0.001046
-0.010482
-0.010870
-0.005600
-0.007090
0.004347
-0.007980
-0.002927
0.010913
0.006233
0.008363
-0.002791
0.012462
0.012591
0.000276
0.002676
0.000016
-0.005583
-0.005113
0.001979
-0.004538
-0.007776
-0.000765
-0.001354
0.013607
0.007242
-0.010545
-0.010191
0.010178
0.001269
-0.011485
0.006326
0.002279
-0.008961
0.007307
-0.010656
0.005217
0.007024
-0.006564
-0.008301
0.012469
-0.002186
-0.002123
0.012874
-0.010836
-0.011118
-0.006828
0.011261
0.010946
-0.003867
-0.009718
0.007926
-0.005304
-0.000881
0.010251
0.005833
0.005142
0.000605
0.013163
0.002082
0.003095
0.013234
0.001606
-0.000464
0.001341
-0.003965
0.012157
0.011873
-0.000044
0.001331
0.012862
0.012275
0.002630
-0.011036
0.012040
0.012338
0.013121
-0.011005
0.003049
0.000551
0.000134
0.000068
-0.009089
0.003420
0.000212
-0.010113
0.001934
0.013140
0.012624
-0.011323
0.001724
0.007714
0.011508
-0.004678
0.002985
-0.000560
0.012998
0.002953
0.012950
0.003420
-0.010852
0.011011
-0.002198
0.005322
0.003385
-0.008486
-0.006173
-0.000565
-0.008983
0.004279
0.009935
-0.010011
0.011497
0.011591
-0.002717
-0.000555
-0.006385
-0.004533
0.006757
-0.010817
-0.010229
0.012851
-0.010754
0.011871
-0.003513
-0.008182
0.001257
0.002244
0.004801
-0.005476
0.012255
-0.007210
0.003013
0.000994
0.006730
-0.000109
-0.010445
0.012776
0.010764
-0.010652
0.001903
0.003867
-0.008327
-0.009162
0.007875
0.009710
-0.003181
0.006206
0.009750
0.005454
-0.009640
-0.005837
-0.004014
0.007514
-0.001056
0.008713
-0.001790
0.007069
0.000196
0.002567
0.011719
-0.005355
0.000760
0.002025
-0.004148
0.008373
0.001675
0.003321
-0.011241
-0.004589
0.005534
-0.007544
0.011908
-0.005063
-0.005365
-0.001754
-0.000157
0.001308
-0.000074
0.012145
-0.008947
-0.001730
0.011855
0.007064
-0.005724
0.012403
0.011616
0.002598
0.001144
-0.000002
0.002307
0.001708
-0.000016
0.001083
0.012151
0.002900
0.012515
0.000279
0.012882
0.012767
0.003211
0.000319
0.013348
-0.000352
-0.010237
0.000463
0.004233
-0.010832
-0.011762
-0.005347
0.013708
0.003039
-0.003972
0.001645
-0.010876
-0.011533
-0.007631
0.011542
0.003450
-0.010770
0.003645
-0.009820
0.012965
0.012952
0.000932
-0.000169
0.002589
0.003284
0.006487
-0.004040
-0.005596
0.008418
-0.000859
-0.001425
0.011755
0.011554
-0.009938
0.008046
-0.009970
0.004596
0.000162
0.003075
0.005550
0.007070
-0.010897
-0.005705
0.010205
-0.003361
-0.006603
0.006305
0.001811
-0.002463
0.003188
0.003970
-0.005067
-0.004665
0.000267
0.002456
0.001683
0.000652
0.000921
-0.000977
0.013135
0.006351
-0.001275
-0.007215
0.012672
0.007631
0.011551
0.009288
0.006703
0.010979
0.010388
0.003872
-0.010430
0.007648
0.006894
-0.008442
-0.010546
-0.003396
-0.008519
-0.009785
0.012862
-0.005315
-0.011311
-0.006562
-0.000060
0.012089
-0.007645
0.001612
0.011693
-0.010659
0.000240
-0.009201
0.012471
-0.004730
0.003486
0.006084
-0.001399
0.005032
0.004527
0.008827
-0.005281
-0.002138
-0.008107
-0.007438
0.011092
0.002046
0.011584
0.001470
0.001015
0.011463
-0.004038
0.011424
-0.011091
-0.010890
0.000257
-0.000114
0.011721
0.002183
0.002751
0.000011
-0.000905
0.012657
0.012079
0.003721
-0.010662
0.012432
-0.000174
-0.010101
0.002893
-0.004880
0.000501
0.012792
0.003598
0.011114
0.001497
-0.009472
0.003097
-0.010665
0.013784
0.012656
0.000419
0.003808
-0.008760
-0.011834
0.003946
0.013050
-0.007776
-0.002912
0.010387
0.000716
-0.007579
0.003584
0.002866
-0.005076
-0.008357
-0.008355
0.007846
0.011328
0.003874
0.009845
-0.009636
0.010590
0.011009
0.001482
-0.004535
-0.002102
0.013139
0.004066
-0.002609
-0.000163
-0.009214
0.005834
-0.004964
-0.010907
-0.001749
0.001664
0.001092
-0.000028
0.002011
-0.005976
-0.011135
-0.004485
0.002365
0.005662
0.011289
-0.003737
0.012804
-0.003692
-0.007469
-0.009644
0.012565
-0.010174
0.006666
0.008579
-0.008019
-0.006979
0.005409
0.011445
-0.005155
-0.007232
-0.005967
0.011042
0.011045
-0.000441
0.002741
0.001358
0.004650
0.012365
0.007234
0.002413
-0.000262
0.011976
0.000589
0.009470
0.003727
0.011741
0.006121
0.004844
-0.007013
-0.002536
0.003650
0.011042
0.000666
0.007317
0.006393
-0.001068
0.011539
-0.010498
-0.000235
-0.004458
-0.001183
-0.011613
0.000259
0.002116
0.003773
0.002530
0.003222
0.000116
-0.010607
-0.010721
-0.000286
0.013494
-0.003457
0.001334
0.004237
-0.009114
0.000060
0.003348
0.010590
0.012674
0.010831
-0.007034
-0.010508
0.001801
0.012974
0.008004
0.007183
0.012560
0.004127
0.003150
0.000822
0.012540
-0.004094
-0.004716
0.003578
-0.002136
0.011061
-0.010660
-0.010274
0.011152
0.000445
0.004355
-0.007053
0.006079
0.003113
0.003647
0.010007
-0.001452
-0.004055
0.008407
0.007040
0.010953
-0.009278
-0.000449
0.000435
0.003195
0.012015
0.010456
0.001764
0.011270
-0.002324
-0.005445
-0.003805
-0.009986
0.005604
0.012775
0.009479
-0.010392
-0.005429
0.004153
0.007232
-0.010454
0.003647
0.002049
0.004128
0.000720
-0.004213
-0.006747
0.013034
-0.000710
0.005991
0.010643
-0.006740
0.012286
-0.000074
0.010371
0.010580
-0.008684
-0.007772
-0.009865
0.003287
0.001448
0.006412
-0.011249
-0.006341
0.010787
-0.010300
0.002372
-0.004290
0.004415
0.001480
0.010572
-0.000988
0.004797
0.000837
0.004717
0.013501
0.011176
0.000968
0.007731
0.011375
-0.000685
-0.009421
-0.003143
0.008672
0.004352
0.000345
-0.004794
0.005876
0.005117
-0.003488
-0.002835
0.000860
0.010910
-0.005081
0.006581
-0.008050
0.010545
-0.001551
0.010122
-0.006936
0.001238
0.002639
0.003832
0.011001
0.002000
0.005716
0.012042
0.002012
0.000219
0.000211
-0.000367
-0.000001
-0.000318
-0.010880
0.012458
0.012353
0.000272
0.002408
0.002963
-0.007449
0.003404
-0.008754
0.003569
-0.000337
0.010759
0.012519
-0.010632
0.001110
-0.004401
-0.010476
0.010134
0.004514
0.005105
0.012438
-0.001970
-0.008907
0.006541
-0.010495
-0.009784
-0.010573
0.004437
-0.011383
0.006234
0.004398
0.004338
0.000456
0.005673
-0.006917
-0.004922
0.003318
-0.003699
-0.001227
-0.008369
0.010598
-0.008207
0.009407
-0.000960
-0.009292
0.010252
0.006955
0.010881
0.001136
-0.009703
-0.003273
0.004888
0.012630
-0.004798
0.011974
0.000839
0.010316
0.012242
0.001796
0.001272
-0.010388
0.001235
0.000028
-0.010661
0.004861
-0.001384
-0.000069
0.002415
0.005399
0.004822
0.009913
-0.010567
0.004189
-0.006016
0.004204
0.002627
0.001216
0.009161
0.012851
0.003900
-0.008920
-0.003543
0.001561
-0.005780
-0.003005
0.011030
0.010065
-0.000363
0.002822
0.007987
0.005719
0.007910
0.003422
0.003943
-0.004547
-0.004592
-0.007545
0.011662
0.005547
0.004667
-0.001898
-0.003215
-0.004052
0.005578
-0.001019
-0.006728
-0.005781
0.006708
0.003010
0.010453
-0.010308
-0.010357
-0.002093
0.002111
0.010499
-0.009058
-0.008832
0.009900
0.005460
-0.006336
-0.000014
-0.006541
-0.003850
-0.000452
0.001615
0.011692
0.002906
0.000320
0.005481
-0.004138
0.007369
0.001853
0.009219
0.003687
0.006388
0.002332
-0.000041
0.012337
-0.000466
0.002809
0.000056
0.003276
0.013095
0.012500
0.003947
-0.000328
0.010030
0.012331
-0.010731
0.012174
0.000868
0.006689
-0.010953
-0.007902
0.000934
0.002144
0.004603
0.003987
0.012278
0.004460
0.010519
0.003028
-0.010136
-0.000247
-0.010406
-0.004687
-0.010278
0.010658
-0.007088
-0.009557
-0.010073
0.010103
0.004316
0.004751
0.001015
0.005147
0.009630
-0.004484
0.003568
-0.007923
0.007751
0.010649
0.006811
0.007447
-0.008736
0.002731
0.011668
0.009944
0.005155
0.011327
-0.005192
-0.001339
-0.006477
-0.000506
0.001325
-0.003433
0.002072
0.012120
-0.007075
-0.002531
-0.002125
-0.000331
0.006090
-0.009928
-0.000344
-0.007798
-0.010146
0.009523
0.002448
0.003158
0.002692
0.006368
0.012752
0.004220
0.009073
0.009833
0.000208
-0.003544
0.010580
-0.005333
-0.008535
0.012476
-0.002893
-0.001386
-0.003690
0.005046
0.002408
0.003093
-0.009469
0.004404
0.009715
0.001270
0.003666
-0.010081
0.000694
0.005380
0.005848
0.009831
-0.004327
-0.003848
0.010422
-0.004494
0.010106
0.009721
-0.000830
0.003677
0.006500
0.005065
0.008983
0.004056
0.000400
0.005028
-0.000012
0.002526
-0.002587
-0.006509
-0.006543
0.012549
0.009809
0.001548
-0.007410
-0.000474
0.009927
-0.006179
0.007321
0.010445
0.001873
0.011372
0.004455
-0.000184
0.002693
0.001651
0.008488
0.004679
-0.000562
0.002224
-0.010786
-0.010430
-0.008560
-0.000254
0.000256
0.002659
0.005348
0.003145
0.000615
0.012473
-0.000512
0.009513
0.011922
0.003959
0.001584
-0.007393
-0.000255
-0.009248
-0.009958
0.006203
0.004445
-0.009843
0.012162
0.012143
0.012144
0.012110
-0.010360
0.003565
-0.010219
0.000692
0.004833
-0.010273
-0.010265
0.010985
0.004424
-0.006905
0.009633
0.000310
-0.008147
0.006296
0.007168
-0.007723
0.009308
0.004822
0.011366
-0.002174
0.002060
0.001354
-0.009370
0.010695
0.011067
0.009011
0.012354
0.011970
-0.002698
-0.001863
-0.006726
-0.000653
0.008680
0.003195
-0.001050
0.011848
0.000492
0.001547
-0.009872
0.002730
0.004215
-0.009739
-0.004571
-0.004218
-0.000507
0.005542
0.004550
0.004112
0.004963
-0.010137
0.000407
0.001984
0.010172
0.009242
0.007781
-0.008963
0.009684
-0.005580
0.011736
-0.010302
-0.004151
0.001603
0.008026
0.010674
0.002976
0.005336
0.008848
-0.003240
0.012078
-0.004088
0.011022
-0.000038
0.011815
0.006118
0.010323
0.003604
0.003470
-0.007471
0.005136
-0.006297
0.001817
-0.005999
-0.005306
0.002339
-0.006609
-0.010138
0.009281
0.009917
-0.006436
-0.003236
0.007167
0.005223
0.012342
0.006744
0.003843
0.002203
0.001044
0.012112
0.009528
0.004005
-0.000652
-0.000028
0.000762
0.001445
0.004829
-0.008468
0.004062
0.002074
-0.008941
0.002918
0.010147
0.002413
0.003350
-0.000652
-0.000373
0.011633
-0.003396
-0.010619
0.002572
0.004719
0.005871
0.003005
-0.002238
0.012297
-0.000503
-0.005738
-0.009578
-0.000143
-0.004730
0.000188
0.006111
-0.009951
0.004462
-0.010067
-0.010283
0.012042
0.011981
0.009085
-0.007958
0.000762
0.000377
0.004854
0.001830
0.005226
-0.003842
0.008975
0.009756
-0.010135
-0.006124
0.004719
0.000545
-0.007625
0.009680
-0.002062
-0.008391
0.008894
0.000047
0.009621
-0.009479
0.007179
0.007460
0.010004
0.011334
0.002045
0.001945
-0.004728
-0.009649
0.010774
-0.003878
0.008506