# vtk DataFile Version 2.0
Test
ASCII
DATASET POLYDATA
POINTS 4677 float
0.000000 0.000000 0.000000
0.080000 0.000000 0.000000
0.080000 0.160000 0.000000
0.000000 0.160000 0.000000
0.036000 0.073072 0.000000
0.044000 0.086928 0.000000
0.024500 0.065566 0.000000
0.055500 0.093560 0.000000
0.001000 0.050000 0.000000
0.079000 0.110000 0.000000
0.002963 0.000000 0.000000
0.005926 0.000000 0.000000
0.008889 0.000000 0.000000
0.011852 0.000000 0.000000
0.014815 0.000000 0.000000
0.017778 0.000000 0.000000
0.020741 0.000000 0.000000
0.023704 0.000000 0.000000
0.026667 0.000000 0.000000
0.029630 0.000000 0.000000
0.032593 0.000000 0.000000
0.035556 0.000000 0.000000
0.038519 0.000000 0.000000
0.041481 0.000000 0.000000
0.044444 0.000000 0.000000
0.047407 0.000000 0.000000
0.050370 0.000000 0.000000
0.053333 0.000000 0.000000
0.056296 0.000000 0.000000
0.059259 0.000000 0.000000
0.062222 0.000000 0.000000
0.065185 0.000000 0.000000
0.068148 0.000000 0.000000
0.071111 0.000000 0.000000
0.074074 0.000000 0.000000
0.077037 0.000000 0.000000
0.080000 0.002963 0.000000
0.080000 0.005926 0.000000
0.080000 0.008889 0.000000
0.080000 0.011852 0.000000
0.080000 0.014815 0.000000
0.080000 0.017778 0.000000
0.080000 0.020741 0.000000
0.080000 0.023704 0.000000
0.080000 0.026667 0.000000
0.080000 0.029630 0.000000
0.080000 0.032593 0.000000
0.080000 0.035556 0.000000
0.080000 0.038519 0.000000
0.080000 0.041481 0.000000
0.080000 0.044444 0.000000
0.080000 0.047407 0.000000
0.080000 0.050370 0.000000
0.080000 0.053333 0.000000
0.080000 0.056296 0.000000
0.080000 0.059259 0.000000
0.080000 0.062222 0.000000
0.080000 0.065185 0.000000
0.080000 0.068148 0.000000
0.080000 0.071111 0.000000
0.080000 0.074074 0.000000
0.080000 0.077037 0.000000
0.080000 0.080000 0.000000
0.080000 0.082963 0.000000
0.080000 0.085926 0.000000
0.080000 0.088889 0.000000
0.080000 0.091852 0.000000
0.080000 0.094815 0.000000
0.080000 0.097778 0.000000
0.080000 0.100741 0.000000
0.080000 0.103704 0.000000
0.080000 0.106667 0.000000
0.080000 0.109630 0.000000
0.080000 0.112593 0.000000
0.080000 0.115556 0.000000
0.080000 0.118519 0.000000
0.080000 0.121481 0.000000
0.080000 0.124444 0.000000
0.080000 0.127407 0.000000
0.080000 0.130370 0.000000
0.080000 0.133333 0.000000
0.080000 0.136296 0.000000
0.080000 0.139259 0.000000
0.080000 0.142222 0.000000
0.080000 0.145185 0.000000
0.080000 0.148148 0.000000
0.080000 0.151111 0.000000
0.080000 0.154074 0.000000
0.080000 0.157037 0.000000
0.077037 0.160000 0.000000
0.074074 0.160000 0.000000
0.071111 0.160000 0.000000
0.068148 0.160000 0.000000
0.065185 0.160000 0.000000
0.062222 0.160000 0.000000
0.059259 0.160000 0.000000
0.056296 0.160000 0.000000
0.053333 0.160000 0.000000
0.050370 0.160000 0.000000
0.047407 0.160000 0.000000
0.044444 0.160000 0.000000
0.041481 0.160000 0.000000
0.038519 0.160000 0.000000
0.035556 0.160000 0.000000
0.032593 0.160000 0.000000
0.029630 0.160000 0.000000
0.026667 0.160000 0.000000
0.023704 0.160000 0.000000
0.020741 0.160000 0.000000
0.017778 0.160000 0.000000
0.014815 0.160000 0.000000
0.011852 0.160000 0.000000
0.008889 0.160000 0.000000
0.005926 0.160000 0.000000
0.002963 0.160000 0.000000
0.000000 0.157037 0.000000
0.000000 0.154074 0.000000
0.000000 0.151111 0.000000
0.000000 0.148148 0.000000
0.000000 0.145185 0.000000
0.000000 0.142222 0.000000
0.000000 0.139259 0.000000
0.000000 0.136296 0.000000
0.000000 0.133333 0.000000
0.000000 0.130370 0.000000
0.000000 0.127407 0.000000
0.000000 0.124444 0.000000
0.000000 0.121481 0.000000
0.000000 0.118519 0.000000
0.000000 0.115556 0.000000
0.000000 0.112593 0.000000
0.000000 0.109630 0.000000
0.000000 0.106667 0.000000
0.000000 0.103704 0.000000
0.000000 0.100741 0.000000
0.000000 0.097778 0.000000
0.000000 0.094815 0.000000
0.000000 0.091852 0.000000
0.000000 0.088889 0.000000
0.000000 0.085926 0.000000
0.000000 0.082963 0.000000
0.000000 0.080000 0.000000
0.000000 0.077037 0.000000
0.000000 0.074074 0.000000
0.000000 0.071111 0.000000
0.000000 0.068148 0.000000
0.000000 0.065185 0.000000
0.000000 0.062222 0.000000
0.000000 0.059259 0.000000
0.000000 0.056296 0.000000
0.000000 0.053333 0.000000
0.000000 0.050370 0.000000
0.000000 0.047407 0.000000
0.000000 0.044444 0.000000
0.000000 0.041481 0.000000
0.000000 0.038519 0.000000
0.000000 0.035556 0.000000
0.000000 0.032593 0.000000
0.000000 0.029630 0.000000
0.000000 0.026667 0.000000
0.000000 0.023704 0.000000
0.000000 0.020741 0.000000
0.000000 0.017778 0.000000
0.000000 0.014815 0.000000
0.000000 0.011852 0.000000
0.000000 0.008889 0.000000
0.000000 0.005926 0.000000
0.000000 0.002963 0.000000
0.035500 0.072746 0.000000
0.035000 0.072419 0.000000
0.034500 0.072093 0.000000
0.034000 0.071767 0.000000
0.033500 0.071440 0.000000
0.033000 0.071114 0.000000
0.032500 0.070788 0.000000
0.032000 0.070461 0.000000
0.031500 0.070135 0.000000
0.031000 0.069809 0.000000
0.030500 0.069482 0.000000
0.030000 0.069156 0.000000
0.029500 0.068829 0.000000
0.029000 0.068503 0.000000
0.028500 0.068177 0.000000
0.028000 0.067850 0.000000
0.027500 0.067524 0.000000
0.027000 0.067198 0.000000
0.026500 0.066871 0.000000
0.026000 0.066545 0.000000
0.025500 0.066219 0.000000
0.025000 0.065892 0.000000
0.044500 0.087216 0.000000
0.045000 0.087505 0.000000
0.045500 0.087793 0.000000
0.046000 0.088081 0.000000
0.046500 0.088370 0.000000
0.047000 0.088658 0.000000
0.047500 0.088946 0.000000
0.048000 0.089235 0.000000
0.048500 0.089523 0.000000
0.049000 0.089811 0.000000
0.049500 0.090100 0.000000
0.050000 0.090388 0.000000
0.050500 0.090677 0.000000
0.051000 0.090965 0.000000
0.051500 0.091253 0.000000
0.052000 0.091542 0.000000
0.052500 0.091830 0.000000
0.053000 0.092118 0.000000
0.053500 0.092407 0.000000
0.054000 0.092695 0.000000
0.054500 0.092983 0.000000
0.055000 0.093272 0.000000
0.043704 0.086415 0.000000
0.043407 0.085902 0.000000
0.043111 0.085388 0.000000
0.042815 0.084875 0.000000
0.042519 0.084362 0.000000
0.042222 0.083849 0.000000
0.041926 0.083336 0.000000
0.041630 0.082823 0.000000
0.041333 0.082309 0.000000
0.041037 0.081796 0.000000
0.040741 0.081283 0.000000
0.040444 0.080770 0.000000
0.040148 0.080257 0.000000
0.039852 0.079743 0.000000
0.039556 0.079230 0.000000
0.039259 0.078717 0.000000
0.038963 0.078204 0.000000
0.038667 0.077691 0.000000
0.038370 0.077177 0.000000
0.038074 0.076664 0.000000
0.037778 0.076151 0.000000
0.037481 0.075638 0.000000
0.037185 0.075125 0.000000
0.036889 0.074612 0.000000
0.036593 0.074098 0.000000
0.036296 0.073585 0.000000
0.024000 0.065235 0.000000
0.023500 0.064904 0.000000
0.023000 0.064572 0.000000
0.022500 0.064241 0.000000
0.022000 0.063910 0.000000
0.021500 0.063579 0.000000
0.021000 0.063248 0.000000
0.020500 0.062916 0.000000
0.020000 0.062585 0.000000
0.019500 0.062254 0.000000
0.019000 0.061923 0.000000
0.018500 0.061592 0.000000
0.018000 0.061261 0.000000
0.017500 0.060929 0.000000
0.017000 0.060598 0.000000
0.016500 0.060267 0.000000
0.016000 0.059936 0.000000
0.015500 0.059605 0.000000
0.015000 0.059273 0.000000
0.014500 0.058942 0.000000
0.014000 0.058611 0.000000
0.013500 0.058280 0.000000
0.013000 0.057949 0.000000
0.012500 0.057617 0.000000
0.012000 0.057286 0.000000
0.011500 0.056955 0.000000
0.011000 0.056624 0.000000
0.010500 0.056293 0.000000
0.010000 0.055961 0.000000
0.009500 0.055630 0.000000
0.009000 0.055299 0.000000
0.008500 0.054968 0.000000
0.008000 0.054637 0.000000
0.007500 0.054305 0.000000
0.007000 0.053974 0.000000
0.006500 0.053643 0.000000
0.006000 0.053312 0.000000
0.005500 0.052981 0.000000
0.005000 0.052650 0.000000
0.004500 0.052318 0.000000
0.004000 0.051987 0.000000
0.003500 0.051656 0.000000
0.003000 0.051325 0.000000
0.002500 0.050994 0.000000
0.002000 0.050662 0.000000
0.001500 0.050331 0.000000
0.055990 0.093902 0.000000
0.056479 0.094245 0.000000
0.056969 0.094587 0.000000
0.057458 0.094930 0.000000
0.057948 0.095272 0.000000
0.058437 0.095615 0.000000
0.058927 0.095957 0.000000
0.059417 0.096300 0.000000
0.059906 0.096642 0.000000
0.060396 0.096985 0.000000
0.060885 0.097327 0.000000
0.061375 0.097670 0.000000
0.061865 0.098012 0.000000
0.062354 0.098355 0.000000
0.062844 0.098697 0.000000
0.063333 0.099040 0.000000
0.063823 0.099382 0.000000
0.064312 0.099725 0.000000
0.064802 0.100067 0.000000
0.065292 0.100410 0.000000
0.065781 0.100752 0.000000
0.066271 0.101095 0.000000
0.066760 0.101437 0.000000
0.067250 0.101780 0.000000
0.067740 0.102122 0.000000
0.068229 0.102465 0.000000
0.068719 0.102807 0.000000
0.069208 0.103150 0.000000
0.069698 0.103492 0.000000
0.070187 0.103835 0.000000
0.070677 0.104177 0.000000
0.071167 0.104520 0.000000
0.071656 0.104862 0.000000
0.072146 0.105205 0.000000
0.072635 0.105547 0.000000
0.073125 0.105890 0.000000
0.073615 0.106232 0.000000
0.074104 0.106575 0.000000
0.074594 0.106917 0.000000
0.075083 0.107260 0.000000
0.075573 0.107602 0.000000
0.076062 0.107945 0.000000
0.076552 0.108287 0.000000
0.077042 0.108630 0.000000
0.077531 0.108972 0.000000
0.078021 0.109315 0.000000
0.078510 0.109658 0.000000
0.043942 0.087469 0.000000
0.035556 0.157037 0.000000
0.044420 0.002920 0.000000
0.077037 0.038519 0.000000
0.002963 0.121481 0.000000
0.077037 0.059259 0.000000
0.002963 0.109630 0.000000
0.002923 0.098139 0.000000
0.077153 0.126913 0.000000
0.002808 0.032596 0.000000
0.077140 0.071061 0.000000
0.002963 0.085926 0.000000
0.002963 0.136296 0.000000
0.077041 0.023701 0.000000
0.056296 0.157037 0.000000
0.032593 0.002963 0.000000
0.077037 0.080000 0.000000
0.002813 0.077135 0.000000
0.077037 0.142222 0.000000
0.017778 0.157037 0.000000
0.062222 0.002963 0.000000
0.076992 0.088722 0.000000
0.002945 0.020743 0.000000
0.017777 0.002962 0.000000
0.002801 0.068434 0.000000
0.002959 0.011851 0.000000
0.065186 0.157038 0.000000
0.002963 0.148148 0.000000
0.077037 0.011852 0.000000
0.076887 0.094740 0.000000
0.077092 0.115875 0.000000
0.002677 0.044265 0.000000
0.077038 0.148148 0.000000
0.002985 0.062165 0.000000
0.077037 0.047407 0.000000
0.011852 0.002963 0.000000
[...]
POINT_DATA 4677
SCALARS UX float 1
LOOKUP_TABLE default
-0.000000
0.000000
0.059031
0.037267
0.000338
0.002288
-0.007405
0.047530
-0.013444
0.056256
-0.000000
-0.000000
-0.000000
-0.000000
-0.000000
-0.000000
-0.000000
-0.000000
-0.000000
-0.000000
-0.000000
-0.000000
-0.000000
0.000000
0.000000
0.000000
0.000000
0.000000
0.000000
0.000000
0.000000
0.000000
0.000000
0.000000
0.000000
-0.000000
0.002151
0.003291
0.004137
0.004863
0.005517
0.006122
0.006688
0.007219
0.007736
0.008243
0.008756
0.009247
0.009723
0.010232
0.010468
0.010971
0.011433
0.011993
0.012576
0.013317
0.018013
0.025026
0.036894
0.047331
0.056445
0.057935
0.057949
0.057365
0.056809
0.056915
0.056955
0.056442
0.056516
0.056703
0.056612
0.056438
0.056495
0.056693
0.056722
0.056665
0.056773
0.056620
0.056793
0.056787
0.056585
0.056785
0.057002
0.056984
0.057236
0.057702
0.057949
0.058074
0.058462
0.058095
0.056980
0.056145
0.055477
0.054454
0.053520
0.052819
0.051877
0.051183
0.050286
0.049627
0.048762
0.048205
0.047540
0.046788
0.045890
0.045304
0.044365
0.043669
0.042843
0.042108
0.041389
0.040564
0.039938
0.038949
0.038212
0.037154
0.036782
0.036520
0.036414
0.035749
0.034381
0.031377
0.025627
0.017611
0.005585
-0.005979
-0.006533
-0.009969
-0.009396
-0.008492
-0.008879
-0.008935
-0.008674
-0.008520
-0.008315
-0.008430
-0.008808
-0.009417
-0.010322
-0.010994
-0.011554
-0.012148
-0.012688
-0.012976
-0.013218
-0.013476
-0.013458
-0.013543
-0.013799
-0.013904
-0.013868
-0.013682
-0.013505
-0.013244
-0.012924
-0.012609
-0.012139
-0.011785
-0.011334
-0.010791
-0.010407
-0.009887
-0.009528
-0.008918
-0.008255
-0.007135
-0.005708
-0.003950
-0.000123
-0.000184
-0.000123
-0.000373
-0.000568
-0.001631
-0.001502
-0.001836
-0.002045
-0.002342
-0.002662
-0.003102
-0.003524
-0.003986
-0.004414
-0.004892
-0.005425
-0.005916
-0.006311
-0.006858
-0.007132
-0.007431
0.002783
0.001850
0.001973
0.002385
0.003689
0.005122
0.006502
0.008126
0.008985
0.015294
0.018076
0.023198
0.029427
0.035605
0.034227
0.040602
0.040993
0.044599
0.045024
0.046847
0.047076
0.046763
0.001629
0.001590
0.001599
0.001584
0.001559
0.001529
0.001479
0.001470
0.001429
0.001372
0.001337
0.001308
0.001239
0.001197
0.001118
0.001069
0.001024
0.000972
0.000915
0.000886
0.000828
0.000827
0.000796
0.000806
0.000841
0.000678
-0.007689
-0.007959
-0.007967
-0.008031
-0.008133
-0.008242
-0.008356
-0.008479
-0.008615
-0.008744
-0.008867
-0.009026
-0.009157
-0.009323
-0.009469
-0.009576
-0.009723
-0.009904
-0.010032
-0.010176
-0.010319
-0.010463
-0.010569
-0.010685
-0.010859
-0.010970
-0.011121
-0.011258
-0.011397
-0.011526
-0.011672
-0.011800
-0.011915
-0.012037
-0.012146
-0.012259
-0.012386
-0.012505
-0.012615
-0.012736
-0.012840
-0.012952
-0.013052
-0.013164
-0.013268
-0.013371
0.048268
0.048707
0.048815
0.049005
0.049210
0.049422
0.049608
0.049728
0.049905
0.049984
0.050084
0.050179
0.050392
0.050567
0.050693
0.050817
0.050964
0.051139
0.051302
0.051472
0.051635
0.051786
0.051937
0.052096
0.052244
0.052427
0.052608
0.052798
0.052983
0.053125
0.053294
0.053438
0.053624
0.053795
0.053978
0.054151
0.054327
0.054477
0.054641
0.054805
0.054965
0.055139
0.055306
0.055487
0.055640
0.055846
0.056039
0.002497
0.046421
0.000021
0.009073
-0.006565
0.011735
-0.007568
-0.007342
0.055622
-0.011081
0.039099
-0.009894
0.032063
0.006500
0.051525
-0.000202
0.056543
-0.011833
0.056148
0.041826
0.000310
0.055642
-0.009370
-0.000578
-0.012692
-0.007520
0.054078
0.037382
0.004077
0.055284
0.055657
-0.012566
0.056770
-0.012903
0.010192
-0.001047
0.055798
0.038666
0.000727
-0.012939
0.055547
0.055660
0.047881
0.049362
-0.000298
0.011421
0.007546
0.043398
0.000212
0.057632
0.055640
-0.012177
0.001657
0.055653
-0.011860
-0.013325
-0.012159
0.055514
-0.008334
-0.010649
0.016978
0.050654
0.010933
-0.007266
0.055543
-0.007132
-0.010651
-0.010283
0.009438
0.044984
0.055785
0.000126
-0.000031
0.001007
0.008053
-0.000100
-0.008809
-0.000451
0.052530
0.049941
0.036591
0.005380
-0.006240
-0.001302
-0.004207
0.040287
0.000467
0.057014
-0.001969
-0.002109
0.037498
0.002291
0.037836
0.001037
0.055744
0.001926
-0.013122
-0.013346
0.055812
0.002258
-0.000109
0.008370
0.043658
-0.010148
-0.009408
0.054891
0.049686
0.022742
0.054744
-0.000809
-0.011665
-0.008048
-0.012626
0.053717
0.054598
0.051164
-0.006632
-0.002212
-0.003709
0.055897
0.038459
0.001547
0.055859
-0.012944
0.055500
-0.012831
0.055702
-0.012418
-0.013427
0.055730
0.055623
-0.011524
0.056079
-0.011250
0.056071
-0.008988
-0.007805
0.027565
0.013668
-0.007304
-0.007346
0.011334
-0.007561
0.010506
0.055686
0.009705
-0.007305
0.047231
-0.001401
0.008559
0.045687
0.000077
0.048469
-0.009870
0.044108
0.000167
-0.000151
0.056011
0.022287
0.007028
0.050890
-0.000250
0.042588
0.000256
-0.008216
-0.000438
0.053197
0.035959
0.005960
-0.000662
0.037119
0.004762
0.055116
0.056361
0.041033
0.000373
0.056510
0.057258
0.039643
0.000587
0.037487
0.003286
-0.013261
0.055964
0.055576
-0.012578
-0.013076
0.003115
0.001656
0.055778
-0.013344
0.054792
-0.011558
0.001840
0.001814
0.001902
0.010974
-0.006869
-0.006322
0.053961
-0.011174
0.045471
0.042323
-0.011644
0.000326
0.006307
0.054647
0.037226
0.040760
0.054506
0.003989
0.038331
0.000794
0.055485
-0.012938
0.054641
0.010121
-0.006140
0.009583
-0.005023
0.048183
0.031126
0.052947
-0.001113
-0.001639
0.038363
0.054712
0.056084
-0.013083
0.055757
-0.012354
0.055127
0.053620
-0.012171
0.054489
-0.010410
-0.012907
0.054656
0.054285
-0.006431
0.055120
-0.010882
-0.011122
-0.011978
0.019640
0.032938
-0.008205
0.007922
-0.000342
-0.000224
-0.009683
0.009134
0.008805
0.000135
0.000022
-0.008813
0.054702
0.049072
0.043909
0.050546
0.004638
0.013321
0.055000
0.055399
0.054592
0.046850
-0.009169
-0.000514
0.052166
-0.007464
-0.000819
0.005195
0.000523
-0.008623
-0.005404
-0.002840
0.056238
0.039316
0.001172
0.002463
-0.010464
0.001719
0.002960
0.055326
-0.012908
-0.013215
0.056262
-0.013349
0.055690
0.001521
0.003763
0.001723
0.001826
0.002716
-0.000349
0.008204
0.022444
-0.007298
0.048072
0.011220
-0.009707
0.053627
0.052530
-0.000939
0.050208
-0.008406
-0.007357
-0.003008
-0.012672
0.055151
0.053858
0.002115
-0.011342
0.007490
-0.000017
0.053919
-0.001532
0.051766
0.054678
0.030071
0.039194
0.001861
0.001772
-0.011946
0.054416
-0.010377
-0.012359
-0.006473
-0.011013
-0.007362
-0.006659
0.006889
0.013419
0.054643
0.010176
-0.006405
0.009904
0.047600
-0.005554
0.054721
0.054214
-0.007912
0.047444
-0.000421
0.044686
0.035218
0.009406
0.000232
0.043076
-0.008911
0.048621
0.007210
-0.001237
0.000421
0.041529
0.055140
0.005759
-0.006769
-0.004425
0.004615
0.055049
0.053807
-0.001480
0.037847
0.000640
0.046084
0.040069
0.038405
0.055440
0.003285
0.000962
-0.011002
0.053992
-0.011599
0.001458
-0.012951
0.002016
0.003669
0.055184
-0.012524
0.055194
0.001478
0.004217
0.055185
-0.013045
-0.012758
0.055405
0.055392
0.001997
0.002136
0.002028
-0.012843
-0.011850
0.002406
0.002467
0.009622
-0.005287
-0.006540
-0.009613
0.053214
0.047720
-0.010613
-0.010992
0.043745
0.053591
0.038200
0.000483
0.005564
-0.008159
-0.011965
0.041441
-0.005124
0.000988
0.003864
0.008957
-0.000496
0.054750
0.046536
-0.002968
0.003277
0.054390
-0.006663
-0.002355
0.002572
0.039965
0.032712
-0.012147
0.053966
0.053702
-0.011278
-0.006118
-0.008610
-0.006569
-0.000692
0.012681
0.006654
-0.005413
0.008434
0.047300
-0.000193
-0.010648
0.053766
0.053839
-0.009933
0.053534
0.050652
0.049579
0.008841
0.054089
-0.009377
0.035093
0.042885
-0.001283
0.007705
-0.007927
0.051056
-0.001897
0.016454
0.000635
0.045098
0.052634
0.054269
0.021749
0.005004
-0.005887
0.054782
-0.003635
0.000165
0.038647
0.039273
0.001206
0.001478
-0.010633
0.003519
0.001996
0.002177
-0.012675
-0.012708
0.055081
0.054966
0.001276
-0.012679
0.001554
0.054749
-0.012116
0.004596
0.054421
0.052902
0.053786
0.045139
-0.011480
-0.012454
0.001678
0.002085
0.054953
0.001477
0.004325
0.007364
0.010645
0.009920
-0.000286
0.047531
-0.010498
0.052956
0.053377
0.052185
0.049883
0.034685
0.043300
-0.001453
-0.011746
0.053263
0.000641
0.005004
0.054494
0.051468
0.039124
0.039924
0.002447
-0.008535
0.006054
0.053059
0.013269
-0.002745
0.001337
-0.007283
-0.004946
0.002035
0.002013
0.053846
-0.005853
0.009284
0.001779
-0.009144
-0.000791
-0.005490
0.008661
0.010556
0.046792
0.053202
-0.005396
0.002423
-0.004533
-0.000034
0.000235
0.052911
0.049063
-0.009934
0.053225
0.052902
-0.011278
0.032807
0.000323
0.051495
-0.007113
-0.007691
-0.010392
0.020257
0.006503
-0.006024
0.045842
0.053991
0.042140
0.004440
-0.001728
0.053515
0.000797
0.037474
0.048287
-0.003258
0.053487
0.044337
0.003249
0.039014
0.040706
0.006125
0.054603
-0.012488
0.003143
-0.011743
-0.012153
0.004518
0.002316
0.001216
0.001202
0.001332
0.001795
-0.010963
0.001858
0.005394
0.007436
-0.005273
-0.010996
-0.009355
-0.012503
0.053039
0.009241
0.055020
0.054428
0.049541
-0.012422
-0.012790
0.054582
0.002005
0.054817
-0.012691
-0.010051
0.054951
0.054770
0.002628
0.002764
0.002895
-0.004366
-0.005705
0.052512
0.046771
0.019818
-0.009811
-0.000316
-0.008954
0.005265
-0.010513
0.053328
-0.001904
0.050835
-0.007588
0.052034
0.048935
-0.011768
-0.011502
0.041969
0.054397
0.009007
0.052166
0.007964
0.045479
0.002103
0.052400
-0.003015
-0.006470
0.043995
0.000414
-0.003697
0.053222
0.003671
-0.010673
0.001083
0.038553
0.002605
0.039704
0.001141
0.006139
-0.004837
-0.009002
-0.007695
-0.009805
0.008569
0.009643
-0.004968
-0.010141
0.005738
0.050311
-0.000553
-0.011568
0.013538
0.002471
0.000186
-0.001036
-0.012365
0.029970
0.040215
0.053021
0.054761
0.048101
-0.002250
-0.005221
0.052316
0.024551
0.007764
0.050796
0.000849
0.036851
0.004230
0.053721
0.006861
0.039394
0.054283
0.046104
0.042736
0.001640
-0.004068
0.054542
0.040613
-0.012193
0.052678
0.054525
0.054184
0.001359
0.008734
-0.012109
-0.012546
0.052800
-0.011323
0.003922
0.052430
0.002859
0.002168
0.001237
0.001871
0.002127
0.001427
-0.005177
0.005449
0.054731
0.002173
0.001791
0.054792
-0.012692
-0.009426
-0.012577
0.054423
0.002471
-0.012348
0.052256
-0.008945
0.001985
0.002465
0.051547
0.003255
0.008257
0.010178
-0.004846
-0.009552
0.041555
-0.010776
0.000507
0.048461
0.043713
0.037011
0.003604
0.001388
0.002499
0.001082
-0.011838
-0.012172
-0.004633
-0.007745
0.004672
-0.008788
0.009355
0.050430
0.007073
0.022294
-0.002999
0.052133
0.052339
0.040091
0.042318
0.001077
-0.004440
-0.004481
0.005628
-0.004072
-0.008531
-0.000836
-0.001415
0.054772
0.008315
-0.011200
-0.010788
0.049020
0.001843
-0.012659
0.045831
0.002840
-0.009954
0.009228
-0.011317
0.044812
0.007965
-0.007183
-0.008324
0.052234
-0.002286
0.030085
0.052594
-0.012254
-0.011891
-0.006229
0.051892
0.051444
-0.004448
-0.010176
0.047346
-0.005898
0.038101
0.049760
0.006643
0.005545
0.040399
0.052911
0.002101
0.003178
0.054489
0.041266
0.039264
0.001369
-0.000749
0.052094
0.052862
-0.000050
0.003640
0.054014
0.053243
0.007624
-0.012380
0.052679
0.052293
0.054329
-0.012167
0.002642
0.001252
0.001049
0.001206
-0.009351
0.010376
0.001595
-0.011444
0.002430
0.054338
0.053688
-0.012534
0.004669
0.008876
0.051594
-0.004277
0.002914
-0.000591
0.054180
0.002059
0.054095
0.003540
-0.012086
0.050906
0.017939
0.005934
0.003509
-0.009425
-0.005293
-0.000631
-0.009213
0.004573
0.049276
-0.010544
0.052217
0.051275
-0.002975
0.038407
-0.007012
-0.003716
0.046208
-0.011545
-0.011514
0.054056
-0.012020
0.051538
-0.001077
-0.008064
0.001313
0.002885
0.044395
-0.004489
0.051916
-0.006717
0.003115
0.040786
0.007956
0.001049
-0.011087
0.053930
0.051206
-0.012009
0.005370
0.004110
-0.009195
-0.010352
0.014228
0.049194
0.002842
0.007038
0.047403
0.044995
-0.010079
-0.006365
-0.004390
0.010479
-0.001107
0.032300
0.030103
0.008690
0.000208
0.002617
0.051280
-0.005732
0.000795
0.041796
-0.003300
0.047856
0.001695
0.042979
-0.012424
-0.005062
0.006026
-0.008285
0.052796
-0.004096
-0.004292
-0.001866
0.039008
0.041006
0.039771
0.052074
-0.010014
0.034792
0.052545
0.008342
-0.004683
0.053480
0.051469
0.003184
0.003215
0.001237
0.006995
0.002217
0.000978
0.001728
0.053090
0.009492
0.053568
0.001124
0.054027
0.053879
0.003354
0.001849
0.054483
-0.000359
-0.010821
0.001245
0.012028
-0.012197
-0.012949
-0.004589
0.054998
0.003387
-0.002731
0.004374
-0.012007
-0.012372
-0.008351
0.052021
0.002456
-0.011994
0.004667
-0.011111
0.054218
0.054096
0.002835
0.001080
0.003351
0.003813
0.007899
-0.002951
-0.004679
0.030092
-0.000942
0.029215
0.052640
0.052342
-0.011229
0.047496
-0.010505
0.044024
0.039380
0.042686
0.006322
0.008901
-0.011665
-0.006177
0.049704
-0.001332
-0.007212
0.007185
0.005080
0.007925
0.003378
0.003545
-0.003954
-0.005040
0.000287
0.002527
0.041408
0.040395
0.000973
0.037331
0.054267
0.007445
-0.001352
-0.007901
0.053804
0.014667
0.051178
0.044743
0.007737
0.051509
0.050524
0.004101
-0.011741
0.047096
0.008635
-0.008478
-0.011217
-0.003736
-0.009514
-0.010271
0.053970
-0.004252
-0.012097
-0.005985
-0.000053
0.051728
-0.007421
0.001661
0.051387
-0.011842
0.039805
-0.009520
0.053513
-0.003527
0.004008
0.045539
0.035157
0.005602
0.004860
0.048286
-0.004176
-0.002280
-0.008961
-0.008183
0.050853
0.002084
0.051407
0.002064
0.001676
0.052091
-0.003079
0.052024
-0.012226
-0.011964
0.001108
0.000836
0.051479
0.006758
0.009652
0.001365
-0.001010
0.053805
0.053042
0.012078
-0.011962
0.053506
0.000916
-0.010680
0.003567
-0.003994
0.002177
0.053949
0.003241
0.051233
0.004006
-0.010662
0.003777
-0.011895
0.055126
0.053731
0.001215
0.021418
-0.009825
-0.012915
0.006954
0.054199
-0.008573
0.001735
0.050173
0.002523
-0.008361
0.004577
0.003671
-0.004152
-0.009340
-0.008399
0.047265
0.051991
0.004045
0.049536
-0.010843
0.051028
0.050490
0.002077
-0.003387
-0.002250
0.054224
0.004847
0.001444
0.001175
-0.009538
0.045262
-0.003798
-0.011829
0.017366
0.004677
0.001161
-0.000039
0.002079
-0.006516
-0.012197
-0.003371
0.003139
0.006527
0.050870
-0.002597
0.053902
-0.003962
-0.007021
-0.010093
0.053710
-0.011392
0.008100
0.036377
-0.008862
-0.006552
0.044860
0.051078
-0.005578
-0.007962
-0.005269
0.051586
0.051299
-0.000489
0.002846
0.040905
0.005248
0.053460
0.011147
0.041966
0.038700
0.052877
0.000626
0.048951
0.043432
0.052637
0.007256
0.005264
-0.007693
-0.002728
0.003782
0.050795
0.039906
0.046763
0.007610
0.035258
0.051275
-0.011743
0.000789
-0.003459
-0.001265
-0.012588
0.001072
0.006555
0.004614
0.009045
0.012294
0.001591
-0.011818
-0.011788
0.000891
0.054717
-0.002059
0.003684
0.017166
-0.010223
0.000942
0.004181
0.050545
0.053728
0.050343
-0.007694
-0.011647
0.002472
0.054107
0.021561
0.008154
0.053661
0.004769
0.004025
0.001499
0.053568
-0.004456
-0.003571
0.005390
0.006332
0.050653
-0.011349
-0.010888
0.051805
0.001207
0.018999
-0.007770
0.007244
0.004117
0.004831
0.049825
0.015338
-0.002853
0.036322
0.011784
0.051509
-0.010462
-0.000516
0.039635
0.003264
0.052870
0.049836
0.002491
0.051966
-0.002505
-0.005866
-0.002562
-0.010559
0.006666
0.053859
0.048346
-0.011023
-0.004664
0.006067
0.046682
-0.011648
0.043182
0.041534
0.004288
0.000768
-0.003011
-0.007376
0.054057
0.034826
0.006942
0.050025
-0.006163
0.053309
0.001357
0.050609
0.050814
-0.008860
-0.007446
-0.011068
0.003429
0.004135
0.045781
-0.012178
-0.005732
0.051246
-0.011492
0.002477
-0.003126
0.043917
0.001562
0.050688
-0.001072
0.005460
0.001503
0.013361
0.054735
0.050658
0.040401
0.021487
0.052150
0.037588
-0.009810
-0.003395
0.048058
0.004753
0.000365
-0.003717
0.007028
0.044565
-0.002121
-0.000520
0.040206
0.050495
-0.005492
0.008379
-0.008947
0.050187
-0.001648
0.049548
-0.007620
0.001885
0.003471
0.005129
0.050618
0.002699
0.006686
0.053059
0.006262
0.001034
0.001015
0.000743
0.000858
0.000673
-0.011910
0.053528
0.053379
0.001863
0.008835
0.012811
-0.008221
0.004426
-0.009799
0.017125
0.000917
0.050295
0.053515
-0.011430
0.003275
-0.004799
-0.011650
0.050287
0.020549
0.024643
0.053558
0.004633
-0.009146
0.007576
-0.011608
-0.010278
-0.011628
0.005167
-0.012468
0.007506
0.005594
0.009464
0.002157
0.006821
-0.007626
-0.003981
0.004374
-0.002432
0.013800
-0.009356
0.050891
-0.008192
0.048645
-0.001006
-0.009659
0.050475
0.046382
0.051428
0.040387
-0.010192
-0.001781
0.044270
0.053645
-0.005191
0.052963
0.000887
0.049761
0.053296
0.001898
0.040637
-0.011118
0.001883
0.038982
-0.011543
0.010260
-0.001486
0.000759
0.003244
0.006408
0.005466
0.049252
-0.011564
0.006295
-0.005324
0.025738
0.002817
0.003651
0.046421
0.053881
0.043319
-0.009949
-0.003829
0.040974
-0.005069
-0.003252
0.051659
0.050032
0.037709
0.042376
0.028998
0.006832
0.047307
0.003538
0.004272
-0.003426
-0.003585
-0.008349
0.052453
0.045021
0.013758
-0.002043
-0.001574
-0.002889
0.006659
0.028108
-0.007397
-0.006167
0.009251
0.003026
0.049841
-0.011363
-0.011497
0.001945
0.002907
0.050054
-0.009357
-0.009058
0.049563
0.006508
-0.006929
-0.000025
-0.007166
-0.002587
0.000601
0.002210
0.052594
0.003882
0.001110
0.029705
-0.004496
0.015038
0.005726
0.048645
0.004965
0.007663
0.008680
0.000800
0.053273
0.000720
0.012288
0.001563
0.016791
0.054247
0.053535
0.005487
0.000997
0.050100
0.053419
-0.011720
0.053198
0.002871
0.046155
-0.011945
-0.008794
0.001624
0.002897
0.022459
0.021212
0.053279
0.007603
0.050863
0.003230
-0.010745
0.000694
-0.011485
-0.005084
-0.011417
0.050074
-0.006630
-0.010662
-0.011211
0.050221
0.009125
0.005798
0.003306
0.006213
0.049627
-0.003526
0.004787
-0.008828
0.027672
0.051077
0.011551
0.046838
-0.008961
0.002803
0.052603
0.049989
0.044522
0.052026
-0.005606
0.005722
-0.005872
0.000502
0.002004
-0.002067
0.002220
0.052966
-0.007814
-0.000346
-0.002309
0.000548
0.007462
-0.010493
0.034446
-0.007550
-0.010859
0.049237
0.003319
0.004190
0.002794
0.045846
0.053680
0.006274
0.048454
0.049223
0.001811
-0.002144
0.051015
-0.004552
-0.009531
0.053441
-0.001223
-0.001503
-0.004004
0.005904
0.041899
0.042535
-0.009889
0.043741
0.049108
0.001359
0.023749
-0.011163
0.039876
0.006404
0.006934
0.049226
-0.003271
-0.002653
0.050736
-0.004879
0.050330
0.049594
0.024645
0.004023
0.009881
0.016543
0.046682
0.004565
0.000427
0.006104
0.037704
0.002545
-0.002808
-0.007139
-0.007199
0.053536
0.049205
0.040879
-0.006982
-0.000635
0.049489
-0.006703
0.018429
0.049942
0.002622
0.052181
0.032430
0.000641
0.003619
0.005085
0.047899
0.008415
0.000562
0.008226
-0.011719
-0.011409
-0.008710
0.000644
0.001041
0.012122
0.037288
0.017049
0.002458
0.053448
0.000739
0.047584
0.052944
0.005530
0.002191
-0.008191
0.001134
-0.010358
-0.010499
0.045547
0.007484
-0.010976
0.053180
0.053067
0.053152
0.053104
-0.011189
0.003789
-0.011217
0.001389
0.023670
-0.011366
-0.011430
0.051602
0.005426
-0.007630
0.049763
0.037758
-0.009089
0.009432
0.020310
-0.007654
0.048545
0.044135
0.052180
-0.002392
0.002071
0.040693
-0.009787
0.051255
0.051741
0.048382
0.053251
0.052917
-0.000994
0.001583
-0.006168
0.020843
0.044751
0.003490
-0.001138
0.052743
0.000479
0.001700
-0.010936
0.003697
0.006099
-0.010246
-0.004970
-0.004586
0.000438
0.006758
0.005449
0.004847
0.006023
-0.010937
0.039356
0.041407
0.050488
0.048630
0.047205
-0.009257
0.049559
-0.004809
0.052535
-0.011202
-0.003041
0.002307
0.037542
0.051211
0.003195
0.006356
0.047188
-0.001930
0.052967
-0.002955
0.051722
-0.000061
0.052813
0.008354
0.050727
0.043006
0.021975
-0.008293
0.014095
-0.006916
0.041105
-0.006530
-0.005754
0.002350
-0.007289
-0.011263
0.048839
0.049399
-0.007087
-0.003519
0.015382
0.006198
0.053259
0.046134
0.005239
0.003088
0.001728
0.052980
0.049365
0.005561
0.000417
0.000778
0.001465
0.004536
0.038008
-0.008613
0.031029
0.007515
-0.009909
0.003958
0.050388
0.002605
0.004462
0.000537
0.000487
0.052559
-0.001999
-0.011561
0.012012
0.009890
0.045245
0.017040
0.000013
0.053193
0.000801
-0.006208
-0.010612
0.001312
-0.003866
0.000975
0.040360
-0.010623
0.007301
-0.011038
-0.011221
0.053021
0.052935
0.048457
-0.007803
0.002806
0.002100
0.019131
0.002597
0.023885
-0.002529
0.044302
0.049195
-0.011169
-0.006741
0.005722
0.002385
-0.008473
0.049930
-0.000057
-0.008539
0.047590
0.000040
0.049594
-0.009941
0.046500
0.030906
0.050358
0.052175
0.041388
0.002768
-0.005138
-0.010639
0.051406
-0.004227
0.047862
0.007357
0.001870
-0.010985
0.014231
0.022233
0.005584
0.044929
0.002060
0.048706
-0.002831
0.041554
0.003990
0.006077
0.042640