# vtk DataFile Version 2.0
Test
ASCII
DATASET POLYDATA
POINTS 4677 float
0.000000 0.000000 0.000000
0.080000 0.000000 0.000000
0.080000 0.160000 0.000000
0.000000 0.160000 0.000000
0.036000 0.073072 0.000000
0.044000 0.086928 0.000000
0.024500 0.065566 0.000000
0.055500 0.093560 0.000000
0.001000 0.050000 0.000000
0.079000 0.110000 0.000000
0.002963 0.000000 0.000000
0.005926 0.000000 0.000000
0.008889 0.000000 0.000000
0.011852 0.000000 0.000000
0.014815 0.000000 0.000000
0.017778 0.000000 0.000000
0.020741 0.000000 0.000000
0.023704 0.000000 0.000000
0.026667 0.000000 0.000000
0.029630 0.000000 0.000000
0.032593 0.000000 0.000000
0.035556 0.000000 0.000000
0.038519 0.000000 0.000000
0.041481 0.000000 0.000000
0.044444 0.000000 0.000000
0.047407 0.000000 0.000000
0.050370 0.000000 0.000000
0.053333 0.000000 0.000000
0.056296 0.000000 0.000000
0.059259 0.000000 0.000000
0.062222 0.000000 0.000000
0.065185 0.000000 0.000000
0.068148 0.000000 0.000000
0.071111 0.000000 0.000000
0.074074 0.000000 0.000000
0.077037 0.000000 0.000000
0.080000 0.002963 0.000000
0.080000 0.005926 0.000000
0.080000 0.008889 0.000000
0.080000 0.011852 0.000000
0.080000 0.014815 0.000000
0.080000 0.017778 0.000000
0.080000 0.020741 0.000000
0.080000 0.023704 0.000000
0.080000 0.026667 0.000000
0.080000 0.029630 0.000000
0.080000 0.032593 0.000000
0.080000 0.035556 0.000000
0.080000 0.038519 0.000000
0.080000 0.041481 0.000000
0.080000 0.044444 0.000000
0.080000 0.047407 0.000000
0.080000 0.050370 0.000000
0.080000 0.053333 0.000000
0.080000 0.056296 0.000000
0.080000 0.059259 0.000000
0.080000 0.062222 0.000000
0.080000 0.065185 0.000000
0.080000 0.068148 0.000000
0.080000 0.071111 0.000000
0.080000 0.074074 0.000000
0.080000 0.077037 0.000000
0.080000 0.080000 0.000000
0.080000 0.082963 0.000000
0.080000 0.085926 0.000000
0.080000 0.088889 0.000000
0.080000 0.091852 0.000000
0.080000 0.094815 0.000000
0.080000 0.097778 0.000000
0.080000 0.100741 0.000000
0.080000 0.103704 0.000000
0.080000 0.106667 0.000000
0.080000 0.109630 0.000000
0.080000 0.112593 0.000000
0.080000 0.115556 0.000000
0.080000 0.118519 0.000000
0.080000 0.121481 0.000000
0.080000 0.124444 0.000000
0.080000 0.127407 0.000000
0.080000 0.130370 0.000000
0.080000 0.133333 0.000000
0.080000 0.136296 0.000000
0.080000 0.139259 0.000000
0.080000 0.142222 0.000000
0.080000 0.145185 0.000000
0.080000 0.148148 0.000000
0.080000 0.151111 0.000000
0.080000 0.154074 0.000000
0.080000 0.157037 0.000000
0.077037 0.160000 0.000000
0.074074 0.160000 0.000000
0.071111 0.160000 0.000000
0.068148 0.160000 0.000000
0.065185 0.160000 0.000000
0.062222 0.160000 0.000000
0.059259 0.160000 0.000000
0.056296 0.160000 0.000000
0.053333 0.160000 0.000000
0.050370 0.160000 0.000000
0.047407 0.160000 0.000000
0.044444 0.160000 0.000000
0.041481 0.160000 0.000000
0.038519 0.160000 0.000000
0.035556 0.160000 0.000000
0.032593 0.160000 0.000000
0.029630 0.160000 0.000000
0.026667 0.160000 0.000000
0.023704 0.160000 0.000000
0.020741 0.160000 0.000000
0.017778 0.160000 0.000000
0.014815 0.160000 0.000000
0.011852 0.160000 0.000000
0.008889 0.160000 0.000000
0.005926 0.160000 0.000000
0.002963 0.160000 0.000000
0.000000 0.157037 0.000000
0.000000 0.154074 0.000000
0.000000 0.151111 0.000000
0.000000 0.148148 0.000000
0.000000 0.145185 0.000000
0.000000 0.142222 0.000000
0.000000 0.139259 0.000000
0.000000 0.136296 0.000000
0.000000 0.133333 0.000000
0.000000 0.130370 0.000000
0.000000 0.127407 0.000000
0.000000 0.124444 0.000000
0.000000 0.121481 0.000000
0.000000 0.118519 0.000000
0.000000 0.115556 0.000000
0.000000 0.112593 0.000000
0.000000 0.109630 0.000000
0.000000 0.106667 0.000000
0.000000 0.103704 0.000000
0.000000 0.100741 0.000000
0.000000 0.097778 0.000000
0.000000 0.094815 0.000000
0.000000 0.091852 0.000000
0.000000 0.088889 0.000000
0.000000 0.085926 0.000000
0.000000 0.082963 0.000000
0.000000 0.080000 0.000000
0.000000 0.077037 0.000000
0.000000 0.074074 0.000000
0.000000 0.071111 0.000000
0.000000 0.068148 0.000000
0.000000 0.065185 0.000000
0.000000 0.062222 0.000000
0.000000 0.059259 0.000000
0.000000 0.056296 0.000000
0.000000 0.053333 0.000000
0.000000 0.050370 0.000000
0.000000 0.047407 0.000000
0.000000 0.044444 0.000000
0.000000 0.041481 0.000000
0.000000 0.038519 0.000000
0.000000 0.035556 0.000000
0.000000 0.032593 0.000000
0.000000 0.029630 0.000000
0.000000 0.026667 0.000000
0.000000 0.023704 0.000000
0.000000 0.020741 0.000000
0.000000 0.017778 0.000000
0.000000 0.014815 0.000000
0.000000 0.011852 0.000000
0.000000 0.008889 0.000000
0.000000 0.005926 0.000000
0.000000 0.002963 0.000000
0.035500 0.072746 0.000000
0.035000 0.072419 0.000000
0.034500 0.072093 0.000000
0.034000 0.071767 0.000000
0.033500 0.071440 0.000000
0.033000 0.071114 0.000000
0.032500 0.070788 0.000000
0.032000 0.070461 0.000000
0.031500 0.070135 0.000000
0.031000 0.069809 0.000000
0.030500 0.069482 0.000000
0.030000 0.069156 0.000000
0.029500 0.068829 0.000000
0.029000 0.068503 0.000000
0.028500 0.068177 0.000000
0.028000 0.067850 0.000000
0.027500 0.067524 0.000000
0.027000 0.067198 0.000000
0.026500 0.066871 0.000000
0.026000 0.066545 0.000000
0.025500 0.066219 0.000000
0.025000 0.065892 0.000000
0.044500 0.087216 0.000000
0.045000 0.087505 0.000000
0.045500 0.087793 0.000000
0.046000 0.088081 0.000000
0.046500 0.088370 0.000000
0.047000 0.088658 0.000000
0.047500 0.088946 0.000000
0.048000 0.089235 0.000000
0.048500 0.089523 0.000000
0.049000 0.089811 0.000000
0.049500 0.090100 0.000000
0.050000 0.090388 0.000000
0.050500 0.090677 0.000000
0.051000 0.090965 0.000000
0.051500 0.091253 0.000000
0.052000 0.091542 0.000000
0.052500 0.091830 0.000000
0.053000 0.092118 0.000000
0.053500 0.092407 0.000000
0.054000 0.092695 0.000000
0.054500 0.092983 0.000000
0.055000 0.093272 0.000000
0.043704 0.086415 0.000000
0.043407 0.085902 0.000000
0.043111 0.085388 0.000000
0.042815 0.084875 0.000000
0.042519 0.084362 0.000000
0.042222 0.083849 0.000000
0.041926 0.083336 0.000000
0.041630 0.082823 0.000000
0.041333 0.082309 0.000000
0.041037 0.081796 0.000000
0.040741 0.081283 0.000000
0.040444 0.080770 0.000000
0.040148 0.080257 0.000000
0.039852 0.079743 0.000000
0.039556 0.079230 0.000000
0.039259 0.078717 0.000000
0.038963 0.078204 0.000000
0.038667 0.077691 0.000000
0.038370 0.077177 0.000000
0.038074 0.076664 0.000000
0.037778 0.076151 0.000000
0.037481 0.075638 0.000000
0.037185 0.075125 0.000000
0.036889 0.074612 0.000000
0.036593 0.074098 0.000000
0.036296 0.073585 0.000000
0.024000 0.065235 0.000000
0.023500 0.064904 0.000000
0.023000 0.064572 0.000000
0.022500 0.064241 0.000000
0.022000 0.063910 0.000000
0.021500 0.063579 0.000000
0.021000 0.063248 0.000000
0.020500 0.062916 0.000000
0.020000 0.062585 0.000000
0.019500 0.062254 0.000000
0.019000 0.061923 0.000000
0.018500 0.061592 0.000000
0.018000 0.061261 0.000000
0.017500 0.060929 0.000000
0.017000 0.060598 0.000000
0.016500 0.060267 0.000000
0.016000 0.059936 0.000000
0.015500 0.059605 0.000000
0.015000 0.059273 0.000000
0.014500 0.058942 0.000000
0.014000 0.058611 0.000000
0.013500 0.058280 0.000000
0.013000 0.057949 0.000000
0.012500 0.057617 0.000000
0.012000 0.057286 0.000000
0.011500 0.056955 0.000000
0.011000 0.056624 0.000000
0.010500 0.056293 0.000000
0.010000 0.055961 0.000000
0.009500 0.055630 0.000000
0.009000 0.055299 0.000000
0.008500 0.054968 0.000000
0.008000 0.054637 0.000000
0.007500 0.054305 0.000000
0.007000 0.053974 0.000000
0.006500 0.053643 0.000000
0.006000 0.053312 0.000000
0.005500 0.052981 0.000000
0.005000 0.052650 0.000000
0.004500 0.052318 0.000000
0.004000 0.051987 0.000000
0.003500 0.051656 0.000000
0.003000 0.051325 0.000000
0.002500 0.050994 0.000000
0.002000 0.050662 0.000000
0.001500 0.050331 0.000000
0.055990 0.093902 0.000000
0.056479 0.094245 0.000000
0.056969 0.094587 0.000000
0.057458 0.094930 0.000000
0.057948 0.095272 0.000000
0.058437 0.095615 0.000000
0.058927 0.095957 0.000000
0.059417 0.096300 0.000000
0.059906 0.096642 0.000000
0.060396 0.096985 0.000000
0.060885 0.097327 0.000000
0.061375 0.097670 0.000000
0.061865 0.098012 0.000000
0.062354 0.098355 0.000000
0.062844 0.098697 0.000000
0.063333 0.099040 0.000000
0.063823 0.099382 0.000000
0.064312 0.099725 0.000000
0.064802 0.100067 0.000000
0.065292 0.100410 0.000000
0.065781 0.100752 0.000000
0.066271 0.101095 0.000000
0.066760 0.101437 0.000000
0.067250 0.101780 0.000000
0.067740 0.102122 0.000000
0.068229 0.102465 0.000000
0.068719 0.102807 0.000000
0.069208 0.103150 0.000000
0.069698 0.103492 0.000000
0.070187 0.103835 0.000000
0.070677 0.104177 0.000000
0.071167 0.104520 0.000000
0.071656 0.104862 0.000000
0.072146 0.105205 0.000000
0.072635 0.105547 0.000000
0.073125 0.105890 0.000000
0.073615 0.106232 0.000000
0.074104 0.106575 0.000000
0.074594 0.106917 0.000000
0.075083 0.107260 0.000000
0.075573 0.107602 0.000000
0.076062 0.107945 0.000000
0.076552 0.108287 0.000000
0.077042 0.108630 0.000000
0.077531 0.108972 0.000000
0.078021 0.109315 0.000000
0.078510 0.109658 0.000000
0.043942 0.087469 0.000000
0.035556 0.157037 0.000000
0.044420 0.002920 0.000000
0.077037 0.038519 0.000000
0.002963 0.121481 0.000000
0.077037 0.059259 0.000000
0.002963 0.109630 0.000000
0.002923 0.098139 0.000000
0.077153 0.126913 0.000000
0.002808 0.032596 0.000000
0.077140 0.071061 0.000000
0.002963 0.085926 0.000000
0.002963 0.136296 0.000000
0.077041 0.023701 0.000000
0.056296 0.157037 0.000000
0.032593 0.002963 0.000000
0.077037 0.080000 0.000000
0.002813 0.077135 0.000000
0.077037 0.142222 0.000000
0.017778 0.157037 0.000000
0.062222 0.002963 0.000000
0.076992 0.088722 0.000000
0.002945 0.020743 0.000000
0.017777 0.002962 0.000000
0.002801 0.068434 0.000000
0.002959 0.011851 0.000000
0.065186 0.157038 0.000000
0.002963 0.148148 0.000000
0.077037 0.011852 0.000000
0.076887 0.094740 0.000000
0.077092 0.115875 0.000000
0.002677 0.044265 0.000000
0.077038 0.148148 0.000000
0.002985 0.062165 0.000000
0.077037 0.047407 0.000000
0.011852 0.002963 0.000000
[...]
POINT_DATA 4677
SCALARS UX float 1
LOOKUP_TABLE default
-0.000000
0.000000
0.051325
0.023284
0.004433
0.008306
-0.007661
0.032516
-0.016237
0.044961
-0.000000
-0.000000
-0.000000
-0.000000
-0.000000
-0.000000
-0.000000
-0.000000
-0.000000
-0.000000
-0.000000
-0.000000
-0.000000
0.000000
0.000000
0.000000
0.000000
0.000000
0.000000
0.000000
0.000000
0.000000
0.000000
0.000000
0.000000
-0.000000
0.002721
0.004166
0.005247
0.006205
0.007094
0.007957
0.008800
0.009640
0.010499
0.011388
0.012299
0.013256
0.014263
0.015330
0.016363
0.017522
0.018263
0.019061
0.020412
0.022696
0.025527
0.028873
0.031653
0.033304
0.036572
0.039108
0.040260
0.041124
0.041722
0.041867
0.042542
0.042647
0.043247
0.044022
0.044430
0.044705
0.045178
0.045759
0.046105
0.046292
0.046671
0.046658
0.047040
0.047216
0.047172
0.047890
0.048132
0.048164
0.048583
0.049272
0.049710
0.049988
0.050548
0.050224
0.048874
0.047885
0.047121
0.045837
0.044662
0.043811
0.042594
0.041721
0.040538
0.039688
0.038530
0.037820
0.036929
0.035905
0.034696
0.034018
0.032820
0.032054
0.030801
0.029646
0.028651
0.027540
0.026714
0.025405
0.024465
0.022897
0.022558
0.022110
0.021243
0.020462
0.018914
0.016764
0.014586
0.010428
0.006832
0.003355
0.001481
-0.000275
-0.001861
-0.003017
-0.003426
-0.004270
-0.004713
-0.004724
-0.005216
-0.005867
-0.006835
-0.008191
-0.009755
-0.010987
-0.012134
-0.013228
-0.014167
-0.014734
-0.015125
-0.015523
-0.015598
-0.015841
-0.016331
-0.016561
-0.016613
-0.016485
-0.016385
-0.016055
-0.015617
-0.015190
-0.014494
-0.013969
-0.013328
-0.012490
-0.011963
-0.011205
-0.010762
-0.009950
-0.008832
-0.007530
-0.005687
-0.003218
0.003786
0.003366
0.003228
0.002941
0.002716
0.001150
0.001138
0.000652
0.000335
-0.000111
-0.000588
-0.001185
-0.001778
-0.002483
-0.003167
-0.003900
-0.004706
-0.005455
-0.006083
-0.006855
-0.007256
-0.007669
0.007449
0.007955
0.009916
0.011596
0.012749
0.013531
0.015391
0.013586
0.014596
0.016196
0.017106
0.019245
0.020544
0.022210
0.022739
0.024954
0.024709
0.025819
0.028072
0.029211
0.030351
0.032064
0.007728
0.007290
0.007113
0.006951
0.006816
0.006633
0.006461
0.006303
0.006337
0.006182
0.006124
0.006086
0.005952
0.005879
0.005729
0.005644
0.005541
0.005427
0.005307
0.005240
0.005113
0.005050
0.004998
0.004943
0.004904
0.004824
-0.008048
-0.008474
-0.008520
-0.008655
-0.008806
-0.008967
-0.009135
-0.009318
-0.009521
-0.009710
-0.009883
-0.010108
-0.010295
-0.010534
-0.010743
-0.010886
-0.011090
-0.011342
-0.011518
-0.011723
-0.011917
-0.012112
-0.012251
-0.012448
-0.012675
-0.012857
-0.013059
-0.013248
-0.013437
-0.013611
-0.013811
-0.013984
-0.014143
-0.014305
-0.014451
-0.014604
-0.014775
-0.014933
-0.015078
-0.015238
-0.015375
-0.015524
-0.015657
-0.015808
-0.015946
-0.016081
0.032375
0.032635
0.033012
0.033271
0.033538
0.033888
0.034180
0.034379
0.034657
0.034980
0.035153
0.035435
0.035793
0.036103
0.036338
0.036567
0.036832
0.037137
0.037421
0.037711
0.037988
0.038250
0.038506
0.038769
0.039013
0.039307
0.039592
0.039886
0.040174
0.040400
0.040664
0.040893
0.041172
0.041424
0.041702
0.041956
0.042213
0.042440
0.042682
0.042923
0.043155
0.043401
0.043645
0.043886
0.044156
0.044419
0.044675
0.008306
0.035316
0.000089
0.013471
0.001611
0.020450
-0.002732
-0.004572
0.045563
-0.012981
0.030523
-0.009604
0.016683
0.008655
0.042065
-0.000138
0.038226
-0.013107
0.047155
0.029228
0.000356
0.040563
-0.010529
-0.000435
-0.014520
-0.007930
0.045292
0.022653
0.005128
0.041511
0.044854
-0.015145
0.048170
-0.015052
0.016787
-0.000638
0.047393
0.024925
0.000834
-0.015258
0.042716
0.046041
0.037301
0.039274
-0.000257
0.009520
0.010437
0.031475
0.000261
0.049601
0.045031
-0.014622
0.008053
0.045270
-0.014162
-0.015838
-0.013755
0.039289
-0.006852
-0.011013
0.024721
0.033627
0.017819
-0.003399
0.043272
-0.001358
-0.012360
-0.011840
0.014534
0.033459
0.046508
0.000184
0.000043
0.006402
0.011395
-0.000022
-0.009763
-0.000390
0.043372
0.040011
0.021008
0.006941
-0.006220
-0.000637
-0.002803
0.026985
0.000528
0.048604
-0.001186
-0.000654
0.023409
0.002789
0.023884
0.001208
0.044396
0.007451
-0.015790
-0.016003
0.044125
0.007850
0.000041
0.012697
0.030532
-0.011681
-0.009300
0.044168
0.039611
0.013228
0.045169
-0.000583
-0.013921
-0.008770
-0.014819
0.036691
0.042050
0.041531
-0.006754
-0.001822
-0.002760
0.047139
0.024565
0.001795
0.044819
-0.015654
0.042268
-0.014802
0.041132
-0.014240
-0.016153
0.040205
0.045376
-0.013654
0.044633
-0.012069
0.036679
-0.007996
-0.005598
0.027751
0.022463
-0.004029
-0.003235
0.018595
-0.002211
0.017329
0.045849
0.015720
-0.000061
0.036431
0.004107
0.012401
0.034317
0.000139
0.038068
-0.011253
0.032364
0.000220
-0.000079
0.046866
0.013066
0.009533
0.041273
-0.000190
0.030280
0.000302
-0.008967
-0.000340
0.044185
0.019174
0.007800
-0.000377
0.022017
0.006060
0.046589
0.047543
0.028089
0.000421
0.048235
0.049038
0.026178
0.000669
0.023134
0.004078
-0.015970
0.044666
0.044123
-0.014893
-0.015709
0.009260
0.007218
0.043854
-0.015941
0.043922
-0.013753
0.008145
0.008131
0.008631
0.019364
-0.004826
-0.001850
0.042808
-0.013232
0.033923
0.029920
-0.013196
0.000447
0.008567
0.039762
0.021271
0.027518
0.041087
0.005015
0.023191
0.000923
0.044096
-0.015546
0.044209
0.017334
-0.000310
0.016357
0.001843
0.037634
0.015397
0.043800
-0.000973
-0.001430
0.024310
0.045983
0.047506
-0.015731
0.044495
-0.014861
0.044022
0.035879
-0.013993
0.043811
-0.011028
-0.015398
0.039359
0.037804
-0.002958
0.043067
-0.012755
-0.013124
-0.014364
0.024003
0.027141
-0.007073
0.011666
-0.000188
-0.000068
-0.011004
0.014855
0.013886
0.000268
0.000163
-0.008167
0.044672
0.038831
0.031955
0.040752
0.006637
0.009573
0.045628
0.046400
0.044745
0.035829
-0.010269
-0.000372
0.042834
-0.007932
-0.000729
0.006782
0.000636
-0.009509
-0.005110
-0.001900
0.047815
0.025579
0.001343
0.002959
-0.012146
0.007112
0.008981
0.043812
-0.015494
-0.015860
0.045070
-0.016145
0.044115
0.006966
0.009833
0.007672
0.007995
0.008325
-0.000123
0.012814
0.024068
-0.005930
0.037423
0.009347
-0.011086
0.043377
0.036075
-0.000714
0.040214
-0.009230
-0.007693
-0.002265
-0.015219
0.043699
0.043159
0.009095
-0.012683
0.010743
0.000198
0.044136
-0.001153
0.042212
0.045557
0.016796
0.025217
0.002184
0.007599
-0.013536
0.040314
-0.012053
-0.014335
-0.002264
-0.012112
-0.005661
-0.004006
0.009573
0.020652
0.043569
0.018545
-0.001103
0.016719
0.033047
0.000598
0.044496
0.039095
-0.007075
0.036632
-0.000277
0.032800
0.019247
0.015661
0.000359
0.030926
-0.009940
0.038124
0.010754
0.003980
0.000537
0.028824
0.045950
0.007663
-0.006939
-0.004144
0.005912
0.046250
0.044865
-0.001101
0.022663
0.000756
0.034773
0.026494
0.023837
0.046856
0.004046
0.001106
-0.012973
0.042987
-0.013862
0.006819
-0.015486
0.007418
0.010163
0.043326
-0.015084
0.043950
0.006797
0.011725
0.043551
-0.015628
-0.015369
0.043683
0.044097
0.008426
0.009517
0.008604
-0.015394
-0.014187
0.007915
0.009860
0.016851
-0.001648
-0.004829
-0.010980
0.041862
0.036861
-0.011679
-0.012997
0.031397
0.038796
0.022908
0.000690
0.007595
-0.008905
-0.013823
0.028275
0.000187
0.001197
0.004922
0.015581
-0.000262
0.043424
0.035339
0.002894
0.006363
0.045066
-0.006736
-0.001802
0.003109
0.026203
0.026600
-0.014577
0.042673
0.043324
-0.012677
-0.003724
-0.008218
-0.004701
-0.000468
0.018676
0.009542
-0.001188
0.013618
0.036389
0.000028
-0.012456
0.042870
0.043852
-0.010509
0.037989
0.034754
0.039406
0.015452
0.044523
-0.010595
0.018727
0.030363
-0.000951
0.011819
-0.008491
0.041320
-0.001584
0.021155
0.000837
0.033366
0.043302
0.045303
0.013050
0.006670
-0.005746
0.045802
-0.002804
0.000378
0.024151
0.024813
0.001431
0.001734
-0.012478
0.009645
0.008210
0.009366
-0.015203
-0.015219
0.043522
0.043240
0.006524
-0.015145
0.006809
0.042762
-0.013865
0.011497
0.043140
0.036977
0.043242
0.030420
-0.013697
-0.014970
0.007269
0.010432
0.043562
0.006651
0.012445
0.011677
0.016895
0.009181
0.000003
0.032552
-0.012303
0.042607
0.041948
0.036690
0.039718
0.019362
0.030696
-0.001086
-0.014034
0.043536
0.000947
0.006906
0.042994
0.041735
0.024177
0.025900
0.009224
-0.009442
0.008929
0.042022
0.021631
-0.002136
0.001662
-0.007698
-0.004303
0.002447
0.007966
0.042388
-0.003858
0.015991
0.007318
-0.010314
-0.000513
-0.002435
0.014582
0.017264
0.035624
0.042025
-0.000548
0.010547
0.001361
0.000261
0.004167
0.042708
0.038650
-0.010655
0.038065
0.042009
-0.012643
0.027914
0.000533
0.035577
-0.005881
-0.008222
-0.012108
0.012027
0.009887
-0.005850
0.034388
0.044852
0.029339
0.005784
-0.001311
0.044388
0.000998
0.021433
0.037596
-0.002722
0.043978
0.032270
0.004039
0.024453
0.027122
0.008545
0.042721
-0.014925
0.008831
-0.013445
-0.014571
0.010734
0.010283
0.006375
0.006251
0.006524
0.007046
-0.012965
0.007552
0.012809
0.013367
-0.002798
-0.012298
-0.009508
-0.014914
0.042553
0.016355
0.043376
0.038823
0.033785
-0.014900
-0.015299
0.042525
0.009545
0.043289
-0.015210
-0.011607
0.043006
0.042918
0.012116
0.008386
0.010000
0.000666
-0.003690
0.040985
0.035543
0.012387
-0.010718
0.000055
-0.010072
0.008002
-0.012339
0.041759
-0.001521
0.035299
-0.008133
0.041455
0.038396
-0.014046
-0.013198
0.028851
0.042741
0.015420
0.040939
0.013894
0.033842
0.008023
0.042495
0.002604
-0.006642
0.031752
0.000718
-0.003089
0.043901
0.004783
-0.011861
0.001394
0.023611
0.003221
0.025543
0.006176
0.013030
-0.001542
-0.009256
-0.006929
-0.011274
0.015267
0.015656
-0.002640
-0.011770
0.008183
0.034244
-0.000261
-0.013044
0.018868
0.006397
0.000486
-0.000706
-0.014724
0.015737
0.030229
0.043038
0.043091
0.037277
-0.001751
-0.004924
0.042782
0.024072
0.012741
0.040898
0.001156
0.021329
0.005661
0.044404
0.010738
0.024975
0.042236
0.034689
0.029828
0.001993
-0.003514
0.042382
0.026792
-0.014538
0.037626
0.042700
0.042713
0.006387
0.015117
-0.014489
-0.015030
0.042110
-0.013466
0.010119
0.037146
0.010528
0.008516
0.006366
0.010588
0.007466
0.006560
-0.002338
0.011695
0.042957
0.008246
0.009803
0.042727
-0.015138
-0.010733
-0.015046
0.042458
0.010417
-0.014743
0.040849
-0.010018
0.010253
0.007968
0.040014
0.010579
0.014292
0.017756
-0.002417
-0.010934
0.029840
-0.012701
0.000916
0.037669
0.031252
0.021632
0.004886
0.010505
0.008650
0.001511
-0.014124
-0.014535
-0.000967
-0.008371
0.006771
-0.009852
0.009166
0.040305
0.011815
0.023916
-0.002549
0.042410
0.042243
0.025851
0.029168
0.006047
-0.001412
0.000032
0.012369
0.001740
-0.009480
-0.000443
-0.001022
0.042559
0.014723
-0.012635
-0.012039
0.033701
0.007327
-0.015075
0.034268
0.009492
-0.011519
0.015138
-0.012882
0.032922
0.013362
-0.007572
-0.008006
0.041928
-0.001915
0.015567
0.042884
-0.014673
-0.013795
-0.004645
0.036893
0.036040
-0.004011
-0.011188
0.036390
-0.005769
0.023176
0.039461
0.010675
0.008783
0.026226
0.043405
0.002620
0.004039
0.042736
0.027839
0.024697
0.001812
0.004689
0.041051
0.038116
0.000333
0.009775
0.042384
0.041493
0.014769
-0.014804
0.041039
0.041634
0.042442
-0.014457
0.011072
0.006191
0.005951
0.006256
-0.009936
0.016550
0.006718
-0.013609
0.008805
0.042122
0.042085
-0.014933
0.011201
0.015612
0.039842
0.001152
0.010896
-0.000226
0.042190
0.010666
0.041924
0.010113
-0.014398
0.039043
0.012244
0.010062
0.011837
-0.010768
-0.003255
-0.000170
-0.009875
0.006821
0.033748
-0.011740
0.037476
0.040590
-0.002538
0.023462
-0.007351
0.001109
0.034686
-0.013342
-0.013686
0.042138
-0.014337
0.041279
0.005019
-0.007940
0.001883
0.009334
0.032264
-0.001981
0.042055
-0.005592
0.004116
0.026981
0.014093
0.005952
-0.012651
0.042164
0.035943
-0.014343
0.011897
0.005715
-0.010419
-0.012125
0.020261
0.038631
0.006742
0.012297
0.032259
0.033096
-0.011081
-0.006495
-0.003989
0.016398
-0.000715
0.027022
0.015828
0.014497
0.000602
0.003352
0.041376
-0.005647
0.001214
0.028345
0.002033
0.036873
0.002164
0.030190
-0.014779
-0.004743
0.009628
-0.009161
0.040942
-0.000210
-0.000970
-0.001438
0.024602
0.027303
0.025346
0.041242
-0.011624
0.018715
0.040737
0.014622
-0.001977
0.039099
0.040108
0.010120
0.008984
0.006225
0.013859
0.008146
0.005855
0.006968
0.041197
0.016269
0.041817
0.006044
0.041922
0.041658
0.011469
0.007051
0.042148
0.000099
-0.012205
0.006047
0.015662
-0.014582
-0.015417
-0.000523
0.042614
0.011032
0.003331
0.010760
-0.014246
-0.014430
-0.009211
0.040184
0.010540
-0.014269
0.010960
-0.013163
0.042426
0.041801
0.008504
0.005948
0.010009
0.011583
0.013597
0.002008
-0.002401
0.025880
-0.000422
0.015906
0.040621
0.037748
-0.013316
0.036304
-0.011774
0.031650
0.024896
0.029731
0.011105
0.016410
-0.013581
-0.006269
0.039252
0.004843
-0.007675
0.012723
0.011340
0.009624
0.004772
0.011365
-0.000790
-0.004793
0.000784
0.003374
0.027793
0.026410
0.001516
0.021455
0.041743
0.013312
-0.000889
-0.008626
0.041671
0.020572
0.041035
0.031093
0.013726
0.036542
0.034960
0.006101
-0.013984
0.035891
0.014816
-0.008720
-0.012898
-0.003232
-0.010912
-0.011349
0.041566
-0.001434
-0.014148
-0.004360
0.000423
0.041681
-0.006663
0.002259
0.040900
-0.014063
0.025561
-0.010284
0.039500
-0.000054
0.012177
0.033781
0.018734
0.009352
0.007655
0.037358
-0.001664
-0.001839
-0.010098
-0.009026
0.039175
0.002727
0.040231
0.007706
0.006793
0.040013
0.002849
0.040056
-0.014513
-0.014164
0.005918
0.005571
0.040580
0.013062
0.015590
0.006355
-0.000530
0.041904
0.041019
0.018249
-0.014268
0.041623
0.005732
-0.012131
0.010688
0.000454
0.007491
0.041909
0.011627
0.039215
0.010124
-0.012546
0.011050
-0.014168
0.042574
0.041403
0.005989
0.017557
-0.011368
-0.015307
0.012843
0.041819
-0.009560
0.007295
0.038152
0.008031
-0.009268
0.012272
0.010439
-0.001614
-0.010674
-0.008557
0.035949
0.039755
0.006590
0.033958
-0.012782
0.035912
0.039653
0.007694
0.000042
-0.001779
0.041498
0.013052
0.007194
0.006051
-0.010369
0.033327
-0.001101
-0.013875
0.012811
0.010739
0.001837
0.000537
0.002870
-0.006679
-0.014436
0.000568
0.009438
0.011674
0.040492
0.002922
0.041355
-0.003519
-0.006436
-0.011222
0.041662
-0.013507
0.013898
0.027467
-0.009963
-0.005344
0.032856
0.040893
-0.005493
-0.008729
-0.003271
0.039354
0.039141
0.000051
0.003897
0.027205
0.009066
0.041466
0.017974
0.028699
0.023477
0.038509
0.001144
0.038171
0.030807
0.040481
0.012996
0.008566
-0.008356
-0.002244
0.005859
0.039308
0.025999
0.035353
0.013311
0.018872
0.040221
-0.013973
0.005494
0.000959
-0.000749
-0.014844
0.005820
0.012601
0.012804
0.014334
0.016814
0.006662
-0.014036
-0.013938
0.005661
0.041939
0.003880
0.009520
0.018629
-0.011931
0.005724
0.011574
0.038410
0.041244
0.040063
-0.008322
-0.013805
0.008300
0.040365
0.023393
0.014433
0.041421
0.010521
0.011033
0.006357
0.041176
-0.004090
-0.000430
0.013700
0.009640
0.039698
-0.013143
-0.012470
0.037066
0.005934
0.017840
-0.008466
0.013010
0.010769
0.012175
0.037529
0.012719
0.000703
0.027987
0.018203
0.039109
-0.012267
0.000120
0.024991
0.005481
0.038714
0.038698
0.008183
0.037463
-0.001968
-0.005891
0.002000
-0.012045
0.012289
0.041102
0.032850
-0.012704
-0.002374
0.013691
0.035159
-0.013826
0.030426
0.028116
0.007090
0.001397
0.000779
-0.007939
0.041074
0.018923
0.012588
0.039495
-0.004969
0.041193
0.006267
0.035325
0.038371
-0.009349
-0.007103
-0.013082
0.005255
0.010104
0.034016
-0.014337
-0.003963
0.036362
-0.013633
0.003531
0.000058
0.031468
0.002289
0.038385
-0.000498
0.009674
0.006384
0.016189
0.041555
0.040033
0.026576
0.022839
0.039846
0.021394
-0.010805
-0.002957
0.037052
0.007948
0.000960
-0.000980
0.012665
0.032370
0.002998
0.005576
0.026047
0.039420
-0.005407
0.015202
-0.010098
0.038381
-0.001138
0.039010
-0.008262
0.007115
0.009890
0.012982
0.039283
0.008766
0.012066
0.040935
0.012187
0.005719
0.005649
0.005412
0.005517
0.005262
-0.014070
0.041172
0.040924
0.007009
0.013866
0.015923
-0.009074
0.011518
-0.011336
0.018395
0.005673
0.039875
0.040898
-0.013319
0.008919
-0.004515
-0.013834
0.034732
0.019395
0.021185
0.041382
0.009344
-0.009801
0.013388
-0.013743
-0.011426
-0.013730
0.013344
-0.014800
0.013356
0.011989
0.015358
0.007465
0.012538
-0.008265
-0.001604
0.011197
0.001184
0.012412
-0.010710
0.038322
-0.008382
0.032999
-0.000404
-0.010650
0.035240
0.034661
0.036748
0.026292
-0.011416
0.003022
0.031892
0.040619
-0.005024
0.040692
0.001633
0.038444
0.040900
0.002812
0.026888
-0.012889
0.007080
0.023527
-0.013521
0.014750
-0.000897
0.005250
0.009391
0.011808
0.009930
0.038592
-0.013620
0.013768
-0.003756
0.020524
0.004083
0.009533
0.031607
0.040434
0.030560
-0.011548
-0.003385
0.027380
-0.003048
-0.002778
0.039189
0.037594
0.021454
0.029308
0.025027
0.012409
0.035931
0.006049
0.007641
-0.000457
-0.000923
-0.009248
0.038184
0.032923
0.014855
-0.001508
0.003973
0.001273
0.012113
0.016154
-0.007967
-0.006372
0.016300
0.004875
0.038888
-0.013413
-0.013621
0.007390
0.008749
0.038422
-0.010199
-0.009743
0.037430
0.011951
-0.007256
0.000629
-0.007658
0.001274
0.005148
0.007803
0.040298
0.010276
0.005798
0.021496
-0.004170
0.020411
0.011664
0.037725
0.012008
0.014183
0.013610
0.005373
0.040531
0.005369
0.015236
0.006604
0.017498
0.040985
0.039700
0.013011
0.005753
0.034698
0.041142
-0.013813
0.040948
0.008445
0.034455
-0.014081
-0.009884
0.006591
0.008931
0.016391
0.019444
0.040725
0.014354
0.035403
0.004810
-0.012347
0.005303
-0.013578
-0.004882
-0.013521
0.039368
-0.005866
-0.012522
-0.013255
0.037639
0.013133
0.010915
0.008945
0.011677
0.036902
-0.000948
0.011553
-0.009946
0.025102
0.038431
0.018104
0.035225
-0.009658
0.005066
0.040206
0.034697
0.032139
0.037765
-0.005608
0.009980
-0.004746
0.004931
0.007246
0.001903
0.003324
0.039126
-0.008508
0.005455
-0.001739
0.004955
0.013938
-0.012016
0.019035
-0.007382
-0.012551
0.036829
0.009289
0.010553
0.004442
0.033934
0.040419
0.013601
0.037409
0.038171
0.006996
0.002235
0.036163
-0.002442
-0.010959
0.040532
0.004058
-0.000850
-0.003577
0.010834
0.028644
0.029507
-0.010994
0.031103
0.037650
0.002179
0.018920
-0.013174
0.025034
0.011830
0.013127
0.038349
-0.000384
0.000662
0.035674
-0.004659
0.037625
0.033908
0.015380
0.006950
0.016349
0.016830
0.031692
0.008277
0.001115
0.011338
0.021608
0.004522
-0.002246
-0.007642
-0.007696
0.040796
0.037940
0.027053
-0.006474
0.000134
0.037547
-0.007065
0.021829
0.038519
0.008314
0.039762
0.021398
0.005026
0.009773
0.011073
0.036684
0.014941
0.005107
0.013275
-0.013774
-0.013417
-0.009217
0.005154
0.005653
0.014963
0.022670
0.016820
0.007927
0.039826
0.005372
0.032441
0.040541
0.012787
0.007668
-0.009026
0.005956
-0.012123
-0.011832
0.033640
0.014595
-0.012947
0.040673
0.040233
0.040790
0.040479
-0.013044
0.005498
-0.013212
0.006173
0.018976
-0.013440
-0.013549
0.037151
0.010338
-0.008244
0.036885
0.021655
-0.010331
0.016195
0.022454
-0.007653
0.033091
0.031576
0.039700
-0.001772
0.004100
0.026360
-0.010889
0.036658
0.037479
0.036770
0.039961
0.040332
0.004038
0.007471
-0.005298
0.014461
0.030630
0.006487
-0.000411
0.039894
0.001292
0.002711
-0.012875
0.009670
0.013303
-0.011543
-0.004806
-0.004302
0.004826
0.012794
0.010249
0.008999
0.011361
-0.012711
0.023967
0.027929
0.037663
0.037284
0.035674
-0.010088
0.034052
-0.003054
0.038531
-0.013108
-0.000252
0.007673
0.027343
0.038481
0.005808
0.012152
0.031945
0.001889
0.040015
0.000136
0.039154
0.000705
0.040268
0.014860
0.035743
0.030095
0.018245
-0.009172
0.016310
-0.007343
0.027365
-0.006832
-0.005807
0.004069
-0.007792
-0.013325
0.036557
0.037661
-0.007534
-0.003060
0.020267
0.011536
0.040167
0.034294
0.012026
0.008872
0.006734
0.039408
0.036777
0.012589
0.004846
0.005224
0.006295
0.010472
0.022435
-0.009142
0.021082
0.012822
-0.011486
0.010145
0.035282
0.003918
0.011051
0.005056
0.004813
0.039978
0.002210
-0.013583
0.014821
0.015492
0.033157
0.016423
0.005647
0.040319
0.005457
-0.006416
-0.012439
0.006225
-0.001439
0.005525
0.023093
-0.012229
0.014478
-0.012995
-0.013167
0.040552
0.040195
0.037253
-0.007699
0.008477
0.007401
0.017024
0.008149
0.019032
0.001520
0.030820
0.037586
-0.013174
-0.007048
0.010971
0.007897
-0.009435
0.036923
0.005257
-0.009079
0.032279
0.000969
0.034149
-0.011134
0.034620
0.025013
0.035189
0.039575
0.027390
0.008216
-0.004995
-0.012459
0.036976
-0.003859
0.036189
0.013516
0.006921
-0.012939
0.019923
0.018130
0.010697
0.032703
0.003280
0.036815
-0.002234
0.028007
0.009979
0.011666
0.029606
-0.006479
0.014863
-0.003729
-0.011873
0.009839
0.036091
-0.008420
0.018317