# vtk DataFile Version 2.0
Test
ASCII
DATASET POLYDATA
POINTS 4677 float
0.000000 0.000000 0.000000
0.080000 0.000000 0.000000
0.080000 0.160000 0.000000
0.000000 0.160000 0.000000
0.036000 0.073072 0.000000
0.044000 0.086928 0.000000
0.024500 0.065566 0.000000
0.055500 0.093560 0.000000
0.001000 0.050000 0.000000
0.079000 0.110000 0.000000
0.002963 0.000000 0.000000
0.005926 0.000000 0.000000
0.008889 0.000000 0.000000
0.011852 0.000000 0.000000
0.014815 0.000000 0.000000
0.017778 0.000000 0.000000
0.020741 0.000000 0.000000
0.023704 0.000000 0.000000
0.026667 0.000000 0.000000
0.029630 0.000000 0.000000
0.032593 0.000000 0.000000
0.035556 0.000000 0.000000
0.038519 0.000000 0.000000
0.041481 0.000000 0.000000
0.044444 0.000000 0.000000
0.047407 0.000000 0.000000
0.050370 0.000000 0.000000
0.053333 0.000000 0.000000
0.056296 0.000000 0.000000
0.059259 0.000000 0.000000
0.062222 0.000000 0.000000
0.065185 0.000000 0.000000
0.068148 0.000000 0.000000
0.071111 0.000000 0.000000
0.074074 0.000000 0.000000
0.077037 0.000000 0.000000
0.080000 0.002963 0.000000
0.080000 0.005926 0.000000
0.080000 0.008889 0.000000
0.080000 0.011852 0.000000
0.080000 0.014815 0.000000
0.080000 0.017778 0.000000
0.080000 0.020741 0.000000
0.080000 0.023704 0.000000
0.080000 0.026667 0.000000
0.080000 0.029630 0.000000
0.080000 0.032593 0.000000
0.080000 0.035556 0.000000
0.080000 0.038519 0.000000
0.080000 0.041481 0.000000
0.080000 0.044444 0.000000
0.080000 0.047407 0.000000
0.080000 0.050370 0.000000
0.080000 0.053333 0.000000
0.080000 0.056296 0.000000
0.080000 0.059259 0.000000
0.080000 0.062222 0.000000
0.080000 0.065185 0.000000
0.080000 0.068148 0.000000
0.080000 0.071111 0.000000
0.080000 0.074074 0.000000
0.080000 0.077037 0.000000
0.080000 0.080000 0.000000
0.080000 0.082963 0.000000
0.080000 0.085926 0.000000
0.080000 0.088889 0.000000
0.080000 0.091852 0.000000
0.080000 0.094815 0.000000
0.080000 0.097778 0.000000
0.080000 0.100741 0.000000
0.080000 0.103704 0.000000
0.080000 0.106667 0.000000
0.080000 0.109630 0.000000
0.080000 0.112593 0.000000
0.080000 0.115556 0.000000
0.080000 0.118519 0.000000
0.080000 0.121481 0.000000
0.080000 0.124444 0.000000
0.080000 0.127407 0.000000
0.080000 0.130370 0.000000
0.080000 0.133333 0.000000
0.080000 0.136296 0.000000
0.080000 0.139259 0.000000
0.080000 0.142222 0.000000
0.080000 0.145185 0.000000
0.080000 0.148148 0.000000
0.080000 0.151111 0.000000
0.080000 0.154074 0.000000
0.080000 0.157037 0.000000
0.077037 0.160000 0.000000
0.074074 0.160000 0.000000
0.071111 0.160000 0.000000
0.068148 0.160000 0.000000
0.065185 0.160000 0.000000
0.062222 0.160000 0.000000
0.059259 0.160000 0.000000
0.056296 0.160000 0.000000
0.053333 0.160000 0.000000
0.050370 0.160000 0.000000
0.047407 0.160000 0.000000
0.044444 0.160000 0.000000
0.041481 0.160000 0.000000
0.038519 0.160000 0.000000
0.035556 0.160000 0.000000
0.032593 0.160000 0.000000
0.029630 0.160000 0.000000
0.026667 0.160000 0.000000
0.023704 0.160000 0.000000
0.020741 0.160000 0.000000
0.017778 0.160000 0.000000
0.014815 0.160000 0.000000
0.011852 0.160000 0.000000
0.008889 0.160000 0.000000
0.005926 0.160000 0.000000
0.002963 0.160000 0.000000
0.000000 0.157037 0.000000
0.000000 0.154074 0.000000
0.000000 0.151111 0.000000
0.000000 0.148148 0.000000
0.000000 0.145185 0.000000
0.000000 0.142222 0.000000
0.000000 0.139259 0.000000
0.000000 0.136296 0.000000
0.000000 0.133333 0.000000
0.000000 0.130370 0.000000
0.000000 0.127407 0.000000
0.000000 0.124444 0.000000
0.000000 0.121481 0.000000
0.000000 0.118519 0.000000
0.000000 0.115556 0.000000
0.000000 0.112593 0.000000
0.000000 0.109630 0.000000
0.000000 0.106667 0.000000
0.000000 0.103704 0.000000
0.000000 0.100741 0.000000
0.000000 0.097778 0.000000
0.000000 0.094815 0.000000
0.000000 0.091852 0.000000
0.000000 0.088889 0.000000
0.000000 0.085926 0.000000
0.000000 0.082963 0.000000
0.000000 0.080000 0.000000
0.000000 0.077037 0.000000
0.000000 0.074074 0.000000
0.000000 0.071111 0.000000
0.000000 0.068148 0.000000
0.000000 0.065185 0.000000
0.000000 0.062222 0.000000
0.000000 0.059259 0.000000
0.000000 0.056296 0.000000
0.000000 0.053333 0.000000
0.000000 0.050370 0.000000
0.000000 0.047407 0.000000
0.000000 0.044444 0.000000
0.000000 0.041481 0.000000
0.000000 0.038519 0.000000
0.000000 0.035556 0.000000
0.000000 0.032593 0.000000
0.000000 0.029630 0.000000
0.000000 0.026667 0.000000
0.000000 0.023704 0.000000
0.000000 0.020741 0.000000
0.000000 0.017778 0.000000
0.000000 0.014815 0.000000
0.000000 0.011852 0.000000
0.000000 0.008889 0.000000
0.000000 0.005926 0.000000
0.000000 0.002963 0.000000
0.035500 0.072746 0.000000
0.035000 0.072419 0.000000
0.034500 0.072093 0.000000
0.034000 0.071767 0.000000
0.033500 0.071440 0.000000
0.033000 0.071114 0.000000
0.032500 0.070788 0.000000
0.032000 0.070461 0.000000
0.031500 0.070135 0.000000
0.031000 0.069809 0.000000
0.030500 0.069482 0.000000
0.030000 0.069156 0.000000
0.029500 0.068829 0.000000
0.029000 0.068503 0.000000
0.028500 0.068177 0.000000
0.028000 0.067850 0.000000
0.027500 0.067524 0.000000
0.027000 0.067198 0.000000
0.026500 0.066871 0.000000
0.026000 0.066545 0.000000
0.025500 0.066219 0.000000
0.025000 0.065892 0.000000
0.044500 0.087216 0.000000
0.045000 0.087505 0.000000
0.045500 0.087793 0.000000
0.046000 0.088081 0.000000
0.046500 0.088370 0.000000
0.047000 0.088658 0.000000
0.047500 0.088946 0.000000
0.048000 0.089235 0.000000
0.048500 0.089523 0.000000
0.049000 0.089811 0.000000
0.049500 0.090100 0.000000
0.050000 0.090388 0.000000
0.050500 0.090677 0.000000
0.051000 0.090965 0.000000
0.051500 0.091253 0.000000
0.052000 0.091542 0.000000
0.052500 0.091830 0.000000
0.053000 0.092118 0.000000
0.053500 0.092407 0.000000
0.054000 0.092695 0.000000
0.054500 0.092983 0.000000
0.055000 0.093272 0.000000
0.043704 0.086415 0.000000
0.043407 0.085902 0.000000
0.043111 0.085388 0.000000
0.042815 0.084875 0.000000
0.042519 0.084362 0.000000
0.042222 0.083849 0.000000
0.041926 0.083336 0.000000
0.041630 0.082823 0.000000
0.041333 0.082309 0.000000
0.041037 0.081796 0.000000
0.040741 0.081283 0.000000
0.040444 0.080770 0.000000
0.040148 0.080257 0.000000
0.039852 0.079743 0.000000
0.039556 0.079230 0.000000
0.039259 0.078717 0.000000
0.038963 0.078204 0.000000
0.038667 0.077691 0.000000
0.038370 0.077177 0.000000
0.038074 0.076664 0.000000
0.037778 0.076151 0.000000
0.037481 0.075638 0.000000
0.037185 0.075125 0.000000
0.036889 0.074612 0.000000
0.036593 0.074098 0.000000
0.036296 0.073585 0.000000
0.024000 0.065235 0.000000
0.023500 0.064904 0.000000
0.023000 0.064572 0.000000
0.022500 0.064241 0.000000
0.022000 0.063910 0.000000
0.021500 0.063579 0.000000
0.021000 0.063248 0.000000
0.020500 0.062916 0.000000
0.020000 0.062585 0.000000
0.019500 0.062254 0.000000
0.019000 0.061923 0.000000
0.018500 0.061592 0.000000
0.018000 0.061261 0.000000
0.017500 0.060929 0.000000
0.017000 0.060598 0.000000
0.016500 0.060267 0.000000
0.016000 0.059936 0.000000
0.015500 0.059605 0.000000
0.015000 0.059273 0.000000
0.014500 0.058942 0.000000
0.014000 0.058611 0.000000
0.013500 0.058280 0.000000
0.013000 0.057949 0.000000
0.012500 0.057617 0.000000
0.012000 0.057286 0.000000
0.011500 0.056955 0.000000
0.011000 0.056624 0.000000
0.010500 0.056293 0.000000
0.010000 0.055961 0.000000
0.009500 0.055630 0.000000
0.009000 0.055299 0.000000
0.008500 0.054968 0.000000
0.008000 0.054637 0.000000
0.007500 0.054305 0.000000
0.007000 0.053974 0.000000
0.006500 0.053643 0.000000
0.006000 0.053312 0.000000
0.005500 0.052981 0.000000
0.005000 0.052650 0.000000
0.004500 0.052318 0.000000
0.004000 0.051987 0.000000
0.003500 0.051656 0.000000
0.003000 0.051325 0.000000
0.002500 0.050994 0.000000
0.002000 0.050662 0.000000
0.001500 0.050331 0.000000
0.055990 0.093902 0.000000
0.056479 0.094245 0.000000
0.056969 0.094587 0.000000
0.057458 0.094930 0.000000
0.057948 0.095272 0.000000
0.058437 0.095615 0.000000
0.058927 0.095957 0.000000
0.059417 0.096300 0.000000
0.059906 0.096642 0.000000
0.060396 0.096985 0.000000
0.060885 0.097327 0.000000
0.061375 0.097670 0.000000
0.061865 0.098012 0.000000
0.062354 0.098355 0.000000
0.062844 0.098697 0.000000
0.063333 0.099040 0.000000
0.063823 0.099382 0.000000
0.064312 0.099725 0.000000
0.064802 0.100067 0.000000
0.065292 0.100410 0.000000
0.065781 0.100752 0.000000
0.066271 0.101095 0.000000
0.066760 0.101437 0.000000
0.067250 0.101780 0.000000
0.067740 0.102122 0.000000
0.068229 0.102465 0.000000
0.068719 0.102807 0.000000
0.069208 0.103150 0.000000
0.069698 0.103492 0.000000
0.070187 0.103835 0.000000
0.070677 0.104177 0.000000
0.071167 0.104520 0.000000
0.071656 0.104862 0.000000
0.072146 0.105205 0.000000
0.072635 0.105547 0.000000
0.073125 0.105890 0.000000
0.073615 0.106232 0.000000
0.074104 0.106575 0.000000
0.074594 0.106917 0.000000
0.075083 0.107260 0.000000
0.075573 0.107602 0.000000
0.076062 0.107945 0.000000
0.076552 0.108287 0.000000
0.077042 0.108630 0.000000
0.077531 0.108972 0.000000
0.078021 0.109315 0.000000
0.078510 0.109658 0.000000
0.043942 0.087469 0.000000
0.035556 0.157037 0.000000
0.044420 0.002920 0.000000
0.077037 0.038519 0.000000
0.002963 0.121481 0.000000
0.077037 0.059259 0.000000
0.002963 0.109630 0.000000
0.002923 0.098139 0.000000
0.077153 0.126913 0.000000
0.002808 0.032596 0.000000
0.077140 0.071061 0.000000
0.002963 0.085926 0.000000
0.002963 0.136296 0.000000
0.077041 0.023701 0.000000
0.056296 0.157037 0.000000
0.032593 0.002963 0.000000
0.077037 0.080000 0.000000
0.002813 0.077135 0.000000
0.077037 0.142222 0.000000
0.017778 0.157037 0.000000
0.062222 0.002963 0.000000
0.076992 0.088722 0.000000
0.002945 0.020743 0.000000
0.017777 0.002962 0.000000
0.002801 0.068434 0.000000
0.002959 0.011851 0.000000
0.065186 0.157038 0.000000
0.002963 0.148148 0.000000
0.077037 0.011852 0.000000
0.076887 0.094740 0.000000
0.077092 0.115875 0.000000
0.002677 0.044265 0.000000
0.077038 0.148148 0.000000
0.002985 0.062165 0.000000
0.077037 0.047407 0.000000
0.011852 0.002963 0.000000
[...]
POINT_DATA 4677
SCALARS UX float 1
LOOKUP_TABLE default
-0.000000
0.000000
0.070938
0.042862
0.005641
0.006699
-0.010022
0.059626
-0.017006
0.069587
-0.000000
-0.000000
-0.000000
-0.000000
-0.000000
-0.000000
-0.000000
-0.000000
-0.000000
-0.000000
-0.000000
-0.000000
-0.000000
0.000000
0.000000
0.000000
0.000000
0.000000
0.000000
0.000000
0.000000
0.000000
0.000000
0.000000
0.000000
-0.000000
0.002637
0.004044
0.005111
0.006064
0.006965
0.007877
0.008819
0.009797
0.010802
0.011841
0.012937
0.014019
0.015071
0.016176
0.017127
0.018657
0.019314
0.020035
0.020940
0.022093
0.024980
0.031305
0.042854
0.057968
0.072199
0.073068
0.074620
0.074535
0.073048
0.071695
0.071056
0.070685
0.070266
0.069570
0.069428
0.069566
0.069905
0.070111
0.070156
0.070048
0.069872
0.069621
0.068457
0.068114
0.067992
0.067623
0.067137
0.067028
0.067191
0.067682
0.068575
0.069374
0.070129
0.069381
0.068229
0.066721
0.065623
0.064658
0.063378
0.062217
0.061387
0.060217
0.059007
0.058109
0.056971
0.056230
0.055341
0.054307
0.053242
0.052171
0.051192
0.050503
0.049395
0.048645
0.047525
0.046767
0.045852
0.044712
0.043953
0.042401
0.042180
0.041549
0.041238
0.040915
0.040196
0.037407
0.034083
0.026178
0.014813
0.002430
-0.003160
-0.008482
-0.006442
-0.005556
-0.005373
-0.006112
-0.006314
-0.006174
-0.006290
-0.007239
-0.008516
-0.009428
-0.011725
-0.014190
-0.016363
-0.017412
-0.017702
-0.017595
-0.017439
-0.017461
-0.017143
-0.017198
-0.017460
-0.017561
-0.017543
-0.017339
-0.017062
-0.016701
-0.016113
-0.015899
-0.015255
-0.014619
-0.013933
-0.012906
-0.011816
-0.011145
-0.010262
-0.009420
-0.008622
-0.007810
-0.006774
-0.004780
0.005262
0.004942
0.003390
0.006739
0.005405
0.004792
0.003841
0.001990
-0.000339
-0.002148
-0.003126
-0.003330
-0.003821
-0.004592
-0.005024
-0.005141
-0.004537
-0.005434
-0.006846
-0.007713
-0.008821
-0.009534
0.006484
0.007480
0.007384
0.007660
0.011142
0.011022
0.007835
0.011091
0.016198
0.021256
0.026360
0.029773
0.038225
0.037078
0.045028
0.052428
0.057490
0.058657
0.058354
0.059488
0.058754
0.059435
0.007079
0.006862
0.006795
0.006774
0.006796
0.006741
0.006689
0.006631
0.006579
0.006537
0.006477
0.006385
0.006336
0.006288
0.006268
0.006246
0.006209
0.006221
0.006152
0.006087
0.006048
0.006016
0.005959
0.005939
0.005870
0.005768
-0.009874
-0.009964
-0.010140
-0.010278
-0.010429
-0.010588
-0.010737
-0.010902
-0.011065
-0.011228
-0.011413
-0.011584
-0.011718
-0.011859
-0.012022
-0.012227
-0.012406
-0.012612
-0.012776
-0.012947
-0.013109
-0.013283
-0.013444
-0.013631
-0.013812
-0.013987
-0.014179
-0.014341
-0.014514
-0.014669
-0.014837
-0.014987
-0.015138
-0.015295
-0.015429
-0.015585
-0.015730
-0.015889
-0.016018
-0.016148
-0.016278
-0.016389
-0.016527
-0.016643
-0.016762
-0.016879
0.059527
0.059660
0.059949
0.060155
0.060358
0.060538
0.060761
0.060966
0.061225
0.061469
0.061692
0.061955
0.062165
0.062389
0.062489
0.062745
0.062954
0.063142
0.063380
0.063593
0.063758
0.063921
0.064116
0.064334
0.064532
0.064717
0.064884
0.065035
0.065232
0.065386
0.065618
0.065767
0.065946
0.066192
0.066408
0.066627
0.066874
0.067108
0.067363
0.067598
0.067852
0.068100
0.068369
0.068621
0.068876
0.069134
0.069369
0.007083
0.053820
0.000002
0.014142
-0.004394
0.020144
-0.004594
-0.005591
0.066882
-0.013705
0.049799
-0.012727
0.036843
0.008510
0.060869
-0.000254
0.073447
-0.016322
0.065705
0.048171
0.000265
0.070407
-0.010053
-0.000604
-0.016360
-0.007919
0.063867
0.042320
0.004866
0.069144
0.068673
-0.015841
0.066665
-0.016386
0.017577
-0.001182
0.066185
0.044170
0.000747
-0.016401
0.068330
0.066132
0.055750
0.057710
-0.000408
0.020074
0.010611
0.050060
0.000174
0.068767
0.068438
-0.015311
0.006984
0.067812
-0.014865
-0.016878
-0.016309
0.072690
-0.007719
-0.014482
0.025661
0.063596
0.018671
-0.004947
0.068296
-0.003552
-0.012831
-0.011843
0.015149
0.051698
0.065852
0.000101
-0.000049
0.008722
0.011762
-0.000121
-0.009430
-0.000373
0.061709
0.058485
0.042066
0.006654
-0.006718
-0.001484
-0.005126
0.046370
0.000437
0.067394
-0.002277
-0.002533
0.042983
0.002617
0.043364
0.001123
0.069052
0.006676
-0.016593
-0.016776
0.068936
0.006902
-0.000148
0.013104
0.053691
-0.011895
-0.012299
0.066798
0.058075
0.031913
0.064517
-0.000911
-0.014644
-0.008686
-0.015862
0.070222
0.067171
0.060232
-0.006702
-0.002540
-0.004237
0.065513
0.043795
0.001608
0.069145
-0.016339
0.068976
-0.016340
0.069826
-0.016281
-0.016962
0.071862
0.067792
-0.014520
0.069348
-0.016140
0.070856
-0.009550
-0.006561
0.033627
0.021190
-0.005194
-0.004855
0.019337
-0.003990
0.018124
0.066257
0.016225
-0.004458
0.054884
0.002111
0.012949
0.052878
0.000056
0.056536
-0.010874
0.050812
0.000137
-0.000175
0.065625
0.030265
0.009535
0.059660
-0.000347
0.049027
0.000214
-0.008617
-0.000520
0.062747
0.041150
0.007543
-0.000996
0.042212
0.005770
0.065041
0.065991
0.047103
0.000329
0.067595
0.068166
0.045306
0.000579
0.042486
0.003845
-0.016768
0.069353
0.068808
-0.015904
-0.016554
0.007681
0.006298
0.068758
-0.016827
0.066924
-0.014505
0.006762
0.007545
0.007802
0.018932
-0.005750
-0.003447
0.065661
-0.014050
0.052532
0.048725
-0.015198
0.000274
0.008266
0.068403
0.042308
0.046737
0.067948
0.004599
0.043031
0.000731
0.068670
-0.016358
0.065633
0.017856
-0.002515
0.016910
-0.001242
0.056129
0.037403
0.062181
-0.001316
-0.002024
0.043377
0.064345
0.066199
-0.016485
0.069077
-0.015630
0.068019
0.069243
-0.015470
0.066218
-0.014443
-0.016323
0.070279
0.070610
-0.004045
0.067977
-0.013393
-0.013904
-0.015131
0.026492
0.040272
-0.008178
0.011967
-0.000404
-0.000272
-0.011096
0.015387
0.014279
0.000097
-0.000013
-0.010133
0.064275
0.057285
0.050530
0.059174
0.010860
0.021943
0.064293
0.064965
0.064482
0.054382
-0.010077
-0.000730
0.061174
-0.007861
-0.001071
0.006339
0.000453
-0.009281
-0.005820
-0.003219
0.066829
0.044796
0.001152
0.002673
-0.012440
0.006442
0.007688
0.068422
-0.016339
-0.016692
0.069652
-0.016887
0.068872
0.006192
0.007855
0.007228
0.006542
0.006991
-0.000407
0.012939
0.030088
-0.006329
0.055968
0.020311
-0.011434
0.062961
0.068094
-0.001179
0.058904
-0.009291
-0.007685
-0.003268
-0.016105
0.068203
0.063727
0.008546
-0.015031
0.010880
-0.000067
0.063031
-0.001776
0.060728
0.063780
0.038896
0.044326
0.001885
0.007310
-0.015385
0.068096
-0.012471
-0.015599
-0.003939
-0.014842
-0.006436
-0.004891
0.009458
0.020133
0.067392
0.018383
-0.002952
0.017392
0.063892
-0.002014
0.064463
0.068874
-0.008626
0.055155
-0.000541
0.051487
0.041281
0.016278
0.000189
0.049638
-0.010025
0.056672
0.010711
0.002104
0.000359
0.047659
0.064631
0.007255
-0.006809
-0.004794
0.005463
0.065130
0.063253
-0.001617
0.042870
0.000568
0.053444
0.045713
0.043191
0.065716
0.003675
0.000914
-0.013795
0.065521
-0.014534
0.006047
-0.016389
0.006485
0.008020
0.068189
-0.015881
0.068171
0.006262
0.007832
0.068173
-0.016495
-0.016178
0.068493
0.068515
0.007286
0.008547
0.008384
-0.016267
-0.015063
0.006600
0.008944
0.016950
-0.003203
-0.005037
-0.011408
0.064208
0.055520
-0.013978
-0.013835
0.050171
0.067049
0.043195
0.000421
0.007045
-0.009129
-0.015008
0.047377
-0.001697
0.000905
0.004369
0.016087
-0.000567
0.067483
0.053962
0.000152
0.010165
0.063404
-0.006721
-0.002728
0.002704
0.045172
0.040142
-0.015433
0.066105
0.063119
-0.014617
-0.004220
-0.010113
-0.005236
-0.000857
0.019425
0.009305
-0.002860
0.014204
0.054964
-0.000248
-0.013060
0.064490
0.063051
-0.013045
0.068497
0.066408
0.057863
0.015872
0.063239
-0.010891
0.041363
0.049240
-0.001407
0.011727
-0.008530
0.059655
-0.002051
0.022450
0.000562
0.052110
0.061673
0.063767
0.034131
0.006061
-0.006019
0.064298
-0.003968
0.000118
0.043548
0.044029
0.001134
0.001433
-0.013227
0.007706
0.007854
0.008980
-0.016097
-0.016111
0.068065
0.067838
0.005893
-0.016099
0.006068
0.067481
-0.015450
0.008909
0.067074
0.068108
0.063188
0.053714
-0.014472
-0.015817
0.007123
0.007471
0.067864
0.006451
0.011241
0.011836
0.017207
0.017571
-0.000363
0.062265
-0.013089
0.061906
0.064969
0.066715
0.058404
0.042495
0.049645
-0.001580
-0.015001
0.062163
0.000584
0.006179
0.067172
0.060281
0.044343
0.044810
0.008818
-0.009754
0.008409
0.062766
0.020388
-0.003006
0.001264
-0.007569
-0.005228
0.002035
0.007744
0.066200
-0.004104
0.016725
0.007289
-0.010685
-0.000917
-0.003663
0.015094
0.017442
0.054280
0.063521
-0.002265
0.008808
-0.000546
-0.000089
0.003697
0.061833
0.057191
-0.013028
0.067088
0.062276
-0.014503
0.046879
0.000272
0.066234
-0.006109
-0.008384
-0.012774
0.028237
0.009363
-0.006046
0.053081
0.063362
0.048374
0.005188
-0.002049
0.062717
0.000715
0.042790
0.056217
-0.003733
0.062449
0.051151
0.003550
0.043739
0.046229
0.008103
0.067342
-0.015880
0.007365
-0.014778
-0.015444
0.008767
0.008941
0.005995
0.005960
0.005636
0.006209
-0.013869
0.007418
0.010951
0.011152
-0.003333
-0.014372
-0.011506
-0.015843
0.062116
0.016743
0.067918
0.070655
0.063454
-0.015811
-0.016221
0.067221
0.008628
0.067687
-0.016082
-0.012139
0.067806
0.067551
0.007778
0.007052
0.009203
-0.001392
-0.003629
0.062522
0.054375
0.028285
-0.012926
-0.000377
-0.010521
0.007156
-0.013197
0.065116
-0.002037
0.065031
-0.008371
0.060762
0.057149
-0.015014
-0.014586
0.047873
0.067044
0.015758
0.061463
0.014209
0.052629
0.007877
0.061286
0.001226
-0.006806
0.050662
0.000366
-0.003797
0.062101
0.004123
-0.013795
0.001007
0.043902
0.002707
0.044731
0.005603
0.010753
-0.002759
-0.011574
-0.007712
-0.011851
0.015655
0.016277
-0.002840
-0.012428
0.007610
0.064800
-0.000662
-0.014746
0.020131
0.007512
0.000139
-0.001306
-0.015653
0.039911
0.053704
0.061954
0.067631
0.055923
-0.002451
-0.005248
0.061181
0.032332
0.013017
0.059227
0.000781
0.043328
0.004943
0.062940
0.010555
0.044552
0.066847
0.053422
0.048823
0.001587
-0.004490
0.067134
0.045922
-0.015546
0.066160
0.067252
0.066744
0.006201
0.011884
-0.015496
-0.015939
0.061833
-0.014351
0.008521
0.066202
0.009373
0.008112
0.005492
0.009177
0.006447
0.005780
-0.003140
0.010104
0.067544
0.008040
0.009935
0.067522
-0.016094
-0.011231
-0.015980
0.067067
0.009387
-0.015718
0.061775
-0.010354
0.009076
0.006785
0.060630
0.009662
0.014712
0.017120
-0.002544
-0.011542
0.054575
-0.013687
0.000475
0.056515
0.050256
0.043818
0.004155
0.009745
0.008544
0.001038
-0.015111
-0.015516
-0.002539
-0.008724
0.005963
-0.010376
0.016606
0.058896
0.011546
0.033604
-0.003140
0.060824
0.061014
0.045543
0.048439
0.005367
-0.002384
-0.001918
0.010891
-0.000404
-0.009958
-0.000900
-0.001706
0.067470
0.015011
-0.014173
-0.013807
0.063375
0.007425
-0.016027
0.053062
0.009001
-0.012196
0.015809
-0.014354
0.051736
0.013489
-0.007681
-0.009627
0.060847
-0.002616
0.038122
0.061534
-0.015602
-0.015042
-0.004430
0.065308
0.065217
-0.004548
-0.013222
0.055144
-0.006021
0.044271
0.057967
0.009874
0.007741
0.045806
0.061696
0.002106
0.003450
0.067180
0.046940
0.044619
0.001322
0.003356
0.061045
0.066202
-0.000095
0.008138
0.066564
0.065269
0.012672
-0.015757
0.063732
0.061063
0.066956
-0.015431
0.009798
0.006142
0.005501
0.005581
-0.011950
0.014987
0.005985
-0.014593
0.008546
0.066796
0.066028
-0.015872
0.009682
0.015853
0.061124
-0.000775
0.009627
-0.000659
0.066728
0.009537
0.066575
0.011213
-0.015390
0.059875
0.026718
0.010043
0.010478
-0.011393
-0.003127
-0.000731
-0.011862
0.005824
0.063097
-0.013561
0.065333
0.059727
-0.003091
0.045037
-0.007621
-0.000934
0.053786
-0.014634
-0.014743
0.066507
-0.015357
0.060113
0.004580
-0.009237
0.001314
0.009060
0.051226
-0.002218
0.060395
-0.005883
0.003422
0.046353
0.014585
0.005401
-0.014090
0.066469
0.064481
-0.015316
0.010771
0.004936
-0.010993
-0.013005
0.021563
0.057242
0.007324
0.012497
0.061365
0.052053
-0.013050
-0.006804
-0.004542
0.017275
-0.001274
0.043204
0.038204
0.015185
0.000172
0.002737
0.059873
-0.006115
0.000758
0.047575
0.000159
0.055651
0.001659
0.049327
-0.015733
-0.005304
0.008861
-0.009706
0.064337
-0.001803
-0.002103
-0.001981
0.045357
0.046623
0.045009
0.060810
-0.012355
0.042335
0.063785
0.014849
-0.002668
0.067117
0.060354
0.009499
0.007751
0.005597
0.012389
0.008089
0.005326
0.007202
0.065180
0.015418
0.065925
0.005659
0.066502
0.066292
0.010111
0.006278
0.067055
-0.000428
-0.013804
0.006080
0.016477
-0.015526
-0.016293
-0.002265
0.067603
0.009915
0.001388
0.009364
-0.015233
-0.015514
-0.009598
0.062088
0.011093
-0.015238
0.011955
-0.014128
0.066720
0.066521
0.007435
0.005420
0.009646
0.010333
0.014270
-0.000060
-0.002216
0.039806
-0.000975
0.037421
0.064168
0.065262
-0.014286
0.055323
-0.013409
0.051023
0.046046
0.049223
0.010831
0.015427
-0.014787
-0.006724
0.057995
0.002662
-0.007956
0.012886
0.010619
0.014163
0.003991
0.011672
-0.001950
-0.005238
0.000267
0.002692
0.047343
0.046016
0.000972
0.044250
0.066717
0.013786
-0.001610
-0.009151
0.066193
0.024507
0.059585
0.058528
0.014075
0.064649
0.064097
0.005028
-0.014963
0.054802
0.015455
-0.010581
-0.014248
-0.003903
-0.011582
-0.013322
0.066345
-0.002149
-0.015330
-0.004136
-0.000093
0.060190
-0.007362
0.001668
0.059914
-0.015057
0.045662
-0.012366
0.066895
-0.001621
0.010625
0.052748
0.042293
0.008620
0.005936
0.056097
-0.001856
-0.002573
-0.010761
-0.009637
0.059620
0.002120
0.060062
0.007797
0.007174
0.063226
0.001004
0.062490
-0.015471
-0.015176
0.005554
0.005183
0.060145
0.012349
0.017322
0.005767
-0.001043
0.066270
0.065208
0.019626
-0.015313
0.065845
0.005270
-0.013613
0.009922
-0.001493
0.006629
0.066389
0.010911
0.060745
0.009042
-0.013558
0.010173
-0.015187
0.067784
0.066103
0.006039
0.020753
-0.012157
-0.016224
0.015310
0.066598
-0.010169
0.007888
0.058852
0.007148
-0.009969
0.010874
0.010020
-0.001516
-0.011389
-0.010548
0.055075
0.063213
0.004829
0.062872
-0.013855
0.063990
0.058850
0.007910
-0.001375
-0.002357
0.066740
0.011882
0.005706
0.005566
-0.012443
0.052539
-0.001593
-0.014987
0.026133
0.010203
0.001209
-0.000074
0.002180
-0.007336
-0.015424
-0.001346
0.009329
0.011649
0.059138
0.000780
0.066208
-0.004175
-0.007605
-0.013066
0.066131
-0.014629
0.014671
0.048593
-0.010692
-0.005514
0.052034
0.059369
-0.005945
-0.009423
-0.002897
0.061927
0.061119
-0.000570
0.003162
0.046974
0.008164
0.065806
0.018885
0.048275
0.045552
0.066006
0.000619
0.057155
0.049985
0.064392
0.013553
0.006989
-0.008935
-0.003002
0.004571
0.059392
0.046433
0.054296
0.013979
0.042194
0.059955
-0.014996
0.005063
-0.000913
-0.001415
-0.015795
0.005482
0.012560
0.011206
0.015413
0.020579
0.006025
-0.015068
-0.014962
0.005216
0.067412
0.002224
0.008614
0.022197
-0.012991
0.005345
0.010564
0.059504
0.066072
0.058709
-0.008688
-0.014853
0.008533
0.067587
0.032220
0.014676
0.066001
0.012928
0.010368
0.006899
0.065912
-0.004533
-0.001499
0.020320
0.013937
0.059013
-0.014405
-0.013856
0.064650
0.006081
0.023345
-0.009249
0.013809
0.010410
0.011100
0.058523
0.024570
-0.000901
0.050312
0.020638
0.062128
-0.013330
-0.000553
0.046681
0.003846
0.065804
0.058090
0.008587
0.064653
-0.002771
-0.006527
-0.000479
-0.013447
0.013085
0.066145
0.061854
-0.014012
-0.001997
0.011671
0.054362
-0.014825
0.049865
0.047883
0.005757
0.000794
-0.001065
-0.008406
0.066650
0.041934
0.013024
0.058289
-0.005383
0.065774
0.005818
0.063826
0.060473
-0.011418
-0.008943
-0.014164
0.004065
0.009633
0.053342
-0.015430
-0.003875
0.064104
-0.014769
0.002756
-0.000963
0.050893
0.001629
0.060008
-0.001114
0.009135
0.007041
0.028462
0.067708
0.059037
0.046592
0.032973
0.063517
0.044244
-0.012776
-0.003487
0.055911
0.006861
0.000363
-0.001262
0.013519
0.051589
0.000418
0.004135
0.047058
0.058933
-0.005941
0.015188
-0.010855
0.058682
-0.001941
0.057826
-0.008913
0.007641
0.009878
0.011225
0.059187
0.008780
0.012266
0.065239
0.012503
0.005447
0.005479
0.005049
0.005238
0.004936
-0.015098
0.065836
0.065677
0.006390
0.015320
0.019772
-0.009848
0.010754
-0.012266
0.024594
0.005272
0.058607
0.065852
-0.014500
0.008204
-0.004967
-0.014902
0.063490
0.025021
0.034958
0.065909
0.011604
-0.011904
0.013656
-0.014807
-0.013144
-0.014758
0.012972
-0.015829
0.014208
0.015117
0.025199
0.006816
0.013527
-0.009117
-0.001261
0.010690
-0.000380
0.021571
-0.011528
0.060899
-0.010412
0.061638
-0.001130
-0.012508
0.063427
0.054012
0.064212
0.047635
-0.013026
0.000157
0.051257
0.065999
-0.005806
0.065128
0.000953
0.058003
0.065587
0.002059
0.047318
-0.014131
0.007833
0.045915
-0.014646
0.015037
-0.001753
0.005203
0.009506
0.012068
0.010011
0.057457
-0.014678
0.011869
-0.003383
0.035958
0.003266
0.009071
0.060216
0.066864
0.050335
-0.012709
-0.004074
0.047388
-0.002681
-0.003367
0.062675
0.058919
0.044623
0.048974
0.041395
0.013337
0.055022
0.004523
0.006957
-0.001052
-0.000921
-0.010064
0.065183
0.052344
0.021971
-0.002145
0.001761
-0.000921
0.013219
0.036250
-0.008682
-0.006986
0.017153
0.003555
0.058057
-0.014481
-0.014655
0.006576
0.009144
0.058511
-0.012168
-0.011781
0.057940
0.012745
-0.007816
-0.000035
-0.008191
-0.000734
0.004915
0.008244
0.064490
0.010150
0.005679
0.040567
-0.004646
0.025516
0.011941
0.056820
0.011288
0.014258
0.015780
0.005181
0.065646
0.005053
0.019062
0.006104
0.024663
0.067043
0.066509
0.011499
0.005380
0.063159
0.065740
-0.014870
0.065586
0.007767
0.053591
-0.015129
-0.010700
0.007239
0.009115
0.022271
0.026873
0.065562
0.012592
0.064252
0.003873
-0.013676
0.005001
-0.014630
-0.005370
-0.014671
0.058245
-0.006941
-0.013676
-0.014383
0.059433
0.019295
0.011607
0.008494
0.012690
0.058522
-0.000704
0.011118
-0.010817
0.040975
0.061513
0.021343
0.054510
-0.011606
0.003486
0.064572
0.062792
0.051891
0.064712
-0.006406
0.011186
-0.005014
0.004765
0.007986
-0.000178
0.002543
0.065710
-0.009384
0.003072
-0.002375
0.004843
0.014343
-0.013364
0.041435
-0.009429
-0.013835
0.057593
0.009565
0.010467
0.003239
0.053239
0.066381
0.012420
0.056490
0.057249
0.006480
-0.000361
0.063659
-0.001892
-0.011939
0.065801
0.000940
-0.001759
-0.004376
0.010961
0.048525
0.049294
-0.012727
0.050869
0.057189
0.001466
0.030596
-0.014306
0.047035
0.012898
0.013600
0.057364
-0.000690
-0.000407
0.063626
-0.005091
0.059869
0.062576
0.032583
0.005559
0.018154
0.021956
0.059925
0.007936
0.000452
0.012132
0.044369
0.002964
-0.003168
-0.008199
-0.008479
0.065903
0.057321
0.047949
-0.008224
-0.000573
0.057821
-0.007736
0.030352
0.058241
0.008815
0.063726
0.045357
0.005094
0.009944
0.011199
0.055884
0.013317
0.004871
0.015296
-0.014858
-0.014504
-0.011297
0.004954
0.005666
0.020125
0.047558
0.024015
0.007299
0.066147
0.005085
0.061737
0.065058
0.011795
0.008320
-0.009910
0.005592
-0.013228
-0.013410
0.053009
0.012136
-0.014069
0.065455
0.065393
0.065513
0.065332
-0.014225
0.004659
-0.014298
0.006809
0.027627
-0.014492
-0.014608
0.064247
0.011096
-0.009238
0.058906
0.044895
-0.011313
0.018141
0.031369
-0.009443
0.061533
0.051370
0.064009
-0.002500
0.002550
0.047877
-0.012537
0.063705
0.064190
0.056344
0.065735
0.065222
0.000874
0.005375
-0.006190
0.027442
0.058063
0.005397
-0.001223
0.064983
0.000547
0.001895
-0.014014
0.009896
0.012492
-0.013085
-0.005379
-0.004859
0.004670
0.013503
0.010721
0.008482
0.012418
-0.013939
0.046400
0.048169
0.060347
0.056550
0.055053
-0.011933
0.062414
-0.002500
0.065094
-0.014238
-0.000399
0.008436
0.050201
0.062051
0.004300
0.013085
0.060099
0.000199
0.065339
-0.000537
0.063004
-0.000018
0.064903
0.015838
0.063119
0.050056
0.029367
-0.010079
0.018761
-0.007956
0.048420
-0.007602
-0.006525
0.002747
-0.008736
-0.014350
0.057058
0.057576
-0.008390
-0.003671
0.026425
0.012472
0.065664
0.053684
0.011638
0.009233
0.007528
0.065530
0.058027
0.011973
0.004684
0.005338
0.007025
0.010419
0.050126
-0.011134
0.038590
0.014466
-0.012738
0.010205
0.062980
0.003044
0.010757
0.004848
0.004770
0.064572
-0.000229
-0.014678
0.019890
0.013647
0.052553
0.025434
0.002249
0.065590
0.005186
-0.006992
-0.013649
0.005868
-0.000966
0.005659
0.051371
-0.013532
0.013258
-0.014083
-0.014295
0.065345
0.065168
0.056477
-0.009549
0.007849
0.006855
0.025112
0.008724
0.031111
-0.000686
0.057906
0.057347
-0.014253
-0.007960
0.012145
0.007262
-0.010410
0.059364
0.001767
-0.011010
0.060209
0.000053
0.062056
-0.012685
0.054260
0.042117
0.062644
0.064064
0.048483
0.008828
-0.005896
-0.013679
0.063766
-0.004710
0.055596
0.014289
0.007756
-0.013930
0.024144
0.029206
0.011624
0.052248
0.002332
0.056748
-0.003164
0.048680
0.010164
0.012878
0.049617
-0.008101
0.016300
-0.003367