# vtk DataFile Version 2.0
Test
ASCII
DATASET POLYDATA
POINTS 4677 float
0.000000 0.000000 0.000000
0.080000 0.000000 0.000000
0.080000 0.160000 0.000000
0.000000 0.160000 0.000000
0.036000 0.073072 0.000000
0.044000 0.086928 0.000000
0.024500 0.065566 0.000000
0.055500 0.093560 0.000000
0.001000 0.050000 0.000000
0.079000 0.110000 0.000000
0.002963 0.000000 0.000000
0.005926 0.000000 0.000000
0.008889 0.000000 0.000000
0.011852 0.000000 0.000000
0.014815 0.000000 0.000000
0.017778 0.000000 0.000000
0.020741 0.000000 0.000000
0.023704 0.000000 0.000000
0.026667 0.000000 0.000000
0.029630 0.000000 0.000000
0.032593 0.000000 0.000000
0.035556 0.000000 0.000000
0.038519 0.000000 0.000000
0.041481 0.000000 0.000000
0.044444 0.000000 0.000000
0.047407 0.000000 0.000000
0.050370 0.000000 0.000000
0.053333 0.000000 0.000000
0.056296 0.000000 0.000000
0.059259 0.000000 0.000000
0.062222 0.000000 0.000000
0.065185 0.000000 0.000000
0.068148 0.000000 0.000000
0.071111 0.000000 0.000000
0.074074 0.000000 0.000000
0.077037 0.000000 0.000000
0.080000 0.002963 0.000000
0.080000 0.005926 0.000000
0.080000 0.008889 0.000000
0.080000 0.011852 0.000000
0.080000 0.014815 0.000000
0.080000 0.017778 0.000000
0.080000 0.020741 0.000000
0.080000 0.023704 0.000000
0.080000 0.026667 0.000000
0.080000 0.029630 0.000000
0.080000 0.032593 0.000000
0.080000 0.035556 0.000000
0.080000 0.038519 0.000000
0.080000 0.041481 0.000000
0.080000 0.044444 0.000000
0.080000 0.047407 0.000000
0.080000 0.050370 0.000000
0.080000 0.053333 0.000000
0.080000 0.056296 0.000000
0.080000 0.059259 0.000000
0.080000 0.062222 0.000000
0.080000 0.065185 0.000000
0.080000 0.068148 0.000000
0.080000 0.071111 0.000000
0.080000 0.074074 0.000000
0.080000 0.077037 0.000000
0.080000 0.080000 0.000000
0.080000 0.082963 0.000000
0.080000 0.085926 0.000000
0.080000 0.088889 0.000000
0.080000 0.091852 0.000000
0.080000 0.094815 0.000000
0.080000 0.097778 0.000000
0.080000 0.100741 0.000000
0.080000 0.103704 0.000000
0.080000 0.106667 0.000000
0.080000 0.109630 0.000000
0.080000 0.112593 0.000000
0.080000 0.115556 0.000000
0.080000 0.118519 0.000000
0.080000 0.121481 0.000000
0.080000 0.124444 0.000000
0.080000 0.127407 0.000000
0.080000 0.130370 0.000000
0.080000 0.133333 0.000000
0.080000 0.136296 0.000000
0.080000 0.139259 0.000000
0.080000 0.142222 0.000000
0.080000 0.145185 0.000000
0.080000 0.148148 0.000000
0.080000 0.151111 0.000000
0.080000 0.154074 0.000000
0.080000 0.157037 0.000000
0.077037 0.160000 0.000000
0.074074 0.160000 0.000000
0.071111 0.160000 0.000000
0.068148 0.160000 0.000000
0.065185 0.160000 0.000000
0.062222 0.160000 0.000000
0.059259 0.160000 0.000000
0.056296 0.160000 0.000000
0.053333 0.160000 0.000000
0.050370 0.160000 0.000000
0.047407 0.160000 0.000000
0.044444 0.160000 0.000000
0.041481 0.160000 0.000000
0.038519 0.160000 0.000000
0.035556 0.160000 0.000000
0.032593 0.160000 0.000000
0.029630 0.160000 0.000000
0.026667 0.160000 0.000000
0.023704 0.160000 0.000000
0.020741 0.160000 0.000000
0.017778 0.160000 0.000000
0.014815 0.160000 0.000000
0.011852 0.160000 0.000000
0.008889 0.160000 0.000000
0.005926 0.160000 0.000000
0.002963 0.160000 0.000000
0.000000 0.157037 0.000000
0.000000 0.154074 0.000000
0.000000 0.151111 0.000000
0.000000 0.148148 0.000000
0.000000 0.145185 0.000000
0.000000 0.142222 0.000000
0.000000 0.139259 0.000000
0.000000 0.136296 0.000000
0.000000 0.133333 0.000000
0.000000 0.130370 0.000000
0.000000 0.127407 0.000000
0.000000 0.124444 0.000000
0.000000 0.121481 0.000000
0.000000 0.118519 0.000000
0.000000 0.115556 0.000000
0.000000 0.112593 0.000000
0.000000 0.109630 0.000000
0.000000 0.106667 0.000000
0.000000 0.103704 0.000000
0.000000 0.100741 0.000000
0.000000 0.097778 0.000000
0.000000 0.094815 0.000000
0.000000 0.091852 0.000000
0.000000 0.088889 0.000000
0.000000 0.085926 0.000000
0.000000 0.082963 0.000000
0.000000 0.080000 0.000000
0.000000 0.077037 0.000000
0.000000 0.074074 0.000000
0.000000 0.071111 0.000000
0.000000 0.068148 0.000000
0.000000 0.065185 0.000000
0.000000 0.062222 0.000000
0.000000 0.059259 0.000000
0.000000 0.056296 0.000000
0.000000 0.053333 0.000000
0.000000 0.050370 0.000000
0.000000 0.047407 0.000000
0.000000 0.044444 0.000000
0.000000 0.041481 0.000000
0.000000 0.038519 0.000000
0.000000 0.035556 0.000000
0.000000 0.032593 0.000000
0.000000 0.029630 0.000000
0.000000 0.026667 0.000000
0.000000 0.023704 0.000000
0.000000 0.020741 0.000000
0.000000 0.017778 0.000000
0.000000 0.014815 0.000000
0.000000 0.011852 0.000000
0.000000 0.008889 0.000000
0.000000 0.005926 0.000000
0.000000 0.002963 0.000000
0.035500 0.072746 0.000000
0.035000 0.072419 0.000000
0.034500 0.072093 0.000000
0.034000 0.071767 0.000000
0.033500 0.071440 0.000000
0.033000 0.071114 0.000000
0.032500 0.070788 0.000000
0.032000 0.070461 0.000000
0.031500 0.070135 0.000000
0.031000 0.069809 0.000000
0.030500 0.069482 0.000000
0.030000 0.069156 0.000000
0.029500 0.068829 0.000000
0.029000 0.068503 0.000000
0.028500 0.068177 0.000000
0.028000 0.067850 0.000000
0.027500 0.067524 0.000000
0.027000 0.067198 0.000000
0.026500 0.066871 0.000000
0.026000 0.066545 0.000000
0.025500 0.066219 0.000000
0.025000 0.065892 0.000000
0.044500 0.087216 0.000000
0.045000 0.087505 0.000000
0.045500 0.087793 0.000000
0.046000 0.088081 0.000000
0.046500 0.088370 0.000000
0.047000 0.088658 0.000000
0.047500 0.088946 0.000000
0.048000 0.089235 0.000000
0.048500 0.089523 0.000000
0.049000 0.089811 0.000000
0.049500 0.090100 0.000000
0.050000 0.090388 0.000000
0.050500 0.090677 0.000000
0.051000 0.090965 0.000000
0.051500 0.091253 0.000000
0.052000 0.091542 0.000000
0.052500 0.091830 0.000000
0.053000 0.092118 0.000000
0.053500 0.092407 0.000000
0.054000 0.092695 0.000000
0.054500 0.092983 0.000000
0.055000 0.093272 0.000000
0.043704 0.086415 0.000000
0.043407 0.085902 0.000000
0.043111 0.085388 0.000000
0.042815 0.084875 0.000000
0.042519 0.084362 0.000000
0.042222 0.083849 0.000000
0.041926 0.083336 0.000000
0.041630 0.082823 0.000000
0.041333 0.082309 0.000000
0.041037 0.081796 0.000000
0.040741 0.081283 0.000000
0.040444 0.080770 0.000000
0.040148 0.080257 0.000000
0.039852 0.079743 0.000000
0.039556 0.079230 0.000000
0.039259 0.078717 0.000000
0.038963 0.078204 0.000000
0.038667 0.077691 0.000000
0.038370 0.077177 0.000000
0.038074 0.076664 0.000000
0.037778 0.076151 0.000000
0.037481 0.075638 0.000000
0.037185 0.075125 0.000000
0.036889 0.074612 0.000000
0.036593 0.074098 0.000000
0.036296 0.073585 0.000000
0.024000 0.065235 0.000000
0.023500 0.064904 0.000000
0.023000 0.064572 0.000000
0.022500 0.064241 0.000000
0.022000 0.063910 0.000000
0.021500 0.063579 0.000000
0.021000 0.063248 0.000000
0.020500 0.062916 0.000000
0.020000 0.062585 0.000000
0.019500 0.062254 0.000000
0.019000 0.061923 0.000000
0.018500 0.061592 0.000000
0.018000 0.061261 0.000000
0.017500 0.060929 0.000000
0.017000 0.060598 0.000000
0.016500 0.060267 0.000000
0.016000 0.059936 0.000000
0.015500 0.059605 0.000000
0.015000 0.059273 0.000000
0.014500 0.058942 0.000000
0.014000 0.058611 0.000000
0.013500 0.058280 0.000000
0.013000 0.057949 0.000000
0.012500 0.057617 0.000000
0.012000 0.057286 0.000000
0.011500 0.056955 0.000000
0.011000 0.056624 0.000000
0.010500 0.056293 0.000000
0.010000 0.055961 0.000000
0.009500 0.055630 0.000000
0.009000 0.055299 0.000000
0.008500 0.054968 0.000000
0.008000 0.054637 0.000000
0.007500 0.054305 0.000000
0.007000 0.053974 0.000000
0.006500 0.053643 0.000000
0.006000 0.053312 0.000000
0.005500 0.052981 0.000000
0.005000 0.052650 0.000000
0.004500 0.052318 0.000000
0.004000 0.051987 0.000000
0.003500 0.051656 0.000000
0.003000 0.051325 0.000000
0.002500 0.050994 0.000000
0.002000 0.050662 0.000000
0.001500 0.050331 0.000000
0.055990 0.093902 0.000000
0.056479 0.094245 0.000000
0.056969 0.094587 0.000000
0.057458 0.094930 0.000000
0.057948 0.095272 0.000000
0.058437 0.095615 0.000000
0.058927 0.095957 0.000000
0.059417 0.096300 0.000000
0.059906 0.096642 0.000000
0.060396 0.096985 0.000000
0.060885 0.097327 0.000000
0.061375 0.097670 0.000000
0.061865 0.098012 0.000000
0.062354 0.098355 0.000000
0.062844 0.098697 0.000000
0.063333 0.099040 0.000000
0.063823 0.099382 0.000000
0.064312 0.099725 0.000000
0.064802 0.100067 0.000000
0.065292 0.100410 0.000000
0.065781 0.100752 0.000000
0.066271 0.101095 0.000000
0.066760 0.101437 0.000000
0.067250 0.101780 0.000000
0.067740 0.102122 0.000000
0.068229 0.102465 0.000000
0.068719 0.102807 0.000000
0.069208 0.103150 0.000000
0.069698 0.103492 0.000000
0.070187 0.103835 0.000000
0.070677 0.104177 0.000000
0.071167 0.104520 0.000000
0.071656 0.104862 0.000000
0.072146 0.105205 0.000000
0.072635 0.105547 0.000000
0.073125 0.105890 0.000000
0.073615 0.106232 0.000000
0.074104 0.106575 0.000000
0.074594 0.106917 0.000000
0.075083 0.107260 0.000000
0.075573 0.107602 0.000000
0.076062 0.107945 0.000000
0.076552 0.108287 0.000000
0.077042 0.108630 0.000000
0.077531 0.108972 0.000000
0.078021 0.109315 0.000000
0.078510 0.109658 0.000000
0.043942 0.087469 0.000000
0.035556 0.157037 0.000000
0.044420 0.002920 0.000000
0.077037 0.038519 0.000000
0.002963 0.121481 0.000000
0.077037 0.059259 0.000000
0.002963 0.109630 0.000000
0.002923 0.098139 0.000000
0.077153 0.126913 0.000000
0.002808 0.032596 0.000000
0.077140 0.071061 0.000000
0.002963 0.085926 0.000000
0.002963 0.136296 0.000000
0.077041 0.023701 0.000000
0.056296 0.157037 0.000000
0.032593 0.002963 0.000000
0.077037 0.080000 0.000000
0.002813 0.077135 0.000000
0.077037 0.142222 0.000000
0.017778 0.157037 0.000000
0.062222 0.002963 0.000000
0.076992 0.088722 0.000000
0.002945 0.020743 0.000000
0.017777 0.002962 0.000000
0.002801 0.068434 0.000000
0.002959 0.011851 0.000000
0.065186 0.157038 0.000000
0.002963 0.148148 0.000000
0.077037 0.011852 0.000000
0.076887 0.094740 0.000000
0.077092 0.115875 0.000000
0.002677 0.044265 0.000000
0.077038 0.148148 0.000000
0.002985 0.062165 0.000000
0.077037 0.047407 0.000000
0.011852 0.002963 0.000000
[...]
POINT_DATA 4677
SCALARS UX float 1
LOOKUP_TABLE default
-0.000001
0.000002
0.196275
0.052505
0.023655
0.038441
-0.027810
0.085876
-0.056128
0.224528
-0.000000
-0.000000
-0.000000
-0.000000
-0.000000
-0.000000
-0.000000
-0.000000
-0.000000
-0.000000
-0.000000
-0.000000
-0.000000
0.000000
0.000000
0.000000
0.000000
0.000000
0.000000
0.000000
0.000000
0.000000
0.000000
0.000000
0.000000
-0.000000
0.001999
0.003929
0.005939
0.008624
0.011161
0.015066
0.019264
0.023984
0.029101
0.034422
0.039823
0.046054
0.052049
0.058160
0.061396
0.064610
0.069579
0.073099
0.076629
0.081209
0.086191
0.092497
0.098905
0.105112
0.114185
0.121389
0.128527
0.135844
0.140140
0.143385
0.152267
0.162221
0.171799
0.179354
0.188563
0.203030
0.225580
0.247347
0.268586
0.242939
0.211492
0.198348
0.195082
0.192422
0.195174
0.196363
0.193963
0.193570
0.194003
0.193195
0.192858
0.193912
0.195155
0.191100
0.185395
0.179949
0.175287
0.170200
0.164275
0.158333
0.152851
0.147876
0.143276
0.139046
0.135006
0.131059
0.127100
0.123003
0.118630
0.114017
0.109096
0.103895
0.098408
0.092623
0.086550
0.080222
0.073625
0.066690
0.059776
0.051753
0.050362
0.048366
0.045872
0.043004
0.039882
0.036620
0.033217
0.029787
0.026354
0.022882
0.019503
0.016373
0.013657
0.011389
0.009584
0.008145
0.006857
0.005446
0.003623
0.001203
-0.001951
-0.005848
-0.010183
-0.014969
-0.020904
-0.027811
-0.034276
-0.042379
-0.048468
-0.055099
-0.061895
-0.065271
-0.068957
-0.069705
-0.065232
-0.058126
-0.050462
-0.043014
-0.036216
-0.034119
-0.033187
-0.031776
-0.029653
-0.027848
-0.025545
-0.023357
-0.021393
-0.017496
-0.015730
-0.013704
-0.007944
-0.001415
0.022253
0.021248
0.016557
0.016633
0.016666
0.011797
0.009190
0.005879
0.002061
-0.003158
-0.005244
-0.007208
-0.007624
-0.009366
-0.010509
-0.013649
-0.016789
-0.020783
-0.016762
-0.024786
-0.024360
-0.026137
0.042364
0.048659
0.048619
0.048794
0.049950
0.051575
0.049947
0.052059
0.056058
0.059434
0.060820
0.062429
0.062835
0.064022
0.065753
0.066722
0.069203
0.071743
0.073749
0.071787
0.083069
0.087280
0.036354
0.037365
0.035014
0.033987
0.033714
0.037244
0.036670
0.036022
0.035674
0.035345
0.034948
0.034617
0.033638
0.033009
0.030405
0.028238
0.031717
0.034649
0.033914
0.033067
0.031946
0.032305
0.031822
0.032073
0.028524
0.026292
-0.029143
-0.030343
-0.029176
-0.030595
-0.032665
-0.034694
-0.034769
-0.036152
-0.037814
-0.040157
-0.047836
-0.043257
-0.048858
-0.054061
-0.057122
-0.057398
-0.057694
-0.058730
-0.059498
-0.060266
-0.061004
-0.061147
-0.061250
-0.061374
-0.061506
-0.061951
-0.061768
-0.061316
-0.060985
-0.060643
-0.060331
-0.060038
-0.059753
-0.059518
-0.059303
-0.059100
-0.058894
-0.058694
-0.058494
-0.058271
-0.058033
-0.057772
-0.057514
-0.057224
-0.056923
-0.056546
0.089171
0.092279
0.095619
0.099128
0.102592
0.106033
0.109271
0.111475
0.114347
0.120967
0.116301
0.121684
0.125476
0.129371
0.131725
0.135089
0.138394
0.141758
0.144871
0.147790
0.150566
0.152784
0.155123
0.157461
0.159916
0.162481
0.165156
0.167178
0.169859
0.172147
0.174448
0.176549
0.178360
0.179958
0.182053
0.184193
0.186125
0.188217
0.190521
0.193113
0.195909
0.198862
0.202588
0.207312
0.211605
0.215890
0.220063
0.041434
0.122871
-0.000069
0.046851
0.021415
0.077828
0.012313
0.005402
0.191687
-0.030226
0.101566
-0.011832
0.039490
0.019087
0.153024
0.000069
0.123177
-0.030968
0.188877
0.092360
-0.000067
0.138474
-0.021542
-0.000076
-0.053312
-0.013605
0.169854
0.053182
0.005416
0.153620
0.261291
-0.039571
0.188152
-0.064944
0.062651
-0.000139
0.180339
0.066662
0.000117
-0.069033
0.171201
0.188842
0.131001
0.139111
0.000067
0.032135
0.028926
0.103668
0.000027
0.190822
0.223941
-0.032594
0.037950
0.199197
-0.032107
-0.069203
-0.038873
0.128729
-0.001679
-0.019658
0.087137
0.108860
0.070148
0.009310
0.182934
0.015937
-0.028021
-0.026419
0.053314
0.113861
0.190348
0.000007
0.000054
0.028426
0.034561
0.000002
-0.019209
0.000052
0.158708
0.143317
0.046663
0.011542
-0.009753
-0.000197
-0.000574
0.079898
0.000036
0.188493
0.000075
-0.000240
0.057988
0.001414
0.059407
0.000207
0.220827
0.038941
-0.054175
-0.061305
0.202113
0.043572
-0.000037
0.042068
0.100945
-0.025085
-0.015677
0.202057
0.143832
0.037755
0.183803
0.000253
-0.031601
-0.015354
-0.067256
0.116568
0.174563
0.152812
-0.010298
-0.000250
-0.000183
0.183296
0.065340
0.000268
0.240595
-0.047188
0.163552
-0.060364
0.145959
-0.046745
-0.058573
0.134201
0.194252
-0.031787
0.215768
-0.024701
0.116332
-0.005750
0.002450
0.093519
0.082262
0.007425
0.010845
0.073807
0.013866
0.066741
0.189293
0.059547
0.018424
0.127032
0.024810
0.040679
0.118546
-0.000021
0.135037
-0.024085
0.108916
0.000023
-0.000000
0.187911
0.035800
0.023700
0.147920
0.000081
0.098169
-0.000033
-0.015845
0.000065
0.164601
0.043105
0.015207
-0.000156
0.050066
0.008602
0.174659
0.188630
0.086279
-0.000016
0.185881
0.189437
0.073424
0.000074
0.055868
0.003167
-0.054541
0.224345
0.214543
-0.066531
-0.055546
0.048434
0.038036
0.193054
-0.065922
0.218045
-0.030948
0.042998
0.033640
0.042286
0.077579
0.004476
0.014683
0.207998
-0.031316
0.118112
0.097371
-0.042495
0.000033
0.018831
0.138085
0.049643
0.085414
0.157461
0.005392
0.057066
-0.000045
0.218403
-0.052969
0.186383
0.070920
0.018102
0.063769
0.023250
0.135260
0.041628
0.163692
-0.000015
-0.000296
0.063163
0.175330
0.183983
-0.051934
0.226546
-0.042235
0.237378
0.114702
-0.060583
0.188266
-0.022727
-0.063868
0.130422
0.122212
0.011204
0.188439
-0.028974
-0.030210
-0.036424
0.088675
0.095112
-0.003875
0.036101
0.000142
0.000084
-0.023338
0.054703
0.048767
-0.000041
-0.000086
-0.007407
0.183728
0.139548
0.108259
0.148187
0.029939
0.033586
0.180589
0.182577
0.183501
0.126848
-0.020754
0.000261
0.158599
-0.012876
0.000263
0.011501
-0.000059
-0.017631
0.000208
-0.000290
0.185307
0.072379
0.000125
0.001212
-0.026621
0.041794
0.048121
0.211255
-0.054795
-0.058867
0.230780
-0.053439
0.208117
0.037726
0.048736
0.036385
0.046844
0.044519
0.000124
0.042847
0.088709
-0.000554
0.136065
0.035538
-0.023638
0.178547
0.115942
0.000319
0.149153
-0.016591
-0.011528
-0.000258
-0.051766
0.213886
0.184273
0.039158
-0.035944
0.030825
-0.000088
0.176601
0.000129
0.158175
0.177715
0.043623
0.070220
0.000257
0.036925
-0.050426
0.144240
-0.026321
-0.063677
0.013004
-0.028824
0.001419
0.007570
0.024056
0.081463
0.237088
0.074436
0.016280
0.066924
0.107537
0.020547
0.183466
0.132153
-0.005253
0.130867
0.000183
0.113560
0.045752
0.059858
-0.000028
0.103070
-0.018829
0.140098
0.030833
0.026533
-0.000020
0.091564
0.184184
0.014914
-0.009063
0.000188
0.008038
0.179871
0.168757
-0.000190
0.053444
-0.000097
0.122541
0.079136
0.060357
0.181108
0.003115
0.000026
-0.029441
0.194411
-0.035489
0.039554
-0.061446
0.042716
0.048789
0.194971
-0.046387
0.226830
0.035923
0.048753
0.203781
-0.059247
-0.049804
0.201254
0.223472
0.055058
0.042228
0.048344
-0.056266
-0.039746
0.041973
0.045221
0.072596
0.014933
0.002247
-0.023248
0.192418
0.136228
-0.032253
-0.033489
0.107690
0.131384
0.056217
-0.000013
0.014859
-0.015241
-0.063128
0.089861
0.020026
-0.000082
0.005226
0.064155
0.000286
0.221857
0.127082
0.025452
0.031797
0.177646
-0.009714
-0.000283
0.001179
0.077033
0.092540
-0.044158
0.223823
0.180227
-0.042908
0.008100
-0.012423
0.004061
0.000402
0.079938
0.024235
0.016588
0.048784
0.132125
-0.000144
-0.027951
0.184930
0.178824
-0.021850
0.124796
0.111718
0.144906
0.060110
0.172252
-0.021429
0.047803
0.101667
0.000055
0.036682
-0.014258
0.153759
-0.000100
0.084220
-0.000043
0.117674
0.162859
0.175793
0.039538
0.011239
-0.006712
0.178466
-0.000309
-0.000069
0.060190
0.067382
-0.000033
0.000066
-0.029900
0.046772
0.038373
0.049258
-0.053675
-0.056386
0.207098
0.199000
0.037561
-0.060088
0.043046
0.189799
-0.056371
0.048904
0.230316
0.120030
0.182056
0.100461
-0.038444
-0.048164
0.035281
0.049960
0.217045
0.034452
0.049905
0.037456
0.076502
0.036303
-0.000139
0.104863
-0.031315
0.176525
0.208148
0.119771
0.149528
0.049669
0.105463
0.000253
-0.042582
0.170052
-0.000038
0.012138
0.210773
0.158031
0.062840
0.074232
0.046057
-0.016357
0.021357
0.182369
0.083416
-0.000185
-0.000023
-0.010536
-0.001537
0.000262
0.036785
0.218812
0.006421
0.067192
0.034471
-0.020449
0.000462
0.011991
0.054562
0.076120
0.130699
0.184958
0.018410
0.047353
0.022322
-0.000135
0.028765
0.174162
0.144403
-0.026617
0.126157
0.180809
-0.047538
0.095357
-0.000034
0.114679
-0.002550
-0.013063
-0.027147
0.041049
0.025720
-0.008272
0.122305
0.174146
0.095942
0.007797
0.000278
0.169485
-0.000077
0.052106
0.140430
-0.000176
0.172252
0.112756
0.003045
0.064006
0.083597
0.018953
0.192557
-0.057314
0.045765
-0.059372
-0.046669
0.048495
0.042739
0.035628
0.037439
0.040862
0.041402
-0.037038
0.035574
0.049940
0.052013
0.010454
-0.037587
-0.017324
-0.060338
0.177591
0.069760
0.201936
0.126430
0.108443
-0.050646
-0.059277
0.187640
0.049131
0.207765
-0.054996
-0.025682
0.191414
0.194139
0.047804
0.047611
0.040767
0.021265
0.005392
0.178493
0.131981
0.042397
-0.031078
0.000117
-0.019646
0.017000
-0.034840
0.206167
0.000338
0.114451
-0.012038
0.172651
0.146252
-0.045411
-0.062499
0.093732
0.199872
0.071445
0.178016
0.054532
0.121599
0.037435
0.166199
0.026296
-0.009060
0.111136
-0.000009
-0.000296
0.169472
0.004951
-0.040585
-0.000053
0.058496
0.001206
0.070785
0.037913
0.051992
0.015318
-0.020423
-0.008947
-0.024899
0.065572
0.074675
0.010461
-0.026825
0.017455
0.109671
0.000205
-0.054246
0.081426
0.032193
-0.000100
0.000458
-0.060957
0.045463
0.099361
0.170943
0.200008
0.140870
0.000045
-0.004401
0.163351
0.087868
0.043428
0.153955
-0.000034
0.053948
0.007521
0.173574
0.031049
0.066884
0.188081
0.126032
0.099747
0.000058
-0.000089
0.184765
0.080889
-0.057229
0.126782
0.195362
0.213053
0.036903
0.053756
-0.048819
-0.054240
0.178895
-0.041233
0.047498
0.123616
0.042806
0.038199
0.039001
0.047541
0.041997
0.042309
0.012988
0.050327
0.196648
0.037140
0.046437
0.187446
-0.062142
-0.022337
-0.056664
0.190266
0.044813
-0.057142
0.177309
-0.019155
0.046606
0.044953
0.172001
0.040288
0.069002
0.079659
0.008922
-0.024129
0.097694
-0.038727
-0.000088
0.145356
0.109064
0.055706
0.005476
0.047646
0.033971
-0.000042
-0.048457
-0.055375
0.017121
-0.012632
0.012230
-0.019366
0.038219
0.154447
0.039011
0.087271
-0.000164
0.164149
0.167560
0.073539
0.097136
0.038681
0.014778
0.019844
0.050953
0.024329
-0.019114
0.000216
0.000397
0.183877
0.061884
-0.053983
-0.043567
0.107411
0.036679
-0.063691
0.125803
0.041091
-0.029878
0.073752
-0.058854
0.116759
0.048342
-0.010001
-0.014382
0.170006
0.000209
0.047013
0.169477
-0.051786
-0.065323
0.001029
0.123229
0.118534
-0.003373
-0.035638
0.136366
-0.008124
0.060253
0.150551
0.032038
0.021363
0.077578
0.168957
0.000318
0.003076
0.197882
0.087463
0.064830
0.000007
0.029439
0.177215
0.131431
0.000038
0.046767
0.206746
0.202086
0.054520
-0.055167
0.195827
0.175430
0.193104
-0.061001
0.045855
0.036315
0.036977
0.040203
-0.026302
0.052376
0.038232
-0.044177
0.037934
0.182934
0.207811
-0.062120
0.048520
0.069172
0.166692
0.022685
0.044344
-0.000099
0.190693
0.047067
0.184945
0.051647
-0.057396
0.162934
0.043636
0.031421
0.047107
-0.025522
0.005056
0.000441
-0.029830
0.013693
0.108374
-0.050027
0.127657
0.168888
-0.000030
0.061885
-0.011227
0.022580
0.129587
-0.064941
-0.047047
0.193632
-0.055356
0.164324
0.030905
-0.017291
0.000002
0.037723
0.114125
0.011965
0.165763
-0.004274
0.003195
0.080371
0.062725
0.039758
-0.060904
0.201480
0.120411
-0.051463
0.050955
0.007898
-0.021807
-0.036275
0.082606
0.149495
0.034496
0.044634
0.103039
0.119596
-0.038929
-0.009645
-0.002789
0.077501
0.000562
0.091631
0.048268
0.071223
-0.000049
0.001390
0.159264
-0.007161
-0.000035
0.090942
0.024748
0.140870
0.000091
0.103358
-0.062609
-0.005409
0.026051
-0.018186
0.193089
0.019961
0.016515
0.000440
0.066492
0.084168
0.069377
0.176007
-0.033203
0.051251
0.190867
0.066996
0.013022
0.136291
0.173597
0.040805
0.045932
0.040265
0.054089
0.036297
0.037690
0.035958
0.196710
0.056159
0.201827
0.036628
0.187741
0.184889
0.044644
0.041205
0.180162
0.000278
-0.056580
0.035690
0.056397
-0.053594
-0.066234
0.018444
0.178973
0.041647
0.027814
0.048060
-0.060952
-0.065657
-0.015203
0.178952
0.048904
-0.057888
0.050338
-0.042450
0.197504
0.181163
0.046143
0.041359
0.037278
0.043296
0.068734
0.025033
0.008421
0.089430
0.000556
0.049655
0.188071
0.132315
-0.045370
0.140659
-0.053316
0.112573
0.067997
0.100329
0.037970
0.076384
-0.066470
-0.009029
0.152735
0.031381
-0.011674
0.049052
0.050494
0.040139
0.005318
0.049161
0.016829
-0.004800
-0.000169
0.001474
0.086978
0.076147
-0.000089
0.057318
0.174663
0.063823
0.000511
-0.014659
0.187817
0.081269
0.160771
0.098764
0.058218
0.124115
0.114316
0.010197
-0.050463
0.136197
0.073989
-0.023512
-0.063653
-0.000110
-0.030854
-0.041992
0.178691
0.014543
-0.067125
0.000439
-0.000072
0.162169
-0.010272
0.000104
0.166746
-0.058283
0.071144
-0.034547
0.141845
0.018294
0.045823
0.124534
0.052646
0.027207
0.017558
0.145435
0.011287
0.000372
-0.021581
-0.018023
0.167987
0.000343
0.172873
0.035813
0.035561
0.179297
0.026487
0.177777
-0.062717
-0.062343
0.036074
0.036945
0.172145
0.053545
0.057130
0.040201
0.000700
0.196165
0.192291
0.057808
-0.053125
0.196527
0.038513
-0.059126
0.040798
0.021028
0.042403
0.190075
0.047943
0.161310
0.047396
-0.039754
0.041421
-0.055807
0.175157
0.182424
0.035360
0.059596
-0.034366
-0.067731
0.052337
0.178470
-0.019037
0.035643
0.154855
0.043471
-0.018918
0.045635
0.038605
0.011404
-0.031284
-0.027005
0.140219
0.175293
0.014074
0.111134
-0.043204
0.121610
0.164990
0.035339
0.018862
0.000264
0.169862
0.048799
0.036724
0.039480
-0.037260
0.122946
0.014160
-0.065588
0.045732
0.048526
-0.000066
0.000010
0.000428
-0.010087
-0.064519
0.021921
0.039071
0.043593
0.160762
0.027197
0.174672
-0.001046
-0.012455
-0.043845
0.190689
-0.049174
0.070252
0.091346
-0.022055
-0.005275
0.119513
0.159033
-0.006704
-0.017667
0.004678
0.167292
0.163203
0.000482
0.002715
0.082878
0.026745
0.191944
0.078639
0.094013
0.063169
0.135521
-0.000091
0.150202
0.106467
0.185281
0.059643
0.021827
-0.015281
0.000104
0.010583
0.167116
0.073966
0.134685
0.065951
0.053859
0.171958
-0.052924
0.037604
0.023264
0.000596
-0.067859
0.035603
0.053393
0.047817
0.056480
0.057945
0.040267
-0.056404
-0.061924
0.039626
0.168661
0.029154
0.044501
0.059659
-0.037311
0.036378
0.042907
0.153883
0.177549
0.156389
-0.012026
-0.057810
0.035226
0.149367
0.085930
0.058822
0.184964
0.050451
0.041397
0.035275
0.179705
-0.002795
0.016866
0.056356
0.041116
0.167547
-0.065799
-0.062361
0.128012
0.035080
0.061709
-0.017585
0.067626
0.040013
0.046905
0.148730
0.046816
0.019915
0.091487
0.076934
0.165037
-0.040862
0.000311
0.068968
0.011153
0.139407
0.162094
0.033416
0.132283
0.000309
-0.008225
0.026110
-0.060346
0.060040
0.169110
0.106572
-0.064857
0.008334
0.049777
0.135179
-0.056022
0.104664
0.089516
0.018032
-0.000174
0.020800
-0.012638
0.163478
0.055219
0.055545
0.157122
-0.006242
0.188712
0.039198
0.118062
0.154460
-0.030847
-0.018822
-0.046870
0.007057
0.046540
0.127746
-0.066444
-0.000131
0.125050
-0.051934
0.001691
0.017756
0.111800
0.000078
0.154439
0.000608
0.031388
0.034842
0.059561
0.164233
0.163223
0.078138
0.084484
0.177761
0.058321
-0.040478
-0.000438
0.145634
0.022167
-0.000167
0.013786
0.065916
0.117362
0.028036
0.033776
0.074109
0.166731
-0.007365
0.073258
-0.026833
0.161130
0.000539
0.153991
-0.015919
0.035122
0.039105
0.048048
0.167538
0.034276
0.049321
0.188420
0.052378
0.035214
0.034761
0.038455
0.035865
0.037061
-0.063382
0.182152
0.179092
0.040818
0.055703
0.058465
-0.019103
0.043845
-0.035585
0.059952
0.040148
0.156754
0.174255
-0.065416
0.043997
-0.003613
-0.054501
0.114903
0.061788
0.063602
0.187549
0.041784
-0.033980
0.054248
-0.058835
-0.051608
-0.061706
0.048450
-0.064560
0.070120
0.051617
0.058227
0.041400
0.066034
-0.019137
0.011761
0.041386
0.020966
0.047402
-0.032890
0.153843
-0.028388
0.108445
0.000419
-0.040963
0.119838
0.133477
0.128956
0.074935
-0.051888
0.028785
0.114308
0.162254
-0.006597
0.184211
-0.000205
0.161690
0.181572
0.000425
0.079177
-0.064710
0.034878
0.064168
-0.064662
0.051593
0.000620
0.034912
0.039213
0.051663
0.036099
0.153610
-0.062724
0.052042
0.000606
0.063531
0.003203
0.046941
0.101477
0.152547
0.106106
-0.038481
-0.000878
0.083495
0.004591
-0.000337
0.168164
0.148085
0.059415
0.096896
0.085156
0.062952
0.140663
0.014608
0.022176
0.015690
0.014110
-0.022451
0.136695
0.121078
0.056616
0.000349
0.030440
0.023104
0.064408
0.051462
-0.016387
-0.009324
0.074582
0.007721
0.160679
-0.059690
-0.057169
0.038773
0.037863
0.162144
-0.038792
-0.035732
0.150534
0.055917
-0.011616
-0.000380
-0.013137
0.022630
0.037650
0.034696
0.181482
0.040206
0.034470
0.064681
-0.002772
0.080498
0.051138
0.150030
0.049191
0.071790
0.055298
0.035435
0.171381
0.038495
0.058347
0.038443
0.060083
0.158532
0.145742
0.049886
0.038673
0.116261
0.184434
-0.063377
0.185204
0.043132
0.130524
-0.064782
-0.028414
0.034402
0.037891
0.059029
0.061875
0.177014
0.050743
0.117208
0.005389
-0.062996
0.036472
-0.059194
-0.005150
-0.053345
0.159405
-0.012918
-0.044716
-0.050364
0.147650
0.053841
0.052154
0.046411
0.062022
0.143490
0.014712
0.047945
-0.030022
0.086575
0.155891
0.075819
0.136781
-0.037157
0.010982
0.178308
0.118210
0.116931
0.136615
-0.008058
0.044112
-0.007225
0.036943
0.034645
0.023621
0.001348
0.145254
-0.018362
0.034530
0.000145
0.035581
0.069501
-0.060899
0.056787
-0.023581
-0.063756
0.144237
0.040954
0.043983
0.005136
0.127726
0.157355
0.054336
0.149904
0.156018
0.041480
0.026247
0.126376
0.007547
-0.035388
0.165792
0.031140
0.000498
-0.001105
0.043589
0.091697
0.098300
-0.045815
0.108980
0.156380
-0.000041
0.062828
-0.052358
0.069815
0.062730
0.067446
0.154963
0.016279
0.019739
0.123156
-0.004147
0.144367
0.112365
0.051524
0.018702
0.072874
0.056965
0.103782
0.026443
-0.000039
0.056240
0.060861
0.007797
-0.000169
-0.014045
-0.016977
0.170802
0.157166
0.080215
-0.018838
0.000368
0.155055
-0.011505
0.079924
0.162485
0.036813
0.177407
0.065374
0.034373
0.040731
0.049470
0.145943
0.048586
0.038860
0.055154
-0.064585
-0.062535
-0.032484
0.035960
0.034783
0.057864
0.065711
0.060657
0.043635
0.150695
0.039934
0.103280
0.180594
0.051341
0.035399
-0.023394
0.037311
-0.043009
-0.056244
0.126252
0.054104
-0.048644
0.178841
0.169197
0.182523
0.175415
-0.064058
0.007713
-0.060525
0.033571
0.061082
-0.058122
-0.054939
0.132970
0.051645
-0.021482
0.138577
0.062140
-0.033158
0.070530
0.082496
-0.025830
0.109932
0.111687
0.176673
-0.000101
0.009148
0.075229
-0.046562
0.129918
0.137088
0.150281
0.155543
0.176792
0.031365
0.039742
-0.013806
0.051186
0.098776
0.018917
0.000569
0.169578
-0.000005
0.000305
-0.051251
0.042946
0.057420
-0.055648
-0.005784
-0.003385
0.036211
0.064928
0.045628
0.031176
0.060607
-0.063224
0.065944
0.085999
0.144853
0.152163
0.140640
-0.039491
0.114410
0.003831
0.141046
-0.062615
0.016302
0.035382
0.090762
0.158446
0.015232
0.063593
0.105311
0.022600
0.165682
0.017877
0.168628
0.000234
0.176801
0.069843
0.124838
0.101606
0.062416
-0.026087
0.055488
-0.015008
0.080844
-0.011473
-0.008590
0.005549
-0.018838
-0.055433
0.145252
0.156561
-0.018450
-0.000694
0.078954
0.059725
0.160753
0.130857
0.053231
0.040293
0.033347
0.149862
0.143736
0.054857
0.038080
0.036310
0.032088
0.049484
0.067811
-0.033979
0.065071
0.053929
-0.042040
0.043093
0.121670
0.003274
0.045885
0.038182
0.035037
0.175409
0.025310
-0.063770
0.057472
0.055913
0.122655
0.060464
0.035702
0.167689
0.035950
-0.009693
-0.046765
0.037803
0.012351
0.033129
0.067154
-0.062148
0.056495
-0.059813
-0.062336
0.179750
0.172239
0.150951
-0.022402
0.044572
0.041535
0.059409
0.037324
0.060758
0.023030
0.097458
0.156890
-0.058224
-0.018563
0.058240
0.042444
-0.029249
0.134901
0.034589
-0.035488
0.107079
-0.000070
0.116143
-0.050258
0.134009
0.087301
0.123051
0.174477
0.081157
0.041535
-0.007025
-0.049868
0.133879
-0.003692
0.145042
0.065882
0.036750
-0.056865
0.078001
0.061641
0.055680
0.118543
0.001363
0.150989
-0.000311
0.086484
0.044863
0.060888
0.098639
-0.020374
0.069650
-0.000953
-0.060018
0.046399
0.127811
-0.023668
0.056724
0.066984
-0.061912
-0.041865
0.000014
0.145672
-0.054369
0.149305
0.016707