# vtk DataFile Version 2.0
Test
ASCII
DATASET POLYDATA
POINTS 4677 float
0.000000 0.000000 0.000000
0.080000 0.000000 0.000000
0.080000 0.160000 0.000000
0.000000 0.160000 0.000000
0.036000 0.073072 0.000000
0.044000 0.086928 0.000000
0.024500 0.065566 0.000000
0.055500 0.093560 0.000000
0.001000 0.050000 0.000000
0.079000 0.110000 0.000000
0.002963 0.000000 0.000000
0.005926 0.000000 0.000000
0.008889 0.000000 0.000000
0.011852 0.000000 0.000000
0.014815 0.000000 0.000000
0.017778 0.000000 0.000000
0.020741 0.000000 0.000000
0.023704 0.000000 0.000000
0.026667 0.000000 0.000000
0.029630 0.000000 0.000000
0.032593 0.000000 0.000000
0.035556 0.000000 0.000000
0.038519 0.000000 0.000000
0.041481 0.000000 0.000000
0.044444 0.000000 0.000000
0.047407 0.000000 0.000000
0.050370 0.000000 0.000000
0.053333 0.000000 0.000000
0.056296 0.000000 0.000000
0.059259 0.000000 0.000000
0.062222 0.000000 0.000000
0.065185 0.000000 0.000000
0.068148 0.000000 0.000000
0.071111 0.000000 0.000000
0.074074 0.000000 0.000000
0.077037 0.000000 0.000000
0.080000 0.002963 0.000000
0.080000 0.005926 0.000000
0.080000 0.008889 0.000000
0.080000 0.011852 0.000000
0.080000 0.014815 0.000000
0.080000 0.017778 0.000000
0.080000 0.020741 0.000000
0.080000 0.023704 0.000000
0.080000 0.026667 0.000000
0.080000 0.029630 0.000000
0.080000 0.032593 0.000000
0.080000 0.035556 0.000000
0.080000 0.038519 0.000000
0.080000 0.041481 0.000000
0.080000 0.044444 0.000000
0.080000 0.047407 0.000000
0.080000 0.050370 0.000000
0.080000 0.053333 0.000000
0.080000 0.056296 0.000000
0.080000 0.059259 0.000000
0.080000 0.062222 0.000000
0.080000 0.065185 0.000000
0.080000 0.068148 0.000000
0.080000 0.071111 0.000000
0.080000 0.074074 0.000000
0.080000 0.077037 0.000000
0.080000 0.080000 0.000000
0.080000 0.082963 0.000000
0.080000 0.085926 0.000000
0.080000 0.088889 0.000000
0.080000 0.091852 0.000000
0.080000 0.094815 0.000000
0.080000 0.097778 0.000000
0.080000 0.100741 0.000000
0.080000 0.103704 0.000000
0.080000 0.106667 0.000000
0.080000 0.109630 0.000000
0.080000 0.112593 0.000000
0.080000 0.115556 0.000000
0.080000 0.118519 0.000000
0.080000 0.121481 0.000000
0.080000 0.124444 0.000000
0.080000 0.127407 0.000000
0.080000 0.130370 0.000000
0.080000 0.133333 0.000000
0.080000 0.136296 0.000000
0.080000 0.139259 0.000000
0.080000 0.142222 0.000000
0.080000 0.145185 0.000000
0.080000 0.148148 0.000000
0.080000 0.151111 0.000000
0.080000 0.154074 0.000000
0.080000 0.157037 0.000000
0.077037 0.160000 0.000000
0.074074 0.160000 0.000000
0.071111 0.160000 0.000000
0.068148 0.160000 0.000000
0.065185 0.160000 0.000000
0.062222 0.160000 0.000000
0.059259 0.160000 0.000000
0.056296 0.160000 0.000000
0.053333 0.160000 0.000000
0.050370 0.160000 0.000000
0.047407 0.160000 0.000000
0.044444 0.160000 0.000000
0.041481 0.160000 0.000000
0.038519 0.160000 0.000000
0.035556 0.160000 0.000000
0.032593 0.160000 0.000000
0.029630 0.160000 0.000000
0.026667 0.160000 0.000000
0.023704 0.160000 0.000000
0.020741 0.160000 0.000000
0.017778 0.160000 0.000000
0.014815 0.160000 0.000000
0.011852 0.160000 0.000000
0.008889 0.160000 0.000000
0.005926 0.160000 0.000000
0.002963 0.160000 0.000000
0.000000 0.157037 0.000000
0.000000 0.154074 0.000000
0.000000 0.151111 0.000000
0.000000 0.148148 0.000000
0.000000 0.145185 0.000000
0.000000 0.142222 0.000000
0.000000 0.139259 0.000000
0.000000 0.136296 0.000000
0.000000 0.133333 0.000000
0.000000 0.130370 0.000000
0.000000 0.127407 0.000000
0.000000 0.124444 0.000000
0.000000 0.121481 0.000000
0.000000 0.118519 0.000000
0.000000 0.115556 0.000000
0.000000 0.112593 0.000000
0.000000 0.109630 0.000000
0.000000 0.106667 0.000000
0.000000 0.103704 0.000000
0.000000 0.100741 0.000000
0.000000 0.097778 0.000000
0.000000 0.094815 0.000000
0.000000 0.091852 0.000000
0.000000 0.088889 0.000000
0.000000 0.085926 0.000000
0.000000 0.082963 0.000000
0.000000 0.080000 0.000000
0.000000 0.077037 0.000000
0.000000 0.074074 0.000000
0.000000 0.071111 0.000000
0.000000 0.068148 0.000000
0.000000 0.065185 0.000000
0.000000 0.062222 0.000000
0.000000 0.059259 0.000000
0.000000 0.056296 0.000000
0.000000 0.053333 0.000000
0.000000 0.050370 0.000000
0.000000 0.047407 0.000000
0.000000 0.044444 0.000000
0.000000 0.041481 0.000000
0.000000 0.038519 0.000000
0.000000 0.035556 0.000000
0.000000 0.032593 0.000000
0.000000 0.029630 0.000000
0.000000 0.026667 0.000000
0.000000 0.023704 0.000000
0.000000 0.020741 0.000000
0.000000 0.017778 0.000000
0.000000 0.014815 0.000000
0.000000 0.011852 0.000000
0.000000 0.008889 0.000000
0.000000 0.005926 0.000000
0.000000 0.002963 0.000000
0.035500 0.072746 0.000000
0.035000 0.072419 0.000000
0.034500 0.072093 0.000000
0.034000 0.071767 0.000000
0.033500 0.071440 0.000000
0.033000 0.071114 0.000000
0.032500 0.070788 0.000000
0.032000 0.070461 0.000000
0.031500 0.070135 0.000000
0.031000 0.069809 0.000000
0.030500 0.069482 0.000000
0.030000 0.069156 0.000000
0.029500 0.068829 0.000000
0.029000 0.068503 0.000000
0.028500 0.068177 0.000000
0.028000 0.067850 0.000000
0.027500 0.067524 0.000000
0.027000 0.067198 0.000000
0.026500 0.066871 0.000000
0.026000 0.066545 0.000000
0.025500 0.066219 0.000000
0.025000 0.065892 0.000000
0.044500 0.087216 0.000000
0.045000 0.087505 0.000000
0.045500 0.087793 0.000000
0.046000 0.088081 0.000000
0.046500 0.088370 0.000000
0.047000 0.088658 0.000000
0.047500 0.088946 0.000000
0.048000 0.089235 0.000000
0.048500 0.089523 0.000000
0.049000 0.089811 0.000000
0.049500 0.090100 0.000000
0.050000 0.090388 0.000000
0.050500 0.090677 0.000000
0.051000 0.090965 0.000000
0.051500 0.091253 0.000000
0.052000 0.091542 0.000000
0.052500 0.091830 0.000000
0.053000 0.092118 0.000000
0.053500 0.092407 0.000000
0.054000 0.092695 0.000000
0.054500 0.092983 0.000000
0.055000 0.093272 0.000000
0.043704 0.086415 0.000000
0.043407 0.085902 0.000000
0.043111 0.085388 0.000000
0.042815 0.084875 0.000000
0.042519 0.084362 0.000000
0.042222 0.083849 0.000000
0.041926 0.083336 0.000000
0.041630 0.082823 0.000000
0.041333 0.082309 0.000000
0.041037 0.081796 0.000000
0.040741 0.081283 0.000000
0.040444 0.080770 0.000000
0.040148 0.080257 0.000000
0.039852 0.079743 0.000000
0.039556 0.079230 0.000000
0.039259 0.078717 0.000000
0.038963 0.078204 0.000000
0.038667 0.077691 0.000000
0.038370 0.077177 0.000000
0.038074 0.076664 0.000000
0.037778 0.076151 0.000000
0.037481 0.075638 0.000000
0.037185 0.075125 0.000000
0.036889 0.074612 0.000000
0.036593 0.074098 0.000000
0.036296 0.073585 0.000000
0.024000 0.065235 0.000000
0.023500 0.064904 0.000000
0.023000 0.064572 0.000000
0.022500 0.064241 0.000000
0.022000 0.063910 0.000000
0.021500 0.063579 0.000000
0.021000 0.063248 0.000000
0.020500 0.062916 0.000000
0.020000 0.062585 0.000000
0.019500 0.062254 0.000000
0.019000 0.061923 0.000000
0.018500 0.061592 0.000000
0.018000 0.061261 0.000000
0.017500 0.060929 0.000000
0.017000 0.060598 0.000000
0.016500 0.060267 0.000000
0.016000 0.059936 0.000000
0.015500 0.059605 0.000000
0.015000 0.059273 0.000000
0.014500 0.058942 0.000000
0.014000 0.058611 0.000000
0.013500 0.058280 0.000000
0.013000 0.057949 0.000000
0.012500 0.057617 0.000000
0.012000 0.057286 0.000000
0.011500 0.056955 0.000000
0.011000 0.056624 0.000000
0.010500 0.056293 0.000000
0.010000 0.055961 0.000000
0.009500 0.055630 0.000000
0.009000 0.055299 0.000000
0.008500 0.054968 0.000000
0.008000 0.054637 0.000000
0.007500 0.054305 0.000000
0.007000 0.053974 0.000000
0.006500 0.053643 0.000000
0.006000 0.053312 0.000000
0.005500 0.052981 0.000000
0.005000 0.052650 0.000000
0.004500 0.052318 0.000000
0.004000 0.051987 0.000000
0.003500 0.051656 0.000000
0.003000 0.051325 0.000000
0.002500 0.050994 0.000000
0.002000 0.050662 0.000000
0.001500 0.050331 0.000000
0.055990 0.093902 0.000000
0.056479 0.094245 0.000000
0.056969 0.094587 0.000000
0.057458 0.094930 0.000000
0.057948 0.095272 0.000000
0.058437 0.095615 0.000000
0.058927 0.095957 0.000000
0.059417 0.096300 0.000000
0.059906 0.096642 0.000000
0.060396 0.096985 0.000000
0.060885 0.097327 0.000000
0.061375 0.097670 0.000000
0.061865 0.098012 0.000000
0.062354 0.098355 0.000000
0.062844 0.098697 0.000000
0.063333 0.099040 0.000000
0.063823 0.099382 0.000000
0.064312 0.099725 0.000000
0.064802 0.100067 0.000000
0.065292 0.100410 0.000000
0.065781 0.100752 0.000000
0.066271 0.101095 0.000000
0.066760 0.101437 0.000000
0.067250 0.101780 0.000000
0.067740 0.102122 0.000000
0.068229 0.102465 0.000000
0.068719 0.102807 0.000000
0.069208 0.103150 0.000000
0.069698 0.103492 0.000000
0.070187 0.103835 0.000000
0.070677 0.104177 0.000000
0.071167 0.104520 0.000000
0.071656 0.104862 0.000000
0.072146 0.105205 0.000000
0.072635 0.105547 0.000000
0.073125 0.105890 0.000000
0.073615 0.106232 0.000000
0.074104 0.106575 0.000000
0.074594 0.106917 0.000000
0.075083 0.107260 0.000000
0.075573 0.107602 0.000000
0.076062 0.107945 0.000000
0.076552 0.108287 0.000000
0.077042 0.108630 0.000000
0.077531 0.108972 0.000000
0.078021 0.109315 0.000000
0.078510 0.109658 0.000000
0.043942 0.087469 0.000000
0.035556 0.157037 0.000000
0.044420 0.002920 0.000000
0.077037 0.038519 0.000000
0.002963 0.121481 0.000000
0.077037 0.059259 0.000000
0.002963 0.109630 0.000000
0.002923 0.098139 0.000000
0.077153 0.126913 0.000000
0.002808 0.032596 0.000000
0.077140 0.071061 0.000000
0.002963 0.085926 0.000000
0.002963 0.136296 0.000000
0.077041 0.023701 0.000000
0.056296 0.157037 0.000000
0.032593 0.002963 0.000000
0.077037 0.080000 0.000000
0.002813 0.077135 0.000000
0.077037 0.142222 0.000000
0.017778 0.157037 0.000000
0.062222 0.002963 0.000000
0.076992 0.088722 0.000000
0.002945 0.020743 0.000000
0.017777 0.002962 0.000000
0.002801 0.068434 0.000000
0.002959 0.011851 0.000000
0.065186 0.157038 0.000000
0.002963 0.148148 0.000000
0.077037 0.011852 0.000000
0.076887 0.094740 0.000000
0.077092 0.115875 0.000000
0.002677 0.044265 0.000000
0.077038 0.148148 0.000000
0.002985 0.062165 0.000000
0.077037 0.047407 0.000000
0.011852 0.002963 0.000000
[...]
POINT_DATA 4677
SCALARS UX float 1
LOOKUP_TABLE default
-0.000000
0.000000
0.010552
0.001716
0.000593
0.001106
-0.002810
0.004937
-0.004945
0.008341
-0.000000
-0.000000
-0.000000
-0.000000
-0.000000
-0.000000
-0.000000
-0.000000
-0.000000
-0.000000
-0.000000
-0.000000
-0.000000
0.000000
0.000000
0.000000
0.000000
0.000000
0.000000
0.000000
0.000000
0.000000
0.000000
0.000000
0.000000
-0.000000
0.000799
0.001220
0.001530
0.001799
0.002045
0.002276
0.002495
0.002705
0.002916
0.003128
0.003345
0.003567
0.003799
0.004044
0.004292
0.004615
0.004795
0.004956
0.005116
0.005283
0.005475
0.005689
0.005902
0.006055
0.006207
0.006513
0.006691
0.006992
0.007206
0.007303
0.007489
0.007590
0.007816
0.008058
0.008186
0.008343
0.008474
0.008512
0.008572
0.008591
0.008598
0.008738
0.008769
0.008914
0.009110
0.009248
0.009296
0.009432
0.009607
0.009763
0.010017
0.010217
0.010412
0.010239
0.009854
0.009565
0.009202
0.008839
0.008591
0.008223
0.007947
0.007570
0.007285
0.006919
0.006665
0.006383
0.006022
0.005763
0.005386
0.005148
0.004777
0.004536
0.004150
0.003823
0.003486
0.003157
0.002816
0.002454
0.002096
0.001671
0.001576
0.001433
0.001249
0.001033
0.000804
0.000618
0.000294
-0.000066
-0.000198
-0.000507
-0.000774
-0.000953
-0.001196
-0.001467
-0.001665
-0.001818
-0.001929
-0.002166
-0.002383
-0.002629
-0.002921
-0.003179
-0.003446
-0.003755
-0.003988
-0.004212
-0.004435
-0.004582
-0.004708
-0.004834
-0.004875
-0.004960
-0.005028
-0.005084
-0.005105
-0.005039
-0.004940
-0.004824
-0.004710
-0.004600
-0.004438
-0.004311
-0.004153
-0.003960
-0.003804
-0.003595
-0.003435
-0.003172
-0.002925
-0.002564
-0.002121
-0.001541
0.000918
0.000610
0.000222
-0.000142
-0.000473
-0.000728
-0.000557
-0.000662
-0.000659
-0.000966
-0.001038
-0.001124
-0.001239
-0.001398
-0.001568
-0.001768
-0.001963
-0.002132
-0.002279
-0.002387
-0.002540
-0.002683
0.001199
0.001577
0.002052
0.002251
0.002509
0.001823
0.001994
0.002245
0.002371
0.002446
0.002796
0.002970
0.003447
0.003308
0.003130
0.003452
0.004209
0.004552
0.005107
0.004031
0.004274
0.004652
0.001224
0.001233
0.001218
0.001199
0.001189
0.001178
0.001148
0.001125
0.001104
0.001084
0.001056
0.001048
0.001029
0.000997
0.000963
0.000941
0.000910
0.000891
0.000855
0.000842
0.000815
0.000806
0.000807
0.000814
0.000822
0.000799
-0.002826
-0.002938
-0.002967
-0.003003
-0.003037
-0.003078
-0.003122
-0.003168
-0.003215
-0.003259
-0.003315
-0.003385
-0.003441
-0.003489
-0.003534
-0.003587
-0.003635
-0.003686
-0.003742
-0.003795
-0.003836
-0.003885
-0.003933
-0.003988
-0.004033
-0.004095
-0.004138
-0.004194
-0.004236
-0.004289
-0.004335
-0.004389
-0.004432
-0.004478
-0.004518
-0.004570
-0.004609
-0.004647
-0.004684
-0.004721
-0.004757
-0.004792
-0.004826
-0.004857
-0.004889
-0.004917
0.004938
0.005003
0.005097
0.005152
0.005204
0.005286
0.005347
0.005387
0.005454
0.005545
0.005580
0.005641
0.005734
0.005806
0.005860
0.005911
0.005986
0.006062
0.006146
0.006213
0.006288
0.006372
0.006451
0.006516
0.006580
0.006656
0.006735
0.006816
0.006896
0.006982
0.007062
0.007126
0.007194
0.007269
0.007349
0.007424
0.007499
0.007574
0.007650
0.007726
0.007802
0.007880
0.007956
0.008034
0.008112
0.008190
0.008266
0.001330
0.005618
0.000006
0.003554
-0.000657
0.004881
-0.001502
-0.002263
0.008466
-0.004063
0.005635
-0.003377
0.000642
0.002430
0.007811
-0.000073
0.006386
-0.004159
0.009165
0.003768
0.000101
0.007014
-0.003419
-0.000164
-0.004589
-0.002653
0.008721
0.001645
0.001495
0.007299
0.008174
-0.004596
0.009511
-0.004748
0.004357
-0.000263
0.009419
0.002448
0.000253
-0.004782
0.007712
0.008755
0.006210
0.006764
-0.000132
0.000119
0.002860
0.004370
0.000068
0.010067
0.008165
-0.004460
0.001242
0.008256
-0.004362
-0.004906
-0.004328
0.006648
-0.002778
-0.003692
0.005229
0.005766
0.004617
-0.001880
0.007822
-0.001148
-0.003921
-0.003784
0.003792
0.004983
0.008914
0.000040
-0.000011
-0.000132
0.003084
-0.000034
-0.003183
-0.000115
0.008056
0.007163
0.001195
0.001990
-0.002262
-0.000523
-0.001597
0.003113
0.000158
0.009693
-0.000773
-0.000835
0.001974
0.000830
0.002071
0.000367
0.008163
0.001274
-0.004832
-0.004917
0.008097
0.001280
-0.000038
0.003317
0.005376
-0.003716
-0.003271
0.007969
0.007013
0.000481
0.008616
-0.000284
-0.004294
-0.002912
-0.004645
0.006122
0.007469
0.007634
-0.002375
-0.000762
-0.001379
0.009166
0.002350
0.000543
0.008218
-0.004731
0.007531
-0.004674
0.007169
-0.004460
-0.004951
0.006879
0.008391
-0.004260
0.008266
-0.003923
0.006133
-0.003014
-0.002530
0.005454
0.005048
-0.002077
-0.001669
0.004752
-0.001343
0.004488
0.008590
0.004080
-0.000915
0.005852
-0.000423
0.003314
0.005250
0.000024
0.006523
-0.003618
0.004639
0.000053
-0.000053
0.008991
0.000291
0.002644
0.007413
-0.000102
0.004023
0.000083
-0.002927
-0.000119
0.008436
0.000953
0.002215
-0.000228
0.001431
0.001753
0.008999
0.009349
0.003440
0.000124
0.009668
0.009917
0.002792
0.000202
0.001828
0.001200
-0.004879
0.008254
0.008092
-0.004646
-0.004823
0.001375
0.001141
0.008016
-0.004924
0.007870
-0.004260
0.001412
0.001428
0.001538
0.004616
-0.002292
-0.001392
0.007615
-0.004125
0.005142
0.003889
-0.004215
0.000105
0.002370
0.006873
0.001320
0.003278
0.007215
0.001455
0.001810
0.000268
0.008057
-0.004766
0.008132
0.004399
-0.001022
0.004167
-0.000522
0.006363
0.000718
0.008220
-0.000359
-0.000615
0.002202
0.008877
0.009376
-0.004800
0.008168
-0.004527
0.008013
0.005998
-0.004478
0.008039
-0.003659
-0.004776
0.006719
0.006355
-0.001782
0.007795
-0.004002
-0.004111
-0.004394
0.005011
0.005215
-0.002762
0.003091
-0.000118
-0.000077
-0.003572
0.003817
0.003584
0.000042
0.000005
-0.003011
0.008252
0.006650
0.004515
0.007277
-0.000095
0.000173
0.008688
0.008974
0.008459
0.005725
-0.003369
-0.000203
0.007939
-0.002658
-0.000301
0.001923
0.000172
-0.003144
-0.001975
-0.001083
0.009532
0.002699
0.000404
0.000880
-0.003840
0.001125
0.001384
0.007989
-0.004764
-0.004880
0.008338
-0.004902
0.008108
0.001112
0.001892
0.001313
0.001502
0.001315
-0.000119
0.003293
0.004755
-0.002460
0.006230
0.000313
-0.003569
0.007997
0.006042
-0.000357
0.007217
-0.003083
-0.002669
-0.000911
-0.004684
0.007924
0.007764
0.001698
-0.004075
0.002882
-0.000009
0.008208
-0.000473
0.007813
0.008684
0.000801
0.002549
0.000650
0.001344
-0.004351
0.007005
-0.003818
-0.004553
-0.001527
-0.003910
-0.002447
-0.002126
0.002613
0.004759
0.007857
0.004509
-0.001229
0.004286
0.005575
-0.000791
0.008126
0.006701
-0.002723
0.006066
-0.000153
0.004787
0.001039
0.004015
0.000074
0.004177
-0.003282
0.006526
0.002831
-0.000295
0.000137
0.003544
0.008830
0.002148
-0.002403
-0.001556
0.001696
0.009007
0.008583
-0.000444
0.001576
0.000213
0.005410
0.003022
0.002019
0.009237
0.001188
0.000328
-0.004069
0.007741
-0.004268
0.001051
-0.004800
0.001193
0.001591
0.007887
-0.004591
0.007985
0.001117
0.002095
0.007917
-0.004829
-0.004696
0.007985
0.008028
0.001873
0.001720
0.001709
-0.004750
-0.004376
0.001263
0.001856
0.004179
-0.001429
-0.002182
-0.003541
0.007361
0.006069
-0.003832
-0.004059
0.004376
0.006650
0.001677
0.000159
0.002089
-0.002993
-0.004413
0.003455
-0.000949
0.000333
0.001408
0.003939
-0.000170
0.007851
0.005599
-0.000475
0.000048
0.008518
-0.002364
-0.000724
0.000913
0.002870
0.004876
-0.004441
0.007612
0.007925
-0.004114
-0.001945
-0.002979
-0.002192
-0.000231
0.004435
0.002554
-0.001295
0.003512
0.005967
-0.000067
-0.003935
0.007714
0.008107
-0.003531
0.006429
0.005785
0.006876
0.003887
0.008371
-0.003452
0.001079
0.004022
-0.000409
0.003074
-0.002880
0.007485
-0.000599
0.004585
0.000210
0.004983
0.008088
0.008732
0.000586
0.001861
-0.002034
0.008813
-0.001236
0.000052
0.001933
0.002368
0.000411
0.000509
-0.003931
0.001498
0.001528
0.001862
-0.004689
-0.004706
0.007878
0.007808
0.001024
-0.004705
0.001033
0.007682
-0.004439
0.001778
0.007777
0.006219
0.007818
0.005301
-0.004235
-0.004585
0.001300
0.001823
0.007876
0.001119
0.002277
0.002984
0.004081
0.000303
-0.000099
0.005431
-0.003878
0.007738
0.007372
0.006191
0.007004
0.001163
0.004165
-0.000505
-0.004314
0.008097
0.000214
0.001882
0.007717
0.007591
0.002024
0.002693
0.001739
-0.003138
0.002356
0.007450
0.004381
-0.000926
0.000457
-0.002621
-0.001710
0.000711
0.001473
0.007582
-0.001943
0.004104
0.001324
-0.003364
-0.000278
-0.001682
0.003733
0.004269
0.005743
0.007433
-0.001068
0.001711
-0.000723
-0.000016
-0.000212
0.007816
0.006676
-0.003573
0.006476
0.007555
-0.004126
0.004939
0.000105
0.005934
-0.002415
-0.002803
-0.003842
0.000609
0.002580
-0.002048
0.005307
0.008563
0.003710
0.001635
-0.000598
0.008374
0.000266
0.001390
0.006380
-0.001123
0.008193
0.004645
0.001170
0.002164
0.003169
0.002319
0.007654
-0.004639
0.001423
-0.004331
-0.004466
0.001664
0.001866
0.001005
0.000989
0.000974
0.001071
-0.004042
0.001362
0.001898
0.002012
-0.001732
-0.003998
-0.003275
-0.004641
0.007695
0.004118
0.007841
0.006582
0.005736
-0.004590
-0.004742
0.007604
0.001912
0.007802
-0.004696
-0.003707
0.007770
0.007714
0.001859
0.001351
0.001920
-0.000888
-0.001880
0.007094
0.005639
0.000677
-0.003563
-0.000111
-0.003298
0.002083
-0.003876
0.007364
-0.000637
0.005871
-0.002767
0.007441
0.006581
-0.004348
-0.004256
0.003554
0.007654
0.003857
0.007224
0.003459
0.005138
0.001490
0.007796
-0.000422
-0.002326
0.004490
0.000137
-0.001221
0.008217
0.001340
-0.003912
0.000367
0.001742
0.000925
0.002494
0.000928
0.001850
-0.001391
-0.003242
-0.002662
-0.003619
0.003803
0.003930
-0.001590
-0.003747
0.002184
0.005666
-0.000190
-0.004237
0.004217
0.000055
0.000060
-0.000364
-0.004597
0.000915
0.005161
0.007952
0.007763
0.006247
-0.000727
-0.001708
0.007951
0.004555
0.003278
0.007340
0.000285
0.001438
0.001565
0.008339
0.002755
0.002266
0.007508
0.005420
0.003919
0.000566
-0.001372
0.007558
0.002996
-0.004541
0.006381
0.007644
0.007686
0.001052
0.002214
-0.004477
-0.004644
0.007563
-0.004152
0.001606
0.006276
0.001971
0.001573
0.000941
0.002094
0.001152
0.000954
-0.001564
0.001778
0.007722
0.001548
0.002134
0.007674
-0.004706
-0.003476
-0.004666
0.007574
0.001928
-0.004593
0.007206
-0.003291
0.001988
0.001254
0.006960
0.002034
0.003528
0.003943
-0.001573
-0.003522
0.005019
-0.003945
0.000172
0.006345
0.004317
0.001519
0.001325
0.002183
0.001674
0.000369
-0.004388
-0.004523
-0.001262
-0.002835
0.001784
-0.003238
0.000405
0.007203
0.002917
0.004469
-0.000982
0.007768
0.007696
0.002591
0.003720
0.000858
-0.001343
-0.001011
0.001830
-0.000579
-0.003137
-0.000283
-0.000527
0.007634
0.003651
-0.004130
-0.003966
0.005616
0.001355
-0.004688
0.005287
0.001831
-0.003671
0.003733
-0.004186
0.004854
0.003363
-0.002602
-0.002949
0.007566
-0.000766
0.000970
0.007946
-0.004529
-0.004397
-0.002104
0.006208
0.006032
-0.001436
-0.003726
0.005940
-0.002112
0.001797
0.006898
0.002705
0.002256
0.002813
0.008096
0.000737
0.001146
0.007647
0.003287
0.002080
0.000471
-0.000202
0.007262
0.006494
-0.000016
0.001532
0.007553
0.007273
0.002153
-0.004596
0.007111
0.007421
0.007567
-0.004530
0.002007
0.001043
0.000886
0.000895
-0.003384
0.002233
0.000982
-0.004234
0.001681
0.007460
0.007443
-0.004646
0.001724
0.003881
0.006867
-0.000731
0.002041
-0.000207
0.007492
0.002051
0.007417
0.002274
-0.004501
0.006619
0.000756
0.002492
0.002219
-0.003469
-0.001794
-0.000211
-0.003373
0.001745
0.005521
-0.003905
0.006335
0.007173
-0.001032
0.001874
-0.002534
-0.000772
0.005362
-0.004279
-0.004278
0.007459
-0.004474
0.007418
-0.000066
-0.002885
0.000455
0.001818
0.004632
-0.001402
0.007652
-0.002338
0.001130
0.002915
0.003423
0.000813
-0.004113
0.007487
0.005978
-0.004452
0.001799
0.001534
-0.003390
-0.003797
0.004131
0.006632
0.000174
0.003018
0.005334
0.004888
-0.003714
-0.002286
-0.001571
0.003866
-0.000383
0.004756
0.001047
0.003647
0.000070
0.000934
0.007491
-0.002058
0.000270
0.003426
-0.000559
0.006104
0.000588
0.003981
-0.004607
-0.001818
0.002439
-0.003048
0.007084
-0.001063
-0.001227
-0.000656
0.002138
0.003116
0.002349
0.007278
-0.003681
0.001247
0.007090
0.003578
-0.001485
0.006723
0.007006
0.001975
0.001429
0.000869
0.001989
0.001564
0.000834
0.001277
0.007209
0.002284
0.007384
0.000925
0.007419
0.007348
0.002183
0.001047
0.007500
-0.000131
-0.004014
0.001023
0.002399
-0.004519
-0.004781
-0.001132
0.007615
0.002120
-0.000342
0.001677
-0.004469
-0.004551
-0.003068
0.006861
0.002327
-0.004468
0.002447
-0.004106
0.007539
0.007371
0.001346
0.000795
0.001970
0.002253
0.003304
-0.000572
-0.001536
0.004573
-0.000314
0.001138
0.006991
0.006387
-0.004161
0.005915
-0.003901
0.004453
0.002215
0.003818
0.002689
0.003682
-0.004329
-0.002242
0.006866
-0.000087
-0.002637
0.003113
0.001765
0.000556
0.001247
0.002529
-0.001176
-0.001766
0.000097
0.000907
0.003220
0.002684
0.000336
0.001605
0.007366
0.003252
-0.000479
-0.002902
0.007340
0.004084
0.007410
0.005128
0.003384
0.006106
0.005773
0.001571
-0.004361
0.005814
0.003561
-0.003081
-0.004163
-0.001363
-0.003495
-0.003795
0.007305
-0.001312
-0.004485
-0.002023
-0.000022
0.007529
-0.002608
0.000580
0.007309
-0.004404
0.002402
-0.003504
0.006811
-0.000967
0.002354
0.005104
0.001317
0.002296
0.001936
0.006222
-0.001351
-0.000819
-0.003297
-0.003010
0.006685
0.000735
0.007043
0.001451
0.001261
0.006832
-0.000439
0.006819
-0.004539
-0.004445
0.000897
0.000777
0.007176
0.001919
0.002242
0.000889
-0.000340
0.007394
0.007183
0.002446
-0.004450
0.007333
0.000774
-0.003969
0.002084
-0.000944
0.001145
0.007403
0.002396
0.006612
0.001616
-0.003946
0.002170
-0.004431
0.007603
0.007277
0.001004
0.002390
-0.003602
-0.004772
0.002558
0.007382
-0.003155
0.000198
0.006333
0.001251
-0.003070
0.002411
0.002075
-0.001315
-0.003425
-0.003118
0.005786
0.006724
0.001641
0.005528
-0.003997
0.005945
0.006923
0.001468
-0.000936
-0.000766
0.007324
0.002611
0.000282
0.000809
-0.003538
0.004970
-0.001192
-0.004389
0.000894
0.001709
0.000408
-0.000012
0.000740
-0.002363
-0.004522
-0.000843
0.001869
0.002821
0.007138
-0.000390
0.007264
-0.001425
-0.002541
-0.003748
0.007312
-0.004256
0.003407
0.004698
-0.003252
-0.002271
0.004826
0.007273
-0.001990
-0.002925
-0.001744
0.006551
0.006550
-0.000162
0.001035
0.003008
0.002192
0.007251
0.003818
0.003526
0.001945
0.006576
0.000216
0.006525
0.004140
0.006970
0.003127
0.002141
-0.002825
-0.000948
0.001472
0.006750
0.002531
0.005629
0.003239
0.001397
0.007059
-0.004384
0.000735
-0.000781
-0.000437
-0.004636
0.000872
0.001905
0.002487
0.002083
0.002460
0.000950
-0.004391
-0.004386
0.000735
0.007445
-0.000205
0.001528
0.002553
-0.003763
0.000840
0.002291
0.006377
0.007213
0.007084
-0.002821
-0.004338
0.001609
0.007019
0.004344
0.003573
0.007278
0.002659
0.002197
0.001177
0.007196
-0.001585
-0.001056
0.002689
0.000605
0.006877
-0.004216
-0.004045
0.006220
0.000996
0.002709
-0.002847
0.003166
0.002205
0.002432
0.006103
0.000938
-0.000787
0.004667
0.003777
0.006510
-0.003863
-0.000174
0.002273
0.001325
0.006617
0.006621
0.001575
0.006301
-0.000892
-0.002137
-0.000503
-0.003927
0.002926
0.007185
0.005362
-0.004096
-0.001502
0.002651
0.005544
-0.004330
0.004016
0.003313
0.001750
0.000272
-0.000757
-0.002709
0.007221
0.001478
0.003021
0.006882
-0.002183
0.007180
0.000861
0.005816
0.006298
-0.003307
-0.002735
-0.004100
0.001327
0.001613
0.005176
-0.004520
-0.001959
0.006038
-0.004293
0.000901
-0.000894
0.004341
0.000549
0.006333
-0.000341
0.002295
0.001191
0.003016
0.007356
0.007048
0.002748
0.004216
0.006749
0.001662
-0.003641
-0.001184
0.006102
0.001958
0.000130
-0.001142
0.003073
0.004709
-0.000321
0.000095
0.002546
0.006801
-0.001973
0.003457
-0.003279
0.006431
-0.000592
0.006759
-0.002797
0.001349
0.001998
0.002529
0.006752
0.001703
0.002901
0.007121
0.001899
0.000849
0.000832
0.000689
0.000806
0.000691
-0.004426
0.007216
0.007134
0.001030
0.002070
0.002322
-0.003010
0.002317
-0.003600
0.002581
0.000722
0.007021
0.007132
-0.004245
0.001421
-0.001708
-0.004356
0.005687
0.002735
0.002851
0.007247
0.000587
-0.003389
0.003299
-0.004316
-0.003817
-0.004322
0.002792
-0.004628
0.003271
0.002822
0.002729
0.001123
0.002966
-0.002787
-0.001276
0.002280
-0.000602
0.000961
-0.003432
0.006291
-0.003045
0.005288
-0.000344
-0.003595
0.005771
0.005357
0.006119
0.002604
-0.003791
-0.000270
0.004518
0.007072
-0.001863
0.007027
0.000324
0.006498
0.007114
0.000680
0.002797
-0.004130
0.001348
0.002006
-0.004291
0.003022
-0.000543
0.000769
0.001879
0.002802
0.002349
0.006617
-0.004310
0.002681
-0.001832
0.002870
0.001031
0.001511
0.005162
0.007046
0.004047
-0.003659
-0.001367
0.002994
-0.001689
-0.001115
0.006521
0.006093
0.001732
0.003606
0.004395
0.002985
0.005756
0.001454
0.001780
-0.000995
-0.001116
-0.003053
0.006481
0.004802
0.002975
-0.000705
-0.000146
-0.000651
0.002888
0.001239
-0.002711
-0.002297
0.003558
0.001184
0.006707
-0.004224
-0.004276
0.000459
0.001733
0.006470
-0.003484
-0.003371
0.006105
0.002895
-0.002527
0.000002
-0.002629
-0.000630
0.000637
0.001523
0.006901
0.002102
0.000881
0.003271
-0.001599
0.003997
0.001829
0.006367
0.002442
0.003324
0.002071
0.000786
0.007032
0.000655
0.002260
0.000938
0.002460
0.007195
0.006859
0.002566
0.000739
0.005652
0.007198
-0.004361
0.007118
0.001324
0.005319
-0.004437
-0.003218
0.001214
0.001768
0.003181
0.002715
0.007077
0.002775
0.005858
0.001225
-0.003998
0.000714
-0.004280
-0.001810
-0.004261
0.006807
-0.002396
-0.003959
-0.004191
0.006078
0.002865
0.002522
0.001394
0.002770
0.005862
-0.001080
0.002381
-0.003233
0.004326
0.006298
0.003706
0.005518
-0.003346
0.001165
0.006868
0.005626
0.004576
0.006356
-0.002044
0.000835
-0.002096
0.000610
0.001397
-0.000450
0.000806
0.006706
-0.002853
0.000175
-0.000785
0.000656
0.003223
-0.003911
0.001559
-0.002836
-0.004041
0.005893
0.001881
0.002188
0.001076
0.005122
0.007042
0.002691
0.006238
0.006447
0.001032
-0.000418
0.005968
-0.001490
-0.003501
0.007024
-0.000056
-0.000548
-0.001429
0.002567
0.003354
0.003713
-0.003680
0.004236
0.006265
0.000484
0.002696
-0.004169
0.002328
0.002821
0.003060
0.006516
-0.000957
-0.000698
0.005863
-0.001740
0.006057
0.005488
0.001230
0.001663
0.003505
0.003116
0.005058
0.001914
0.000162
0.002611
0.001810
0.001038
-0.000993
-0.002621
-0.002631
0.007096
0.006368
0.002871
-0.002604
-0.000171
0.006169
-0.002468
0.004046
0.006506
0.001622
0.006710
0.003151
0.000715
0.001991
0.001737
0.006006
0.002910
0.000602
0.002024
-0.004356
-0.004241
-0.003232
0.000694
0.000868
0.002246
0.003654
0.002475
0.001203
0.006885
0.000649
0.005301
0.006986
0.002570
0.001507
-0.002992
0.000786
-0.003833
-0.003903
0.005075
0.002799
-0.004080
0.007039
0.006948
0.007076
0.006978
-0.004166
0.001428
-0.004177
0.001123
0.003184
-0.004224
-0.004244
0.006194
0.002371
-0.002782
0.005839
0.001878
-0.003337
0.003445
0.004031
-0.002828
0.005292
0.004354
0.006664
-0.000829
0.000875
0.002635
-0.003650
0.006056
0.006258
0.005978
0.006904
0.006932
-0.000025
0.000498
-0.002262
0.001229
0.004897
0.001466
-0.000395
0.006803
0.000189
0.000598
-0.004074
0.001982
0.002695
-0.003818
-0.001788
-0.001631
0.000586
0.002981
0.002392
0.002094
0.002659
-0.004062
0.002113
0.003142
0.006077
0.006155
0.005652
-0.003455
0.005489
-0.001634
0.006553
-0.004162
-0.000885
0.001498
0.004531
0.006279
0.001336
0.002862
0.005084
-0.000407
0.006895
-0.000808
0.006529
-0.000021
0.006902
0.003286
0.005856
0.003909
0.002637
-0.003031
0.003159
-0.002533
0.002924
-0.002400
-0.002105
0.000939
-0.002656
-0.004177
0.005835
0.006224
-0.002584
-0.001213
0.003923
0.002732
0.006939
0.005215
0.002501
0.001764
0.001263
0.006763
0.005844
0.002586
0.000554
0.000790
0.001150
0.001633
0.003484
-0.003218
0.002995
0.001957
-0.003662
0.002090
0.005756
0.000945
0.002270
0.000579
0.000627
0.006850
-0.000406
-0.004306
0.002212
0.002968
0.004872
0.002432
0.000244
0.006986
0.000666
-0.002288
-0.003958
0.000849
-0.001202
0.000857
0.003856
-0.003957
0.002808
-0.004113
-0.004177
0.007000
0.006893
0.006170
-0.002880
0.001304
0.001105
0.003219
0.001598
0.003237
-0.000577
0.004979
0.006215
-0.004154
-0.002450
0.002541
0.001196
-0.003102
0.005846
0.000260
-0.003196
0.005051
0.000035
0.005475
-0.003706
0.005346
0.004236
0.005698
0.006649
0.002958
0.001632
-0.001859
-0.003960
0.006122
-0.001500
0.005798
0.003041
0.001323
-0.004072
0.003815
0.003342
0.002461
0.004691
0.000733
0.005954
-0.000995
0.003199
0.002091
0.002714
0.003732
-0.002561