# vtk DataFile Version 2.0
Test
ASCII
DATASET POLYDATA
POINTS 4677 float
0.000000 0.000000 0.000000
0.080000 0.000000 0.000000
0.080000 0.160000 0.000000
0.000000 0.160000 0.000000
0.036000 0.073072 0.000000
0.044000 0.086928 0.000000
0.024500 0.065566 0.000000
0.055500 0.093560 0.000000
0.001000 0.050000 0.000000
0.079000 0.110000 0.000000
0.002963 0.000000 0.000000
0.005926 0.000000 0.000000
0.008889 0.000000 0.000000
0.011852 0.000000 0.000000
0.014815 0.000000 0.000000
0.017778 0.000000 0.000000
0.020741 0.000000 0.000000
0.023704 0.000000 0.000000
0.026667 0.000000 0.000000
0.029630 0.000000 0.000000
0.032593 0.000000 0.000000
0.035556 0.000000 0.000000
0.038519 0.000000 0.000000
0.041481 0.000000 0.000000
0.044444 0.000000 0.000000
0.047407 0.000000 0.000000
0.050370 0.000000 0.000000
0.053333 0.000000 0.000000
0.056296 0.000000 0.000000
0.059259 0.000000 0.000000
0.062222 0.000000 0.000000
0.065185 0.000000 0.000000
0.068148 0.000000 0.000000
0.071111 0.000000 0.000000
0.074074 0.000000 0.000000
0.077037 0.000000 0.000000
0.080000 0.002963 0.000000
0.080000 0.005926 0.000000
0.080000 0.008889 0.000000
0.080000 0.011852 0.000000
0.080000 0.014815 0.000000
0.080000 0.017778 0.000000
0.080000 0.020741 0.000000
0.080000 0.023704 0.000000
0.080000 0.026667 0.000000
0.080000 0.029630 0.000000
0.080000 0.032593 0.000000
0.080000 0.035556 0.000000
0.080000 0.038519 0.000000
0.080000 0.041481 0.000000
0.080000 0.044444 0.000000
0.080000 0.047407 0.000000
0.080000 0.050370 0.000000
0.080000 0.053333 0.000000
0.080000 0.056296 0.000000
0.080000 0.059259 0.000000
0.080000 0.062222 0.000000
0.080000 0.065185 0.000000
0.080000 0.068148 0.000000
0.080000 0.071111 0.000000
0.080000 0.074074 0.000000
0.080000 0.077037 0.000000
0.080000 0.080000 0.000000
0.080000 0.082963 0.000000
0.080000 0.085926 0.000000
0.080000 0.088889 0.000000
0.080000 0.091852 0.000000
0.080000 0.094815 0.000000
0.080000 0.097778 0.000000
0.080000 0.100741 0.000000
0.080000 0.103704 0.000000
0.080000 0.106667 0.000000
0.080000 0.109630 0.000000
0.080000 0.112593 0.000000
0.080000 0.115556 0.000000
0.080000 0.118519 0.000000
0.080000 0.121481 0.000000
0.080000 0.124444 0.000000
0.080000 0.127407 0.000000
0.080000 0.130370 0.000000
0.080000 0.133333 0.000000
0.080000 0.136296 0.000000
0.080000 0.139259 0.000000
0.080000 0.142222 0.000000
0.080000 0.145185 0.000000
0.080000 0.148148 0.000000
0.080000 0.151111 0.000000
0.080000 0.154074 0.000000
0.080000 0.157037 0.000000
0.077037 0.160000 0.000000
0.074074 0.160000 0.000000
0.071111 0.160000 0.000000
0.068148 0.160000 0.000000
0.065185 0.160000 0.000000
0.062222 0.160000 0.000000
0.059259 0.160000 0.000000
0.056296 0.160000 0.000000
0.053333 0.160000 0.000000
0.050370 0.160000 0.000000
0.047407 0.160000 0.000000
0.044444 0.160000 0.000000
0.041481 0.160000 0.000000
0.038519 0.160000 0.000000
0.035556 0.160000 0.000000
0.032593 0.160000 0.000000
0.029630 0.160000 0.000000
0.026667 0.160000 0.000000
0.023704 0.160000 0.000000
0.020741 0.160000 0.000000
0.017778 0.160000 0.000000
0.014815 0.160000 0.000000
0.011852 0.160000 0.000000
0.008889 0.160000 0.000000
0.005926 0.160000 0.000000
0.002963 0.160000 0.000000
0.000000 0.157037 0.000000
0.000000 0.154074 0.000000
0.000000 0.151111 0.000000
0.000000 0.148148 0.000000
0.000000 0.145185 0.000000
0.000000 0.142222 0.000000
0.000000 0.139259 0.000000
0.000000 0.136296 0.000000
0.000000 0.133333 0.000000
0.000000 0.130370 0.000000
0.000000 0.127407 0.000000
0.000000 0.124444 0.000000
0.000000 0.121481 0.000000
0.000000 0.118519 0.000000
0.000000 0.115556 0.000000
0.000000 0.112593 0.000000
0.000000 0.109630 0.000000
0.000000 0.106667 0.000000
0.000000 0.103704 0.000000
0.000000 0.100741 0.000000
0.000000 0.097778 0.000000
0.000000 0.094815 0.000000
0.000000 0.091852 0.000000
0.000000 0.088889 0.000000
0.000000 0.085926 0.000000
0.000000 0.082963 0.000000
0.000000 0.080000 0.000000
0.000000 0.077037 0.000000
0.000000 0.074074 0.000000
0.000000 0.071111 0.000000
0.000000 0.068148 0.000000
0.000000 0.065185 0.000000
0.000000 0.062222 0.000000
0.000000 0.059259 0.000000
0.000000 0.056296 0.000000
0.000000 0.053333 0.000000
0.000000 0.050370 0.000000
0.000000 0.047407 0.000000
0.000000 0.044444 0.000000
0.000000 0.041481 0.000000
0.000000 0.038519 0.000000
0.000000 0.035556 0.000000
0.000000 0.032593 0.000000
0.000000 0.029630 0.000000
0.000000 0.026667 0.000000
0.000000 0.023704 0.000000
0.000000 0.020741 0.000000
0.000000 0.017778 0.000000
0.000000 0.014815 0.000000
0.000000 0.011852 0.000000
0.000000 0.008889 0.000000
0.000000 0.005926 0.000000
0.000000 0.002963 0.000000
0.035500 0.072746 0.000000
0.035000 0.072419 0.000000
0.034500 0.072093 0.000000
0.034000 0.071767 0.000000
0.033500 0.071440 0.000000
0.033000 0.071114 0.000000
0.032500 0.070788 0.000000
0.032000 0.070461 0.000000
0.031500 0.070135 0.000000
0.031000 0.069809 0.000000
0.030500 0.069482 0.000000
0.030000 0.069156 0.000000
0.029500 0.068829 0.000000
0.029000 0.068503 0.000000
0.028500 0.068177 0.000000
0.028000 0.067850 0.000000
0.027500 0.067524 0.000000
0.027000 0.067198 0.000000
0.026500 0.066871 0.000000
0.026000 0.066545 0.000000
0.025500 0.066219 0.000000
0.025000 0.065892 0.000000
0.044500 0.087216 0.000000
0.045000 0.087505 0.000000
0.045500 0.087793 0.000000
0.046000 0.088081 0.000000
0.046500 0.088370 0.000000
0.047000 0.088658 0.000000
0.047500 0.088946 0.000000
0.048000 0.089235 0.000000
0.048500 0.089523 0.000000
0.049000 0.089811 0.000000
0.049500 0.090100 0.000000
0.050000 0.090388 0.000000
0.050500 0.090677 0.000000
0.051000 0.090965 0.000000
0.051500 0.091253 0.000000
0.052000 0.091542 0.000000
0.052500 0.091830 0.000000
0.053000 0.092118 0.000000
0.053500 0.092407 0.000000
0.054000 0.092695 0.000000
0.054500 0.092983 0.000000
0.055000 0.093272 0.000000
0.043704 0.086415 0.000000
0.043407 0.085902 0.000000
0.043111 0.085388 0.000000
0.042815 0.084875 0.000000
0.042519 0.084362 0.000000
0.042222 0.083849 0.000000
0.041926 0.083336 0.000000
0.041630 0.082823 0.000000
0.041333 0.082309 0.000000
0.041037 0.081796 0.000000
0.040741 0.081283 0.000000
0.040444 0.080770 0.000000
0.040148 0.080257 0.000000
0.039852 0.079743 0.000000
0.039556 0.079230 0.000000
0.039259 0.078717 0.000000
0.038963 0.078204 0.000000
0.038667 0.077691 0.000000
0.038370 0.077177 0.000000
0.038074 0.076664 0.000000
0.037778 0.076151 0.000000
0.037481 0.075638 0.000000
0.037185 0.075125 0.000000
0.036889 0.074612 0.000000
0.036593 0.074098 0.000000
0.036296 0.073585 0.000000
0.024000 0.065235 0.000000
0.023500 0.064904 0.000000
0.023000 0.064572 0.000000
0.022500 0.064241 0.000000
0.022000 0.063910 0.000000
0.021500 0.063579 0.000000
0.021000 0.063248 0.000000
0.020500 0.062916 0.000000
0.020000 0.062585 0.000000
0.019500 0.062254 0.000000
0.019000 0.061923 0.000000
0.018500 0.061592 0.000000
0.018000 0.061261 0.000000
0.017500 0.060929 0.000000
0.017000 0.060598 0.000000
0.016500 0.060267 0.000000
0.016000 0.059936 0.000000
0.015500 0.059605 0.000000
0.015000 0.059273 0.000000
0.014500 0.058942 0.000000
0.014000 0.058611 0.000000
0.013500 0.058280 0.000000
0.013000 0.057949 0.000000
0.012500 0.057617 0.000000
0.012000 0.057286 0.000000
0.011500 0.056955 0.000000
0.011000 0.056624 0.000000
0.010500 0.056293 0.000000
0.010000 0.055961 0.000000
0.009500 0.055630 0.000000
0.009000 0.055299 0.000000
0.008500 0.054968 0.000000
0.008000 0.054637 0.000000
0.007500 0.054305 0.000000
0.007000 0.053974 0.000000
0.006500 0.053643 0.000000
0.006000 0.053312 0.000000
0.005500 0.052981 0.000000
0.005000 0.052650 0.000000
0.004500 0.052318 0.000000
0.004000 0.051987 0.000000
0.003500 0.051656 0.000000
0.003000 0.051325 0.000000
0.002500 0.050994 0.000000
0.002000 0.050662 0.000000
0.001500 0.050331 0.000000
0.055990 0.093902 0.000000
0.056479 0.094245 0.000000
0.056969 0.094587 0.000000
0.057458 0.094930 0.000000
0.057948 0.095272 0.000000
0.058437 0.095615 0.000000
0.058927 0.095957 0.000000
0.059417 0.096300 0.000000
0.059906 0.096642 0.000000
0.060396 0.096985 0.000000
0.060885 0.097327 0.000000
0.061375 0.097670 0.000000
0.061865 0.098012 0.000000
0.062354 0.098355 0.000000
0.062844 0.098697 0.000000
0.063333 0.099040 0.000000
0.063823 0.099382 0.000000
0.064312 0.099725 0.000000
0.064802 0.100067 0.000000
0.065292 0.100410 0.000000
0.065781 0.100752 0.000000
0.066271 0.101095 0.000000
0.066760 0.101437 0.000000
0.067250 0.101780 0.000000
0.067740 0.102122 0.000000
0.068229 0.102465 0.000000
0.068719 0.102807 0.000000
0.069208 0.103150 0.000000
0.069698 0.103492 0.000000
0.070187 0.103835 0.000000
0.070677 0.104177 0.000000
0.071167 0.104520 0.000000
0.071656 0.104862 0.000000
0.072146 0.105205 0.000000
0.072635 0.105547 0.000000
0.073125 0.105890 0.000000
0.073615 0.106232 0.000000
0.074104 0.106575 0.000000
0.074594 0.106917 0.000000
0.075083 0.107260 0.000000
0.075573 0.107602 0.000000
0.076062 0.107945 0.000000
0.076552 0.108287 0.000000
0.077042 0.108630 0.000000
0.077531 0.108972 0.000000
0.078021 0.109315 0.000000
0.078510 0.109658 0.000000
0.043942 0.087469 0.000000
0.035556 0.157037 0.000000
0.044420 0.002920 0.000000
0.077037 0.038519 0.000000
0.002963 0.121481 0.000000
0.077037 0.059259 0.000000
0.002963 0.109630 0.000000
0.002923 0.098139 0.000000
0.077153 0.126913 0.000000
0.002808 0.032596 0.000000
0.077140 0.071061 0.000000
0.002963 0.085926 0.000000
0.002963 0.136296 0.000000
0.077041 0.023701 0.000000
0.056296 0.157037 0.000000
0.032593 0.002963 0.000000
0.077037 0.080000 0.000000
0.002813 0.077135 0.000000
0.077037 0.142222 0.000000
0.017778 0.157037 0.000000
0.062222 0.002963 0.000000
0.076992 0.088722 0.000000
0.002945 0.020743 0.000000
0.017777 0.002962 0.000000
0.002801 0.068434 0.000000
0.002959 0.011851 0.000000
0.065186 0.157038 0.000000
0.002963 0.148148 0.000000
0.077037 0.011852 0.000000
0.076887 0.094740 0.000000
0.077092 0.115875 0.000000
0.002677 0.044265 0.000000
0.077038 0.148148 0.000000
0.002985 0.062165 0.000000
0.077037 0.047407 0.000000
0.011852 0.002963 0.000000
[...]
POINT_DATA 4677
SCALARS UX float 1
LOOKUP_TABLE default
-0.000001
0.000001
0.052040
-0.043514
-0.010707
-0.035618
-0.047372
0.010977
-0.061402
0.022063
-0.000000
-0.000000
-0.000000
-0.000000
-0.000000
-0.000000
-0.000000
-0.000000
-0.000000
-0.000000
-0.000000
-0.000000
-0.000000
0.000000
0.000000
0.000000
0.000000
0.000000
0.000000
0.000000
0.000000
0.000000
0.000000
0.000000
0.000000
-0.000000
0.005876
0.008953
0.010989
0.012869
0.014690
0.016479
0.018223
0.020024
0.022056
0.024463
0.027006
0.030122
0.033627
0.037446
0.041166
0.044383
0.046524
0.047454
0.046857
0.045104
0.043291
0.040600
0.037118
0.037937
0.038180
0.041762
0.042799
0.042783
0.041647
0.037277
0.034186
0.031039
0.027757
0.024749
0.022940
0.022560
0.023018
0.023093
0.022278
0.021544
0.021322
0.021788
0.021149
0.019184
0.019843
0.021782
0.023959
0.024243
0.027633
0.030921
0.038191
0.044331
0.046349
0.046405
0.038707
0.033704
0.028622
0.023595
0.016190
0.009819
0.004661
0.001283
-0.004908
-0.008022
-0.010635
-0.012719
-0.015183
-0.017640
-0.019393
-0.020234
-0.023333
-0.026301
-0.028969
-0.030760
-0.032288
-0.034424
-0.037272
-0.039069
-0.041972
-0.045733
-0.047316
-0.048361
-0.050512
-0.053348
-0.055097
-0.057576
-0.060326
-0.063274
-0.066366
-0.069500
-0.072476
-0.078100
-0.079630
-0.082602
-0.084173
-0.084732
-0.084737
-0.084185
-0.083080
-0.082049
-0.079699
-0.077108
-0.078153
-0.081422
-0.084405
-0.087103
-0.083550
-0.079441
-0.073921
-0.070446
-0.067300
-0.064704
-0.063264
-0.062096
-0.062374
-0.062020
-0.061688
-0.062671
-0.062061
-0.060300
-0.054941
-0.050363
-0.048582
-0.046477
-0.044391
-0.040665
-0.037135
-0.034424
-0.034076
-0.032005
-0.028488
-0.014918
-0.012832
-0.013780
-0.015849
-0.018038
-0.014964
-0.018483
-0.022082
-0.024126
-0.026512
-0.028205
-0.030132
-0.031761
-0.033487
-0.035973
-0.038416
-0.041045
-0.043145
-0.045019
-0.043752
-0.045838
-0.048608
-0.051391
-0.034665
-0.033684
-0.032713
-0.030577
-0.028402
-0.024463
-0.021623
-0.028032
-0.026949
-0.027581
-0.023702
-0.018950
-0.017019
-0.012546
-0.007767
-0.005668
-0.002966
0.000404
0.008762
0.006286
0.007574
0.009039
-0.034947
-0.034110
-0.033218
-0.032322
-0.031339
-0.030286
-0.029120
-0.027986
-0.026860
-0.025724
-0.024662
-0.023487
-0.022477
-0.021391
-0.020424
-0.019427
-0.018507
-0.017661
-0.016800
-0.015824
-0.014944
-0.013993
-0.013009
-0.012042
-0.010988
-0.010314
-0.047404
-0.047427
-0.048028
-0.048708
-0.049325
-0.049840
-0.050278
-0.050592
-0.050795
-0.050847
-0.050807
-0.050672
-0.050390
-0.050103
-0.049897
-0.050757
-0.051472
-0.051755
-0.052055
-0.052319
-0.052531
-0.052739
-0.052900
-0.053119
-0.053343
-0.053638
-0.053892
-0.054240
-0.054595
-0.054979
-0.055346
-0.055757
-0.056130
-0.056536
-0.056971
-0.057432
-0.057892
-0.058316
-0.058728
-0.059118
-0.059475
-0.059894
-0.060218
-0.060514
-0.060800
-0.061091
0.012961
0.009305
0.007150
0.005665
0.005439
0.005869
0.006513
0.007327
0.008007
0.008774
0.009464
0.010038
0.010531
0.010993
0.011420
0.011791
0.012127
0.012412
0.012694
0.012985
0.013249
0.013433
0.013446
0.013909
0.014393
0.014553
0.014739
0.014848
0.014968
0.015186
0.015214
0.015243
0.015404
0.015568
0.015810
0.016065
0.016278
0.016637
0.017012
0.017424
0.017942
0.018515
0.019098
0.019700
0.020287
0.020886
0.021457
-0.036350
-0.018299
-0.000153
0.032537
-0.074754
0.043214
-0.082744
-0.079491
0.016290
-0.047390
0.033406
-0.074734
-0.058288
0.018271
0.003761
-0.001725
0.038004
-0.078241
0.019955
-0.033278
0.000464
0.034606
-0.036698
-0.000931
-0.068264
-0.030362
0.021367
-0.048967
0.010326
0.028401
0.018486
-0.059711
0.027916
-0.062262
0.043451
-0.000729
0.030020
-0.041148
0.000939
-0.060451
0.022802
0.015824
-0.013534
-0.008837
-0.002008
-0.063985
0.022808
-0.028604
0.000540
0.042080
0.017266
-0.057357
-0.033705
0.016798
-0.054103
-0.060721
-0.075525
0.038192
-0.072957
-0.079528
0.037110
0.033409
0.046119
-0.082259
0.020397
-0.080780
-0.044539
-0.042799
0.036389
-0.021741
0.017265
0.000438
-0.000503
-0.066589
0.025632
-0.001022
-0.033379
-0.002130
0.008877
-0.005860
-0.053206
0.014362
-0.026947
-0.003964
-0.021013
-0.036953
0.000525
0.033290
-0.006502
-0.006535
-0.045165
0.005068
-0.043425
0.001646
0.020314
-0.036519
-0.060439
-0.060860
0.020629
-0.037602
-0.001209
0.031505
0.028415
-0.041897
-0.072211
0.014001
-0.006837
-0.061355
0.013011
-0.004234
-0.052832
-0.030764
-0.059911
0.032621
0.019151
0.000735
-0.023464
-0.008805
-0.017304
0.024186
-0.043212
0.002209
0.019862
-0.060265
0.026097
-0.065317
0.031743
-0.071494
-0.061272
0.038037
0.016673
-0.051536
0.021645
-0.081837
0.036386
-0.072848
-0.076934
0.034173
0.041185
-0.081435
-0.082521
0.044714
-0.082255
0.045523
0.015830
0.040206
-0.076892
-0.015951
-0.070163
0.028834
-0.020155
0.000211
-0.011044
-0.040890
-0.025400
0.000529
-0.001400
0.018976
-0.061148
0.020411
-0.000517
-0.001897
-0.030996
0.000503
-0.030512
-0.001398
0.015726
-0.055606
0.016340
-0.000525
-0.051272
0.012402
0.024861
0.023205
-0.034537
0.000444
0.035383
0.038295
-0.039559
0.000706
-0.046857
0.008084
-0.060934
0.021163
0.019884
-0.058673
-0.060303
-0.035659
-0.036065
0.020591
-0.060702
0.014841
-0.051449
-0.032149
-0.032136
-0.030921
0.039333
-0.072790
-0.080846
0.011729
-0.048689
-0.021321
-0.033235
-0.070200
0.000798
0.018605
0.029731
-0.053487
-0.036806
0.024518
0.009786
-0.048870
0.001020
0.019226
-0.059891
0.012887
0.042595
-0.079290
0.043763
-0.072387
-0.012314
-0.058785
0.012291
-0.004532
-0.006069
-0.044923
0.020900
0.029529
-0.060305
0.020068
-0.057853
0.017323
0.033063
-0.062953
0.012721
-0.076506
-0.059260
0.034128
0.032417
-0.078310
0.019030
-0.045743
-0.047697
-0.055883
0.029821
0.027533
-0.067274
0.027957
-0.002653
-0.001915
-0.039542
0.039065
0.035456
0.000212
-0.000388
-0.068746
0.011271
-0.010274
-0.026682
-0.003042
-0.066913
-0.064256
0.014831
0.019477
0.011821
-0.016836
-0.037522
-0.003750
0.006463
-0.027685
-0.004845
0.014001
0.000898
-0.033465
-0.020823
-0.014283
0.031788
-0.041036
0.001405
0.004750
-0.042459
-0.037614
-0.037053
0.018924
-0.059818
-0.060636
0.022063
-0.061255
0.020480
-0.035155
-0.034240
-0.032634
-0.032099
-0.038161
-0.002791
0.033380
0.023644
-0.061895
-0.013036
-0.063264
-0.038645
0.007922
0.027804
-0.005438
-0.004609
-0.032932
-0.027617
-0.010263
-0.059181
0.018154
0.008371
-0.029374
-0.072811
0.024928
-0.000938
0.008933
-0.006519
0.004038
0.016055
-0.058116
-0.042664
0.002651
-0.031450
-0.067202
0.027716
-0.041455
-0.061147
-0.080093
-0.074516
-0.070204
-0.075165
0.021353
0.034913
0.014953
0.041346
-0.080639
0.044325
0.025121
-0.076713
0.011604
0.031481
-0.063728
-0.014730
-0.003161
-0.023312
-0.056206
0.041782
0.000595
-0.030040
-0.035480
-0.011258
0.026466
-0.069099
0.000879
-0.034998
0.016068
0.016229
-0.026118
-0.016857
0.011918
0.022990
0.017183
-0.004957
-0.051164
0.000919
-0.019303
-0.038987
-0.046745
0.026900
0.007512
0.001159
-0.046984
0.011784
-0.052171
-0.037019
-0.059706
-0.038559
-0.036286
0.019117
-0.058611
0.018228
-0.034180
-0.033206
0.018541
-0.060180
-0.059432
0.019588
0.018975
-0.030571
-0.028790
-0.029230
-0.059586
-0.054880
-0.039139
-0.027440
0.038102
-0.074977
-0.057042
-0.037078
0.008360
-0.014433
-0.069724
-0.047703
-0.027739
0.027973
-0.051632
0.000924
0.016415
-0.031256
-0.059979
-0.037426
-0.078599
0.001392
0.009271
0.042070
-0.003543
0.016211
-0.017938
-0.072246
-0.065739
0.012842
-0.026254
-0.009040
0.004636
-0.040621
0.021998
-0.057075
0.012717
0.007514
-0.067220
-0.069594
-0.064240
-0.065762
-0.004538
0.030924
0.022451
-0.077273
0.036586
-0.015453
-0.001963
-0.043701
0.009915
0.008901
-0.070176
0.030382
0.028441
-0.007324
0.041656
0.010123
-0.036999
-0.056124
-0.031661
-0.005917
0.029737
-0.029832
0.000125
-0.007975
0.026323
0.001125
-0.022639
0.007920
0.016392
-0.060631
0.013807
-0.024649
0.019951
-0.011533
-0.000035
-0.049214
-0.044606
0.001599
0.001931
-0.044147
-0.037366
-0.030295
-0.028107
-0.059080
-0.059153
0.018019
0.017712
-0.036079
-0.058808
-0.038422
0.017462
-0.064842
-0.034216
0.014781
0.028488
0.007321
0.023510
-0.052003
-0.058368
-0.031292
-0.029780
0.017307
-0.032806
-0.030295
0.031116
0.027070
-0.060643
-0.002807
0.022548
-0.043627
0.005462
0.009990
0.027235
-0.005470
-0.054716
-0.029847
-0.006538
-0.054588
0.007636
0.000987
0.014720
0.015775
0.001292
-0.049219
-0.042890
-0.027406
-0.032749
0.021843
0.005177
0.019421
-0.012077
0.001918
-0.027322
-0.021088
0.003024
-0.029276
0.012938
-0.060795
0.041519
-0.028924
-0.035124
-0.004960
-0.073130
0.039490
0.035190
-0.017075
0.006786
-0.078471
-0.024781
-0.076527
-0.001559
-0.067331
0.005103
-0.009257
-0.068254
0.028918
0.004015
-0.064918
0.017497
0.000551
0.025742
-0.059063
-0.029472
-0.042069
-0.059793
0.024579
-0.024176
-0.020141
0.013865
-0.035247
0.011460
-0.008139
0.010214
0.001249
-0.054139
-0.012010
-0.013775
0.010224
-0.024821
0.007031
-0.046719
-0.039205
0.019310
0.016590
-0.058316
-0.038670
-0.061422
-0.057080
-0.036087
-0.027313
-0.035039
-0.033355
-0.037807
-0.039372
-0.048203
-0.029447
-0.032752
-0.029763
-0.063617
-0.068205
-0.067474
-0.058261
0.005184
0.039192
0.017876
0.033176
0.030843
-0.058228
-0.059232
0.016980
-0.027737
0.017168
-0.059150
-0.039635
0.018286
0.017154
-0.029680
-0.039654
-0.026124
-0.076010
-0.054356
0.004184
-0.017529
-0.058078
-0.065984
-0.003501
-0.033341
0.019887
-0.044473
0.010084
-0.007888
0.023364
-0.028539
0.001408
-0.009261
-0.055428
-0.059284
-0.036248
0.015606
0.034900
0.001732
0.038996
-0.020907
-0.027257
0.004558
-0.073018
-0.025456
-0.027028
0.000376
-0.016202
0.008586
0.008686
-0.065065
0.001619
-0.051068
0.004620
-0.045024
-0.035562
-0.033046
-0.071069
-0.064540
-0.059491
-0.037658
0.038259
0.030789
-0.057357
-0.040290
0.019112
0.023278
-0.003964
-0.063662
0.021841
-0.065965
-0.000501
-0.005976
-0.057676
-0.057022
0.020068
0.005991
0.016949
-0.013118
-0.011026
-0.020345
0.004806
0.016264
0.034048
-0.001652
0.001344
-0.052947
0.011078
0.012276
0.027701
-0.046994
0.015948
-0.019255
-0.033303
0.002324
-0.016031
0.017207
-0.041128
-0.057195
0.026071
0.016241
0.014365
-0.031449
-0.024464
-0.056996
-0.058584
0.003691
-0.051797
-0.037455
0.026516
-0.026164
-0.028611
-0.036922
-0.026939
-0.040076
-0.039077
-0.068427
-0.034997
0.016863
-0.027556
-0.025379
0.017843
-0.058813
-0.035725
-0.058672
0.016212
-0.026490
-0.057831
0.002345
-0.034411
-0.026253
-0.040728
-0.000923
-0.024763
0.030469
0.018964
-0.052087
-0.036269
0.017165
-0.047514
0.000073
-0.011087
-0.028620
-0.051551
0.009111
-0.025905
-0.025483
0.001622
-0.055945
-0.057106
-0.072676
-0.028952
0.015461
-0.032230
-0.061223
-0.003301
0.031441
0.012570
-0.013991
0.001838
0.003115
-0.044485
-0.034097
-0.037299
-0.064834
-0.074937
-0.035183
-0.074877
-0.031508
-0.005216
-0.007273
0.018316
0.039021
-0.061973
-0.063362
0.021106
-0.027381
-0.058585
-0.020337
-0.025665
-0.039550
0.024283
-0.060324
-0.023530
0.036485
-0.027148
-0.060102
0.002508
-0.010118
-0.056078
0.006130
-0.057463
-0.058930
-0.054871
0.024437
0.024199
-0.017969
-0.065251
-0.015449
-0.022955
-0.049750
-0.006156
0.028204
0.022433
-0.042924
0.006884
0.003301
0.006757
0.015934
-0.039044
-0.047857
0.002081
-0.069610
0.001342
0.024886
-0.002341
-0.038789
0.014268
0.011020
-0.029809
-0.057927
0.006459
0.002364
0.015848
-0.057091
-0.025008
-0.030053
-0.034382
-0.038377
-0.064794
-0.026511
-0.040099
-0.052753
-0.026739
0.016640
0.012409
-0.058285
-0.036606
0.037246
-0.000051
-0.076116
-0.025658
-0.004486
0.015495
-0.025417
0.015724
-0.021176
-0.056712
-0.003428
-0.056030
0.028575
-0.024338
-0.035920
-0.051436
-0.005256
-0.061794
0.017532
0.020344
-0.060960
0.023079
-0.001329
-0.013612
-0.048311
-0.025788
-0.073259
-0.019570
-0.058170
-0.053587
0.014499
-0.056480
0.000995
-0.068245
-0.057927
0.002029
-0.024596
-0.025392
-0.054511
0.001785
-0.054958
0.006854
-0.041429
0.035653
-0.038845
-0.058615
0.013850
0.021973
-0.056429
-0.036518
0.011659
-0.034140
-0.043618
0.014056
-0.008342
-0.064626
0.034354
0.019296
-0.022847
-0.062889
-0.025127
-0.019227
0.021062
-0.006324
0.012900
-0.053507
0.026839
-0.001181
0.004804
-0.000976
-0.024499
0.001014
-0.037098
-0.073193
-0.013942
0.002585
-0.032058
-0.057953
-0.020924
0.025055
-0.030294
0.007834
-0.070429
-0.067977
-0.009074
-0.046376
-0.040147
-0.046080
0.000896
-0.040526
-0.053516
0.006268
0.035045
-0.061035
0.026344
-0.001285
-0.024539
-0.040034
-0.039623
-0.033403
-0.025370
-0.036085
-0.026563
0.010035
-0.024678
0.012340
-0.032487
0.015255
0.015098
-0.024642
-0.040946
0.017826
-0.004353
-0.059703
-0.028864
-0.026697
-0.057143
-0.059179
-0.073934
0.019389
-0.024579
-0.071421
-0.037676
-0.056558
-0.059835
-0.031742
0.002425
-0.025065
-0.056262
-0.021862
-0.050680
0.014929
0.016265
-0.041213
-0.040168
-0.023326
-0.023770
0.025266
-0.071484
-0.049210
0.011952
-0.006853
-0.051093
0.007686
0.022639
-0.051384
-0.014751
-0.059313
-0.026276
-0.044577
-0.032936
0.031327
0.015069
-0.057491
-0.023657
-0.006363
-0.067859
-0.026193
0.035198
-0.037623
-0.058809
0.009510
-0.027789
-0.062136
-0.021863
-0.001807
0.004979
-0.038436
-0.042774
0.001036
-0.050408
0.018006
0.031324
-0.007792
-0.028912
0.014407
0.009965
-0.000168
0.015371
0.037367
0.021494
0.021032
0.014724
-0.055167
-0.016397
0.019030
-0.060801
-0.057730
-0.018096
-0.037137
-0.062182
0.016430
-0.057659
-0.058435
-0.051401
-0.003232
0.001543
-0.055798
0.002757
0.000415
-0.055738
-0.044665
-0.062635
0.024762
-0.065992
-0.023289
-0.021623
-0.051935
0.025433
0.019478
-0.011825
-0.050437
-0.011044
-0.033191
-0.029401
-0.003788
0.003515
-0.001451
-0.025196
-0.025389
0.004190
-0.072844
0.002867
-0.057366
-0.056611
-0.031162
-0.035143
-0.001030
-0.034825
-0.031846
-0.040694
-0.006322
0.013593
0.010208
-0.026262
-0.056296
0.012180
-0.037846
-0.057804
-0.023380
-0.072621
-0.041682
0.014636
-0.025543
-0.001334
-0.039087
-0.046902
-0.023323
-0.055949
0.020694
0.014966
-0.027627
-0.026567
-0.039607
-0.059621
-0.019241
0.017072
-0.031035
-0.063445
-0.005832
-0.042244
-0.030300
-0.022519
-0.022180
-0.047612
-0.035546
-0.059327
-0.015189
0.004634
0.015330
0.018882
-0.049158
0.020277
-0.003485
-0.023709
-0.060435
-0.011079
0.019066
-0.022672
-0.063742
-0.041326
-0.061577
-0.022371
-0.052772
-0.057000
-0.053588
-0.038916
0.001020
-0.004207
0.003933
-0.023652
-0.057556
-0.068343
-0.022721
0.031652
-0.002309
-0.071289
0.017009
-0.018840
-0.053624
-0.060178
0.013625
-0.053417
0.022407
0.012640
-0.033172
-0.051710
-0.023625
-0.001978
-0.022893
-0.028362
-0.048711
0.001493
-0.000336
-0.005678
0.006483
-0.039538
0.023721
0.012355
0.011133
-0.035147
-0.046039
0.023891
-0.000268
-0.008819
-0.029497
0.008659
0.032527
0.021954
-0.027088
-0.012609
0.013692
-0.003932
-0.042449
-0.017676
0.028076
-0.049033
-0.001803
-0.055373
-0.036696
-0.070684
-0.008124
-0.059061
-0.029903
-0.036167
-0.022787
-0.033267
-0.029198
-0.041651
-0.055592
-0.055971
-0.039396
0.020729
-0.070501
-0.040344
-0.027340
-0.043518
-0.033402
-0.022716
-0.004568
0.016028
-0.003789
-0.027994
-0.055045
-0.023190
0.025110
0.010916
0.040098
0.014298
-0.025257
-0.021884
-0.024753
0.014859
-0.020103
-0.056680
-0.026185
-0.058112
-0.003499
-0.057078
-0.057069
0.021527
-0.026014
-0.024494
-0.027634
0.021287
-0.020434
-0.021630
-0.007105
-0.054298
-0.057602
0.010585
0.007871
0.001804
-0.045729
-0.006869
-0.041383
0.011903
0.022533
-0.005040
-0.021925
0.020664
-0.012822
-0.022003
-0.068429
-0.056348
0.029269
0.018132
0.017708
-0.056407
-0.046565
-0.021168
-0.017844
-0.054884
-0.029135
-0.036732
0.019310
-0.000734
-0.063645
-0.025934
0.020239
-0.047763
0.033971
-0.005778
-0.049428
0.012419
-0.042339
0.020448
-0.002200
-0.060889
-0.056179
-0.050894
0.011052
-0.040320
-0.020793
-0.057898
-0.048475
0.020360
-0.053985
0.005857
-0.053907
-0.026445
0.002613
-0.003522
-0.008251
0.025627
-0.023088
-0.019399
0.022601
-0.001392
-0.041256
0.008400
0.006506
-0.047644
-0.061143
-0.015549
-0.012357
0.021744
-0.002525
-0.049412
0.023594
-0.024361
-0.069143
-0.066501
-0.040082
-0.004445
-0.023485
0.012149
-0.034070
-0.005930
-0.009463
-0.006116
-0.026574
-0.022933
-0.021589
-0.021905
-0.004578
-0.023717
0.032915
0.010662
-0.037472
-0.028538
-0.026669
-0.038388
-0.032216
-0.035900
-0.056607
0.014291
0.014283
-0.042464
-0.034516
-0.031843
-0.029930
-0.021459
-0.039988
-0.028685
-0.040762
-0.004083
0.016103
-0.056360
-0.041599
-0.021353
-0.055043
0.019700
-0.027782
-0.027342
0.013469
-0.058584
-0.061166
0.036763
-0.054993
-0.059538
-0.055397
-0.023438
-0.058145
0.018097
-0.024312
-0.022127
-0.043135
0.017129
-0.027135
-0.045029
-0.020302
-0.055561
-0.053801
-0.036210
-0.001268
-0.058121
0.016195
-0.009515
-0.059318
0.018941
-0.018317
0.019535
-0.037799
-0.058348
-0.065937
-0.025018
0.019168
-0.022174
0.010890
-0.001396
-0.006767
0.013538
0.003505
-0.038627
-0.055870
-0.021451
-0.043254
-0.056079
-0.018615
-0.009930
-0.028967
-0.020955
0.030047
0.027738
-0.008223
-0.055446
-0.020610
-0.045811
-0.029568
0.007349
-0.041622
0.015879
0.022441
-0.027683
-0.042062
-0.018019
-0.038133
-0.046240
-0.014428
0.003158
-0.006486
-0.044884
-0.032916
0.008818
0.026318
-0.015538
0.014005
0.019017
-0.051538
-0.046578
-0.030623
0.021402
-0.022869
-0.016723
-0.011240
-0.068529
-0.065955
0.020556
-0.050242
-0.025636
-0.022091
0.009249
0.009542
-0.004765
-0.054229
-0.054331
-0.061701
-0.020778
-0.006687
-0.059868
-0.059939
-0.008198
0.030143
-0.024480
-0.005385
-0.024598
-0.060553
-0.037291
-0.021666
0.008676
-0.020262
-0.024779
-0.024738
-0.021499
0.007900
-0.038292
-0.010632
-0.020432
0.014683
-0.035625
-0.030950
0.016007
-0.039950
-0.033046
-0.043206
-0.030185
0.021949
0.022951
-0.021247
-0.041973
0.018717
0.013490
-0.056046
0.012407
-0.042692
-0.019453
-0.056969
-0.033333
-0.021295
-0.022115
-0.015077
-0.028757
0.014373
-0.019814
0.021309
0.009685
-0.055669
-0.034461
-0.054652
-0.022925
-0.053800
-0.005381
-0.051377
-0.048364
-0.052575
-0.005354
-0.020925
0.026367
-0.042802
0.016525
-0.007950
-0.044325
-0.019375
-0.033673
0.006499
0.000105
0.004967
-0.016852
-0.058490
0.008824
0.009302
0.017593
-0.023737
0.019675
-0.021481
-0.056094
-0.047445
-0.036089
-0.019645
-0.058163
0.004753
0.021263
-0.027932
-0.064980
-0.012906
-0.031752
0.010347
-0.055143
-0.047384
-0.055577
-0.055160
-0.009522
-0.019200
-0.018696
0.007480
-0.020350
0.020876
-0.020178
-0.011244
-0.008464
-0.043909
-0.064377
0.018576
-0.043848
-0.038525
0.017728
-0.066272
-0.011030
-0.019295
0.028367
-0.033917
-0.030417
-0.058826
-0.025734
-0.008063
0.000967
-0.029681
-0.052593
-0.040125
0.023090
0.013777
-0.008728
-0.048759
-0.053282
0.019012
-0.024069
-0.004356
0.017640
-0.050709
0.017002
0.005807
-0.012490
0.014114
0.021110
-0.003530
0.026155
-0.044860
0.007152
-0.015072
-0.024514
-0.025051
0.017065
-0.007509
-0.036265
-0.053272
-0.008107
-0.007991
-0.023411
0.004767
-0.006738
-0.019949
0.007421
-0.027473
-0.027787
-0.019766
-0.039865
-0.012786
-0.018597
-0.038907
-0.036463
-0.056407
-0.054962
-0.059513
-0.032956
-0.023371
-0.034084
-0.018807
-0.031809
-0.043636
0.021390
-0.041350
0.018407
0.011368
-0.020561
-0.020228
-0.029864
-0.043025
-0.045478
-0.058592
-0.021193
-0.019494
-0.050797
0.013661
0.015713
0.012794
0.013936
-0.055284
0.012157
-0.053912
-0.021303
-0.013693
-0.053968
-0.053725
0.018458
0.023073
-0.027088
-0.007051
-0.043715
-0.035272
0.002402
0.002768
-0.054630
0.014904
-0.024975
0.007994
-0.014000
0.005155
-0.037494
-0.057579
0.017791
0.017752
-0.010646
0.019677
0.012895
-0.062742
-0.060288
-0.048107
-0.050523
0.012478
0.013771
-0.010617
0.013918
-0.004325
0.001577
-0.051187
-0.017974
-0.019398
-0.057420
-0.021719
-0.022425
-0.034168
0.010083
0.025350
0.022147
0.019081
-0.054668
-0.041297
-0.034848
-0.002523
-0.010968
-0.015283
-0.058330
0.016880
-0.043562
0.020442
-0.054780
-0.046327
-0.018290
0.007688
0.001973
0.011870
0.013150
0.012454
-0.055107
0.016341
-0.051144
0.004650
-0.006595
0.011455
0.006612
0.017564
-0.028040
-0.030702
-0.030686
-0.014369
-0.023797
-0.034784
-0.022550
-0.020820
0.005677
-0.025524
-0.053015
-0.010332
-0.008582
-0.024814
-0.017128
0.005185
0.024807
0.018423
-0.018969
-0.018458
-0.018941
-0.019310
0.020060
-0.008793
-0.019244
-0.037709
-0.025726
-0.019759
-0.040990
-0.026035
-0.058126
-0.029151
-0.037067
-0.042764
-0.018445
0.017785
0.006615
-0.018840
-0.040483