# vtk DataFile Version 2.0
Test
ASCII
DATASET POLYDATA
POINTS 4677 float
0.000000 0.000000 0.000000
0.080000 0.000000 0.000000
0.080000 0.160000 0.000000
0.000000 0.160000 0.000000
0.036000 0.073072 0.000000
0.044000 0.086928 0.000000
0.024500 0.065566 0.000000
0.055500 0.093560 0.000000
0.001000 0.050000 0.000000
0.079000 0.110000 0.000000
0.002963 0.000000 0.000000
0.005926 0.000000 0.000000
0.008889 0.000000 0.000000
0.011852 0.000000 0.000000
0.014815 0.000000 0.000000
0.017778 0.000000 0.000000
0.020741 0.000000 0.000000
0.023704 0.000000 0.000000
0.026667 0.000000 0.000000
0.029630 0.000000 0.000000
0.032593 0.000000 0.000000
0.035556 0.000000 0.000000
0.038519 0.000000 0.000000
0.041481 0.000000 0.000000
0.044444 0.000000 0.000000
0.047407 0.000000 0.000000
0.050370 0.000000 0.000000
0.053333 0.000000 0.000000
0.056296 0.000000 0.000000
0.059259 0.000000 0.000000
0.062222 0.000000 0.000000
0.065185 0.000000 0.000000
0.068148 0.000000 0.000000
0.071111 0.000000 0.000000
0.074074 0.000000 0.000000
0.077037 0.000000 0.000000
0.080000 0.002963 0.000000
0.080000 0.005926 0.000000
0.080000 0.008889 0.000000
0.080000 0.011852 0.000000
0.080000 0.014815 0.000000
0.080000 0.017778 0.000000
0.080000 0.020741 0.000000
0.080000 0.023704 0.000000
0.080000 0.026667 0.000000
0.080000 0.029630 0.000000
0.080000 0.032593 0.000000
0.080000 0.035556 0.000000
0.080000 0.038519 0.000000
0.080000 0.041481 0.000000
0.080000 0.044444 0.000000
0.080000 0.047407 0.000000
0.080000 0.050370 0.000000
0.080000 0.053333 0.000000
0.080000 0.056296 0.000000
0.080000 0.059259 0.000000
0.080000 0.062222 0.000000
0.080000 0.065185 0.000000
0.080000 0.068148 0.000000
0.080000 0.071111 0.000000
0.080000 0.074074 0.000000
0.080000 0.077037 0.000000
0.080000 0.080000 0.000000
0.080000 0.082963 0.000000
0.080000 0.085926 0.000000
0.080000 0.088889 0.000000
0.080000 0.091852 0.000000
0.080000 0.094815 0.000000
0.080000 0.097778 0.000000
0.080000 0.100741 0.000000
0.080000 0.103704 0.000000
0.080000 0.106667 0.000000
0.080000 0.109630 0.000000
0.080000 0.112593 0.000000
0.080000 0.115556 0.000000
0.080000 0.118519 0.000000
0.080000 0.121481 0.000000
0.080000 0.124444 0.000000
0.080000 0.127407 0.000000
0.080000 0.130370 0.000000
0.080000 0.133333 0.000000
0.080000 0.136296 0.000000
0.080000 0.139259 0.000000
0.080000 0.142222 0.000000
0.080000 0.145185 0.000000
0.080000 0.148148 0.000000
0.080000 0.151111 0.000000
0.080000 0.154074 0.000000
0.080000 0.157037 0.000000
0.077037 0.160000 0.000000
0.074074 0.160000 0.000000
0.071111 0.160000 0.000000
0.068148 0.160000 0.000000
0.065185 0.160000 0.000000
0.062222 0.160000 0.000000
0.059259 0.160000 0.000000
0.056296 0.160000 0.000000
0.053333 0.160000 0.000000
0.050370 0.160000 0.000000
0.047407 0.160000 0.000000
0.044444 0.160000 0.000000
0.041481 0.160000 0.000000
0.038519 0.160000 0.000000
0.035556 0.160000 0.000000
0.032593 0.160000 0.000000
0.029630 0.160000 0.000000
0.026667 0.160000 0.000000
0.023704 0.160000 0.000000
0.020741 0.160000 0.000000
0.017778 0.160000 0.000000
0.014815 0.160000 0.000000
0.011852 0.160000 0.000000
0.008889 0.160000 0.000000
0.005926 0.160000 0.000000
0.002963 0.160000 0.000000
0.000000 0.157037 0.000000
0.000000 0.154074 0.000000
0.000000 0.151111 0.000000
0.000000 0.148148 0.000000
0.000000 0.145185 0.000000
0.000000 0.142222 0.000000
0.000000 0.139259 0.000000
0.000000 0.136296 0.000000
0.000000 0.133333 0.000000
0.000000 0.130370 0.000000
0.000000 0.127407 0.000000
0.000000 0.124444 0.000000
0.000000 0.121481 0.000000
0.000000 0.118519 0.000000
0.000000 0.115556 0.000000
0.000000 0.112593 0.000000
0.000000 0.109630 0.000000
0.000000 0.106667 0.000000
0.000000 0.103704 0.000000
0.000000 0.100741 0.000000
0.000000 0.097778 0.000000
0.000000 0.094815 0.000000
0.000000 0.091852 0.000000
0.000000 0.088889 0.000000
0.000000 0.085926 0.000000
0.000000 0.082963 0.000000
0.000000 0.080000 0.000000
0.000000 0.077037 0.000000
0.000000 0.074074 0.000000
0.000000 0.071111 0.000000
0.000000 0.068148 0.000000
0.000000 0.065185 0.000000
0.000000 0.062222 0.000000
0.000000 0.059259 0.000000
0.000000 0.056296 0.000000
0.000000 0.053333 0.000000
0.000000 0.050370 0.000000
0.000000 0.047407 0.000000
0.000000 0.044444 0.000000
0.000000 0.041481 0.000000
0.000000 0.038519 0.000000
0.000000 0.035556 0.000000
0.000000 0.032593 0.000000
0.000000 0.029630 0.000000
0.000000 0.026667 0.000000
0.000000 0.023704 0.000000
0.000000 0.020741 0.000000
0.000000 0.017778 0.000000
0.000000 0.014815 0.000000
0.000000 0.011852 0.000000
0.000000 0.008889 0.000000
0.000000 0.005926 0.000000
0.000000 0.002963 0.000000
0.035500 0.072746 0.000000
0.035000 0.072419 0.000000
0.034500 0.072093 0.000000
0.034000 0.071767 0.000000
0.033500 0.071440 0.000000
0.033000 0.071114 0.000000
0.032500 0.070788 0.000000
0.032000 0.070461 0.000000
0.031500 0.070135 0.000000
0.031000 0.069809 0.000000
0.030500 0.069482 0.000000
0.030000 0.069156 0.000000
0.029500 0.068829 0.000000
0.029000 0.068503 0.000000
0.028500 0.068177 0.000000
0.028000 0.067850 0.000000
0.027500 0.067524 0.000000
0.027000 0.067198 0.000000
0.026500 0.066871 0.000000
0.026000 0.066545 0.000000
0.025500 0.066219 0.000000
0.025000 0.065892 0.000000
0.044500 0.087216 0.000000
0.045000 0.087505 0.000000
0.045500 0.087793 0.000000
0.046000 0.088081 0.000000
0.046500 0.088370 0.000000
0.047000 0.088658 0.000000
0.047500 0.088946 0.000000
0.048000 0.089235 0.000000
0.048500 0.089523 0.000000
0.049000 0.089811 0.000000
0.049500 0.090100 0.000000
0.050000 0.090388 0.000000
0.050500 0.090677 0.000000
0.051000 0.090965 0.000000
0.051500 0.091253 0.000000
0.052000 0.091542 0.000000
0.052500 0.091830 0.000000
0.053000 0.092118 0.000000
0.053500 0.092407 0.000000
0.054000 0.092695 0.000000
0.054500 0.092983 0.000000
0.055000 0.093272 0.000000
0.043704 0.086415 0.000000
0.043407 0.085902 0.000000
0.043111 0.085388 0.000000
0.042815 0.084875 0.000000
0.042519 0.084362 0.000000
0.042222 0.083849 0.000000
0.041926 0.083336 0.000000
0.041630 0.082823 0.000000
0.041333 0.082309 0.000000
0.041037 0.081796 0.000000
0.040741 0.081283 0.000000
0.040444 0.080770 0.000000
0.040148 0.080257 0.000000
0.039852 0.079743 0.000000
0.039556 0.079230 0.000000
0.039259 0.078717 0.000000
0.038963 0.078204 0.000000
0.038667 0.077691 0.000000
0.038370 0.077177 0.000000
0.038074 0.076664 0.000000
0.037778 0.076151 0.000000
0.037481 0.075638 0.000000
0.037185 0.075125 0.000000
0.036889 0.074612 0.000000
0.036593 0.074098 0.000000
0.036296 0.073585 0.000000
0.024000 0.065235 0.000000
0.023500 0.064904 0.000000
0.023000 0.064572 0.000000
0.022500 0.064241 0.000000
0.022000 0.063910 0.000000
0.021500 0.063579 0.000000
0.021000 0.063248 0.000000
0.020500 0.062916 0.000000
0.020000 0.062585 0.000000
0.019500 0.062254 0.000000
0.019000 0.061923 0.000000
0.018500 0.061592 0.000000
0.018000 0.061261 0.000000
0.017500 0.060929 0.000000
0.017000 0.060598 0.000000
0.016500 0.060267 0.000000
0.016000 0.059936 0.000000
0.015500 0.059605 0.000000
0.015000 0.059273 0.000000
0.014500 0.058942 0.000000
0.014000 0.058611 0.000000
0.013500 0.058280 0.000000
0.013000 0.057949 0.000000
0.012500 0.057617 0.000000
0.012000 0.057286 0.000000
0.011500 0.056955 0.000000
0.011000 0.056624 0.000000
0.010500 0.056293 0.000000
0.010000 0.055961 0.000000
0.009500 0.055630 0.000000
0.009000 0.055299 0.000000
0.008500 0.054968 0.000000
0.008000 0.054637 0.000000
0.007500 0.054305 0.000000
0.007000 0.053974 0.000000
0.006500 0.053643 0.000000
0.006000 0.053312 0.000000
0.005500 0.052981 0.000000
0.005000 0.052650 0.000000
0.004500 0.052318 0.000000
0.004000 0.051987 0.000000
0.003500 0.051656 0.000000
0.003000 0.051325 0.000000
0.002500 0.050994 0.000000
0.002000 0.050662 0.000000
0.001500 0.050331 0.000000
0.055990 0.093902 0.000000
0.056479 0.094245 0.000000
0.056969 0.094587 0.000000
0.057458 0.094930 0.000000
0.057948 0.095272 0.000000
0.058437 0.095615 0.000000
0.058927 0.095957 0.000000
0.059417 0.096300 0.000000
0.059906 0.096642 0.000000
0.060396 0.096985 0.000000
0.060885 0.097327 0.000000
0.061375 0.097670 0.000000
0.061865 0.098012 0.000000
0.062354 0.098355 0.000000
0.062844 0.098697 0.000000
0.063333 0.099040 0.000000
0.063823 0.099382 0.000000
0.064312 0.099725 0.000000
0.064802 0.100067 0.000000
0.065292 0.100410 0.000000
0.065781 0.100752 0.000000
0.066271 0.101095 0.000000
0.066760 0.101437 0.000000
0.067250 0.101780 0.000000
0.067740 0.102122 0.000000
0.068229 0.102465 0.000000
0.068719 0.102807 0.000000
0.069208 0.103150 0.000000
0.069698 0.103492 0.000000
0.070187 0.103835 0.000000
0.070677 0.104177 0.000000
0.071167 0.104520 0.000000
0.071656 0.104862 0.000000
0.072146 0.105205 0.000000
0.072635 0.105547 0.000000
0.073125 0.105890 0.000000
0.073615 0.106232 0.000000
0.074104 0.106575 0.000000
0.074594 0.106917 0.000000
0.075083 0.107260 0.000000
0.075573 0.107602 0.000000
0.076062 0.107945 0.000000
0.076552 0.108287 0.000000
0.077042 0.108630 0.000000
0.077531 0.108972 0.000000
0.078021 0.109315 0.000000
0.078510 0.109658 0.000000
0.043942 0.087469 0.000000
0.035556 0.157037 0.000000
0.044420 0.002920 0.000000
0.077037 0.038519 0.000000
0.002963 0.121481 0.000000
0.077037 0.059259 0.000000
0.002963 0.109630 0.000000
0.002923 0.098139 0.000000
0.077153 0.126913 0.000000
0.002808 0.032596 0.000000
0.077140 0.071061 0.000000
0.002963 0.085926 0.000000
0.002963 0.136296 0.000000
0.077041 0.023701 0.000000
0.056296 0.157037 0.000000
0.032593 0.002963 0.000000
0.077037 0.080000 0.000000
0.002813 0.077135 0.000000
0.077037 0.142222 0.000000
0.017778 0.157037 0.000000
0.062222 0.002963 0.000000
0.076992 0.088722 0.000000
0.002945 0.020743 0.000000
0.017777 0.002962 0.000000
0.002801 0.068434 0.000000
0.002959 0.011851 0.000000
0.065186 0.157038 0.000000
0.002963 0.148148 0.000000
0.077037 0.011852 0.000000
0.076887 0.094740 0.000000
0.077092 0.115875 0.000000
0.002677 0.044265 0.000000
0.077038 0.148148 0.000000
0.002985 0.062165 0.000000
0.077037 0.047407 0.000000
0.011852 0.002963 0.000000
[...]
POINT_DATA 4677
SCALARS UX float 1
LOOKUP_TABLE default
-0.000001
0.000002
0.178213
0.049692
0.040507
0.077290
-0.017701
0.146163
-0.052752
0.203775
-0.000000
-0.000000
-0.000000
-0.000000
-0.000000
-0.000000
-0.000000
-0.000000
-0.000000
-0.000000
-0.000000
-0.000000
-0.000000
0.000000
0.000000
0.000000
0.000000
0.000000
0.000000
0.000000
0.000000
0.000000
0.000000
0.000000
0.000000
-0.000000
0.001959
0.003847
0.005860
0.007856
0.010205
0.012838
0.019064
0.025804
0.033279
0.040684
0.048108
0.055461
0.062135
0.069028
0.075545
0.079336
0.085833
0.090606
0.096181
0.100349
0.106423
0.113030
0.118431
0.129465
0.140761
0.151543
0.160931
0.171581
0.173531
0.176023
0.178923
0.181380
0.186573
0.191623
0.194326
0.197671
0.204424
0.207183
0.211768
0.212924
0.222166
0.199605
0.187939
0.186341
0.180273
0.179836
0.174078
0.170499
0.170154
0.172573
0.173495
0.172740
0.172275
0.174510
0.172797
0.167580
0.161655
0.156077
0.150167
0.144633
0.139376
0.134327
0.129563
0.124812
0.120011
0.115944
0.111752
0.106856
0.101569
0.095884
0.090423
0.085194
0.080343
0.075728
0.071366
0.067057
0.062750
0.058415
0.054027
0.050011
0.050844
0.052222
0.053781
0.055215
0.056343
0.057025
0.057289
0.057249
0.056562
0.055766
0.054089
0.052261
0.050546
0.049159
0.047921
0.046820
0.045791
0.044433
0.042390
0.038863
0.033251
0.027783
0.021116
0.012696
0.004244
-0.003808
-0.011068
-0.018255
-0.024279
-0.029677
-0.034353
-0.039060
-0.043856
-0.048043
-0.050351
-0.052989
-0.053558
-0.053585
-0.053655
-0.053635
-0.053018
-0.048917
-0.043274
-0.037097
-0.034251
-0.030959
-0.027998
-0.027309
-0.027513
-0.028531
-0.026718
-0.019222
0.037162
0.038249
0.031286
0.029830
0.028165
0.026682
0.019042
0.023228
0.021457
0.019759
0.016298
0.010699
0.003728
-0.006386
-0.008758
-0.037810
0.146834
0.002974
-0.123190
-0.018862
-0.016536
-0.017225
0.059352
0.079241
0.079577
0.082335
0.087567
0.092972
0.097820
0.100967
0.100707
0.108411
0.110515
0.118421
0.116875
0.125902
0.126248
0.136380
0.129893
0.132484
0.140246
0.138023
0.140901
0.143663
0.076144
0.073689
0.072311
0.070772
0.070472
0.072465
0.073595
0.069598
0.070932
0.071825
0.059723
0.066853
0.068350
0.061985
0.063580
0.058229
0.056691
0.055325
0.057927
0.055374
0.052199
0.051121
0.044904
0.042939
0.043283
0.042738
-0.018568
-0.019891
-0.018359
-0.023712
-0.024012
-0.024354
-0.024776
-0.025387
-0.026069
-0.026816
-0.028012
-0.029149
-0.030269
-0.032064
-0.032966
-0.032455
-0.034018
-0.034640
-0.035644
-0.036728
-0.037492
-0.038034
-0.038986
-0.039878
-0.040763
-0.041406
-0.041982
-0.042550
-0.043404
-0.044240
-0.045056
-0.045857
-0.046606
-0.047303
-0.047686
-0.048210
-0.048491
-0.048971
-0.049473
-0.049972
-0.050446
-0.050891
-0.051314
-0.051645
-0.052105
-0.052446
0.148041
0.150107
0.151979
0.153506
0.155061
0.156604
0.158079
0.159199
0.160175
0.161154
0.161904
0.163062
0.164211
0.165392
0.166449
0.167274
0.168210
0.169263
0.170453
0.171620
0.172874
0.173919
0.175046
0.176195
0.177352
0.178502
0.179752
0.181064
0.182327
0.183724
0.185250
0.186534
0.187092
0.188582
0.190230
0.191141
0.191907
0.192913
0.193549
0.194209
0.194677
0.195644
0.196826
0.198241
0.199737
0.201249
0.202744
0.071689
0.107021
-0.000081
0.055992
0.057821
0.097284
0.051483
0.045098
0.177929
-0.046587
0.121236
0.017290
0.061671
0.019995
0.139058
0.000075
0.157793
-0.009274
0.166931
0.075956
0.000083
0.173010
-0.028433
-0.003616
-0.028689
-0.025385
0.154801
0.057318
0.005114
0.177346
0.206127
-0.052823
0.167472
-0.038798
0.076561
-0.013652
0.162032
0.058507
0.000180
-0.043958
0.187553
0.173378
0.115616
0.124892
-0.000609
0.061696
0.033661
0.085376
0.000057
0.168546
0.198520
-0.052615
0.073273
0.210014
-0.052462
-0.047348
-0.016950
0.167864
0.035645
0.007238
0.107548
0.132151
0.086395
0.048862
0.191421
0.054143
-0.040447
-0.034177
0.063033
0.096264
0.173089
0.000023
-0.000178
0.060870
0.041035
-0.000017
-0.026222
-0.000289
0.144307
0.129386
0.060162
0.009893
-0.025786
-0.016128
-0.022306
0.067179
0.000135
0.168504
-0.012951
-0.011699
0.054730
0.001488
0.054162
0.000245
0.202758
0.075429
-0.052327
-0.050836
0.196715
0.074979
-0.000340
0.049633
0.123620
-0.038135
0.012502
0.193415
0.128931
0.066330
0.166817
-0.001834
-0.051539
-0.023803
-0.041700
0.153402
0.187492
0.138144
-0.022760
-0.015200
-0.020753
0.163394
0.058874
0.000397
0.203320
-0.052990
0.182422
-0.033233
0.176250
-0.023154
-0.052272
0.171351
0.193144
-0.052124
0.201324
-0.000903
0.143741
0.029218
0.041178
0.112560
0.101580
0.047042
0.050199
0.091433
0.052679
0.081610
0.175728
0.070116
0.055791
0.111347
0.059518
0.048442
0.101858
0.000007
0.120412
-0.031857
0.090649
0.000054
0.000055
0.169667
0.061923
0.026366
0.134138
-0.000321
0.080529
0.000065
-0.025854
-0.001794
0.149843
0.061172
0.014623
-0.006521
0.058832
0.007358
0.159466
0.165018
0.071488
0.000108
0.165446
0.168928
0.062854
0.000156
0.055846
0.003137
-0.052670
0.203505
0.200554
-0.045521
-0.051863
0.071727
0.075368
0.194483
-0.049216
0.187083
-0.051621
0.073242
0.072772
0.074636
0.096885
0.045319
0.054476
0.172641
-0.051056
0.101524
0.081089
-0.021819
0.000079
0.020278
0.172995
0.065019
0.072042
0.179506
0.004678
0.062387
0.000202
0.201447
-0.052042
0.170656
0.087354
0.057354
0.077214
0.061095
0.120484
0.066321
0.148476
-0.005448
-0.012169
0.059678
0.157147
0.163681
-0.052606
0.202887
-0.052403
0.201792
0.146993
-0.033997
0.186576
0.000226
-0.048625
0.168821
0.160131
0.051560
0.192861
-0.048089
-0.050851
-0.051929
0.107198
0.115930
0.031715
0.042528
0.000193
-0.000075
-0.032371
0.064320
0.057307
-0.000065
-0.000149
0.022759
0.164807
0.124921
0.091006
0.133495
0.064589
0.065689
0.165404
0.159361
0.168247
0.110849
-0.030089
-0.000635
0.143566
-0.023092
-0.003283
0.010945
0.000107
-0.025750
-0.023031
-0.013289
0.165044
0.063209
0.000323
0.001239
-0.044100
0.076266
0.070626
0.199767
-0.051510
-0.051349
0.204491
-0.053005
0.198590
0.073848
0.078662
0.073213
0.075488
0.075161
-0.000169
0.050291
0.108331
0.035956
0.120415
0.069618
-0.040330
0.161999
0.152744
-0.001455
0.134071
-0.025914
-0.021284
-0.013737
-0.051618
0.200229
0.164779
0.074798
-0.016410
0.035914
-0.000316
0.162256
-0.004677
0.143295
0.157536
0.070710
0.063775
0.000490
0.072109
-0.027029
0.175212
-0.046363
-0.037387
0.052958
-0.007931
0.040998
0.048799
0.027132
0.101663
0.192946
0.091976
0.055908
0.082102
0.133859
0.059157
0.167226
0.169970
0.026784
0.115268
-0.000175
0.096424
0.065958
0.070885
0.000075
0.085974
-0.029146
0.124077
0.035848
0.063035
0.000086
0.076539
0.163234
0.015175
-0.020453
-0.017384
0.007007
0.160033
0.153250
-0.008804
0.063799
0.000128
0.106329
0.067580
0.060927
0.160845
0.002615
0.000267
-0.050410
0.174946
-0.051588
0.075134
-0.049737
0.075781
0.078466
0.194732
-0.052221
0.203426
0.072524
0.085276
0.197350
-0.050790
-0.052269
0.196262
0.201988
0.078810
0.076243
0.074431
-0.050947
-0.052072
0.078331
0.077280
0.089355
0.056487
0.040220
-0.042721
0.168869
0.119110
-0.013228
-0.050934
0.091299
0.169652
0.068653
0.000076
0.015421
-0.025894
-0.036253
0.077239
0.060129
0.000224
0.004820
0.077085
0.000051
0.200500
0.110793
0.064472
0.068049
0.158264
-0.018820
-0.010567
0.001213
0.068097
0.114215
-0.051847
0.182129
0.161456
-0.023122
0.050757
0.017256
0.044484
-0.000421
0.097812
0.027006
0.057048
0.057225
0.116716
-0.000423
-0.049185
0.176875
0.163387
0.000110
0.165588
0.142857
0.129665
0.071332
0.160909
-0.033863
0.070426
0.086436
-0.002794
0.042578
-0.022277
0.138652
-0.007103
0.103265
0.000122
0.100468
0.147878
0.156144
0.070440
0.011199
-0.019354
0.160126
-0.016635
-0.000017
0.067356
0.064736
0.000291
0.000390
-0.050011
0.078940
0.071818
0.079188
-0.051120
-0.050452
0.198509
0.195727
0.074427
-0.049180
0.076320
0.193144
-0.031148
0.083110
0.195969
0.159068
0.162404
0.123946
-0.051326
-0.051739
0.070596
0.081670
0.200387
0.070460
0.087081
0.043253
0.094815
0.072665
-0.000380
0.133003
-0.049499
0.158764
0.173367
0.160669
0.134519
0.074777
0.090855
-0.002330
-0.051675
0.156347
0.000088
0.012047
0.197206
0.143704
0.072239
0.068778
0.073733
-0.029151
0.022890
0.163477
0.104251
-0.008930
0.000317
-0.019580
-0.014894
0.000520
0.068726
0.189176
0.047478
0.082030
0.070739
-0.036594
-0.000550
0.054250
0.064191
0.093720
0.113579
0.165991
0.058702
0.088773
0.061883
-0.000291
0.066549
0.158924
0.128863
-0.004378
0.166650
0.158242
-0.025779
0.118663
0.000035
0.153598
0.032248
-0.022587
-0.049852
0.074297
0.029613
-0.018605
0.105299
0.156168
0.081914
0.007259
-0.004259
0.152352
0.000142
0.069752
0.124085
-0.012420
0.155115
0.095910
0.002825
0.066008
0.072594
0.020417
0.194390
-0.049363
0.079663
-0.033000
-0.051349
0.083704
0.077989
0.073299
0.069410
0.075490
0.077169
-0.050594
0.069490
0.085627
0.092322
0.053765
-0.018525
0.007519
-0.048396
0.158372
0.085460
0.196773
0.165808
0.133148
-0.051077
-0.049862
0.192439
0.081138
0.197745
-0.050794
-0.046726
0.193642
0.194529
0.084298
0.080276
0.076766
0.062249
0.045523
0.161932
0.113212
0.077756
-0.010320
-0.000393
-0.038458
0.018182
-0.049824
0.178606
-0.003843
0.154963
-0.023633
0.154238
0.130552
-0.051079
-0.035317
0.082153
0.194367
0.086181
0.155333
0.064974
0.103719
0.070440
0.152640
0.066189
-0.018315
0.095063
-0.000037
-0.011095
0.152248
0.004886
-0.020912
0.000253
0.073352
0.001349
0.069757
0.072311
0.085233
0.058417
0.003335
0.023453
-0.045864
0.079232
0.090308
0.053489
-0.048908
0.018347
0.144745
-0.000109
-0.029451
0.100211
0.070552
-0.000160
-0.001352
-0.047678
0.074814
0.125472
0.157909
0.195861
0.124067
-0.006394
-0.015291
0.148133
0.110236
0.051132
0.139306
0.000141
0.074220
0.007270
0.155207
0.036068
0.070975
0.192221
0.108484
0.086671
0.000412
-0.015038
0.191418
0.073037
-0.048191
0.166811
0.194509
0.192638
0.070786
0.096494
-0.050837
-0.050486
0.156519
-0.050612
0.083079
0.164047
0.079871
0.070986
0.074408
0.086797
0.078231
0.076369
0.056602
0.084435
0.195273
0.068311
0.088797
0.192413
-0.048541
-0.042594
-0.049920
0.193216
0.082285
-0.048874
0.157768
-0.033157
0.084095
0.080703
0.149662
0.080163
0.082179
0.098929
0.050983
-0.046524
0.125122
-0.049914
-0.000083
0.128194
0.094578
0.078497
0.005407
0.089509
0.068908
0.000252
-0.050396
-0.048703
0.059440
-0.025980
0.012110
-0.039318
0.076070
0.140058
0.045724
0.109801
-0.007524
0.148683
0.153662
0.074610
0.086362
0.073667
0.059242
0.061256
0.083383
0.064632
-0.033567
-0.000807
-0.002734
0.191232
0.073982
-0.029014
-0.024173
0.146352
0.067982
-0.047822
0.107029
0.073899
-0.048183
0.091113
-0.032753
0.099600
0.056780
-0.020411
0.013659
0.154494
-0.005298
0.078721
0.152074
-0.050077
-0.038548
0.038326
0.163697
0.159893
-0.013871
-0.015237
0.118589
-0.017368
0.077753
0.135531
0.036673
0.023087
0.073672
0.152083
0.000616
0.003038
0.193601
0.077564
0.076774
0.000363
0.068769
0.152924
0.169083
-0.000511
0.082471
0.190287
0.181003
0.089843
-0.049628
0.168206
0.154683
0.193355
-0.047220
0.085716
0.069828
0.070447
0.075529
-0.004320
0.100114
0.076825
-0.050271
0.070691
0.190915
0.186347
-0.047957
0.083155
0.083720
0.153315
0.063385
0.081394
-0.000520
0.192145
0.086942
0.191051
0.094381
-0.048225
0.145023
0.080912
0.037803
0.089340
-0.046142
0.044552
-0.000934
-0.008000
0.013816
0.147786
-0.026709
0.166444
0.149610
-0.006223
0.082064
-0.021004
0.064733
0.111065
-0.037479
-0.049593
0.191421
-0.048328
0.149639
0.071057
0.010226
0.000322
0.072442
0.098081
0.055848
0.148842
0.030412
0.003326
0.078216
0.074059
0.074940
-0.033856
0.188926
0.160346
-0.049637
0.082425
0.007653
-0.043161
-0.048875
0.104057
0.133403
0.073836
0.052830
0.135519
0.101990
-0.019256
-0.018025
-0.013040
0.095661
-0.001433
0.115374
0.082239
0.086868
-0.000334
0.001663
0.144762
-0.016740
0.000051
0.082128
0.066494
0.122990
0.000486
0.090669
-0.047158
-0.015373
0.028889
-0.034814
0.177084
0.062914
0.061354
-0.003912
0.081108
0.077728
0.075724
0.152809
-0.048599
0.078863
0.171782
0.079752
0.056971
0.171831
0.148842
0.076940
0.082984
0.075832
0.089041
0.069915
0.071745
0.069439
0.179175
0.097758
0.184708
0.069062
0.190999
0.190049
0.085099
0.077841
0.189631
-0.000570
-0.030663
0.070060
0.100855
-0.049329
-0.047566
0.060241
0.189600
0.082507
0.068244
0.085297
-0.046503
-0.039445
-0.030075
0.160839
0.092550
-0.047742
0.099703
-0.049308
0.192759
0.189747
0.083226
0.075864
0.075642
0.084445
0.083148
0.068164
0.049107
0.112520
-0.001953
0.085645
0.180366
0.168283
-0.048730
0.122175
-0.028704
0.097754
0.085450
0.090050
0.045026
0.097458
-0.039653
-0.017565
0.137700
0.072191
-0.023840
0.058034
0.087359
0.079245
0.005281
0.096439
0.062147
-0.014589
-0.000451
0.001798
0.081942
0.079059
0.000117
0.082612
0.187105
0.074700
-0.002557
-0.030769
0.189676
0.105522
0.145414
0.131481
0.069037
0.163656
0.154453
0.009748
-0.049316
0.117862
0.092536
0.000086
-0.035999
-0.010491
-0.046743
-0.022715
0.188316
0.058819
-0.041295
0.037152
-0.000800
0.149130
0.020762
0.000536
0.149962
-0.046897
0.080109
-0.014255
0.172895
0.064786
0.088659
0.106879
0.082744
0.029492
0.018241
0.127500
0.054191
-0.005214
-0.044793
-0.036284
0.144968
0.000736
0.148801
0.067816
0.067865
0.172260
0.067461
0.165165
-0.046529
-0.045545
0.067443
0.070171
0.150792
0.087310
0.094921
0.076174
-0.001594
0.187876
0.178820
0.098945
-0.049003
0.183914
0.073260
-0.032388
0.079737
0.063247
0.080424
0.190632
0.092576
0.155091
0.085010
-0.048700
0.082633
-0.048185
0.188356
0.188601
0.067699
0.106569
-0.047584
-0.046174
0.099592
0.188694
-0.039945
0.075914
0.139678
0.082880
-0.040665
0.087569
0.078293
0.052278
-0.047458
-0.003434
0.121977
0.178269
0.013687
0.149296
-0.048071
0.160355
0.145194
0.066526
0.065688
-0.005028
0.184956
0.095190
0.077642
0.076772
-0.017350
0.106973
0.059051
-0.041856
0.084168
0.087508
0.000106
-0.000991
0.000847
-0.021014
-0.045119
0.065963
0.072474
0.051344
0.145487
0.069629
0.186588
-0.010906
0.017624
-0.024207
0.187388
-0.048372
0.087967
0.118195
-0.044457
0.028063
0.102680
0.145383
-0.016893
-0.037006
0.042840
0.165685
0.157794
-0.001018
0.002935
0.082427
0.031756
0.183739
0.099281
0.086149
0.086086
0.170064
-0.000217
0.133509
0.093902
0.180742
0.069106
0.023813
-0.031851
-0.006216
0.009795
0.144769
0.084475
0.116299
0.078777
0.086386
0.149146
-0.048761
0.071505
0.066174
-0.003149
-0.044027
0.065976
0.088646
0.092458
0.093502
0.101270
0.077727
-0.047486
-0.044888
0.074728
0.185541
0.070855
0.085310
0.103683
-0.047791
0.068920
0.085299
0.146887
0.187349
0.141685
-0.027561
-0.046167
0.069549
0.175892
0.108574
0.069887
0.188097
0.100100
0.081666
0.068603
0.187092
-0.012682
0.063067
0.104619
0.081159
0.146057
-0.038017
-0.034820
0.165833
0.068477
0.112140
-0.037119
0.084335
0.080330
0.087138
0.140936
0.086325
0.067537
0.120849
0.101070
0.170430
-0.047301
-0.001942
0.089479
0.009449
0.171434
0.141780
0.068233
0.167532
-0.006041
-0.018839
0.069798
-0.033950
0.069804
0.183584
0.143621
-0.036723
0.047201
0.094477
0.117521
-0.046840
0.094197
0.085878
0.018540
-0.000192
0.067855
-0.027904
0.182185
0.089968
0.064295
0.141056
0.025841
0.185962
0.078432
0.157291
0.154928
-0.010164
0.008972
-0.047584
0.006595
0.087498
0.111040
-0.043488
0.034709
0.163495
-0.048008
0.002056
0.064769
0.099052
0.000445
0.151002
-0.002922
0.038023
0.066097
0.111038
0.182865
0.145646
0.082872
0.106632
0.180228
0.086473
-0.021026
-0.007752
0.127249
0.024111
-0.000701
0.057293
0.080284
0.103050
0.071336
0.075503
0.088620
0.144592
-0.016499
0.093563
-0.045276
0.140063
-0.003855
0.138282
-0.033668
0.066538
0.074994
0.091390
0.145512
0.068816
0.057811
0.183221
0.090282
0.065622
0.064244
0.073021
0.067515
0.070193
-0.044630
0.186717
0.187293
0.080156
0.092881
0.099644
-0.040516
0.084840
-0.046503
0.102799
0.075707
0.141897
0.185725
-0.040024
0.085273
-0.013775
-0.047885
0.154016
0.109395
0.115387
0.187984
0.082807
-0.014637
0.064451
-0.045486
-0.026685
-0.044130
0.099848
-0.046537
0.088360
0.102674
0.107559
0.082699
0.084152
-0.037085
0.050211
0.082557
0.069325
0.088148
-0.046129
0.161444
-0.007863
0.144541
-0.003420
-0.022398
0.159012
0.117430
0.165684
0.092826
-0.028197
0.072915
0.103257
0.180624
-0.017109
0.186509
-0.000334
0.141325
0.186845
0.000739
0.087834
-0.038368
0.065683
0.090030
-0.041671
0.104717
-0.004069
0.064841
0.072071
0.059425
0.043501
0.136246
-0.043257
0.093408
0.033270
0.112195
0.003352
0.087329
0.137459
0.177435
0.097956
-0.046107
-0.010209
0.086067
0.040244
-0.007962
0.177248
0.145395
0.090327
0.089932
0.112602
0.074369
0.122947
0.013245
0.025395
0.061492
0.055353
-0.042252
0.169724
0.107690
0.108924
-0.005036
0.073104
0.068673
0.080974
0.088949
-0.035113
-0.021585
0.095608
0.006867
0.141147
-0.043831
-0.045530
0.080702
0.069423
0.140986
-0.019839
-0.016701
0.137213
0.064437
-0.024210
-0.001224
-0.028496
0.069354
0.071252
0.066476
0.183822
0.077299
0.065065
0.115763
-0.012801
0.101862
0.090973
0.132062
0.086287
0.091816
0.094453
0.066249
0.183809
0.074537
0.098993
0.080285
0.111190
0.180236
0.174397
0.090345
0.077104
0.154584
0.187521
-0.043729
0.186210
0.085199
0.113809
-0.043661
-0.047031
0.064435
0.070816
0.112554
0.107694
0.186215
0.097184
0.157343
0.005285
-0.035909
0.068818
-0.044731
-0.015683
-0.047097
0.141651
0.017140
-0.046835
-0.047328
0.150149
0.106984
0.059570
0.087714
0.080066
0.144150
0.053255
0.084578
-0.045679
0.113273
0.170025
0.097102
0.121214
-0.018699
0.008993
0.185146
0.156125
0.107178
0.169339
-0.019958
0.086354
0.023679
0.069606
0.064642
0.071483
0.001536
0.173352
-0.039216
0.077376
-0.006001
0.066089
0.089895
-0.035172
0.093298
0.000897
-0.037555
0.137007
0.071558
0.079250
0.004629
0.113718
0.178840
0.092001
0.131133
0.136829
0.082460
0.071552
0.163629
0.041764
-0.045300
0.181907
0.074749
-0.004588
-0.011586
0.050693
0.089885
0.093260
-0.025213
0.102401
0.137428
0.000152
0.108444
-0.046405
0.093085
0.075771
0.087767
0.136509
0.060584
0.067339
0.161256
-0.015054
0.155460
0.149729
0.090738
0.018420
0.096008
0.110269
0.137339
0.032449
-0.000754
0.065521
0.094009
0.007090
-0.007556
-0.030582
-0.035095
0.183996
0.137726
0.091783
0.008963
-0.002489
0.137106
-0.025012
0.105376
0.142248
0.067066
0.182283
0.122420
0.063259
0.074530
0.091115
0.127371
0.101180
0.072877
0.094843
-0.042765
-0.042505
-0.013174
0.067273
0.062463
0.098925
0.125321
0.106624
0.085138
0.175847
0.075769
0.140929
0.187214
0.088916
0.066012
-0.043201
0.078701
-0.046080
-0.030133
0.111228
0.096318
-0.046742
0.186863
0.182388
0.187081
0.185127
-0.039948
0.007439
-0.043027
0.064213
0.118857
-0.044517
-0.046102
0.167144
0.060458
-0.040113
0.149266
0.097236
-0.044576
0.094626
0.106807
-0.004669
0.147377
0.106349
0.184560
-0.006685
0.005613
0.096488
-0.027567
0.165531
0.168716
0.132729
0.177495
0.186008
0.075992
0.082432
0.016400
0.092181
0.131250
0.019184
-0.004050
0.181968
-0.001108
0.000372
-0.045676
0.073964
0.090721
-0.030422
-0.017459
-0.014481
0.067552
0.086627
0.051821
0.037660
0.077232
-0.039026
0.094063
0.090561
0.162911
0.133570
0.123894
-0.021860
0.151362
0.035769
0.171051
-0.040918
0.058971
0.064756
0.119258
0.173876
0.013527
0.083705
0.139653
0.071723
0.180869
0.064568
0.181544
-0.001757
0.186728
0.092338
0.161758
0.099290
0.114114
-0.045737
0.106647
-0.030763
0.095980
-0.025333
-0.020967
0.004652
-0.036005
-0.045332
0.134474
0.137887
-0.034932
-0.009205
0.101934
0.070785
0.179625
0.117608
0.086760
0.069049
0.063026
0.174936
0.139860
0.088560
0.070997
0.064595
0.062686
0.090863
0.124775
-0.015368
0.119862
0.094935
-0.044798
0.076675
0.159452
0.003222
0.081833
0.074528
0.064593
0.185609
0.071993
-0.042533
0.098991
0.099063
0.110654
0.104987
0.079345
0.182158
0.077133
-0.022977
-0.045898
0.080190
0.047022
0.060303
0.131760
-0.036853
0.094957
-0.042945
-0.041693
0.187612
0.183354
0.132027
0.002766
0.087858
0.085044
0.114753
0.065490
0.117896
0.069928
0.130779
0.138126
-0.043978
-0.033418
0.076632
0.087783
-0.045270
0.155784
0.079438
-0.017278
0.142508
-0.002231
0.153183
-0.028872
0.121156
0.113001
0.160131
0.183861
0.099591
0.065320
-0.019058
-0.045019
0.166897
-0.014086
0.129307
0.088342
0.061795
-0.043857
0.101261
0.114885
0.066094
0.110237
0.001289
0.134450
-0.008128
0.094894
0.075978
0.081761
0.096278
0.006074
0.092033
0.029531
-0.035868
0.052397
0.163802
-0.042220
0.095301
0.097636
-0.037984
-0.023711
-0.000430
0.128836
-0.044947
0.168236
0.056593
0.097845
0.072056