# vtk DataFile Version 2.0
Test
ASCII
DATASET POLYDATA
POINTS 4677 float
0.000000 0.000000 0.000000
0.080000 0.000000 0.000000
0.080000 0.160000 0.000000
0.000000 0.160000 0.000000
0.036000 0.073072 0.000000
0.044000 0.086928 0.000000
0.024500 0.065566 0.000000
0.055500 0.093560 0.000000
0.001000 0.050000 0.000000
0.079000 0.110000 0.000000
0.002963 0.000000 0.000000
0.005926 0.000000 0.000000
0.008889 0.000000 0.000000
0.011852 0.000000 0.000000
0.014815 0.000000 0.000000
0.017778 0.000000 0.000000
0.020741 0.000000 0.000000
0.023704 0.000000 0.000000
0.026667 0.000000 0.000000
0.029630 0.000000 0.000000
0.032593 0.000000 0.000000
0.035556 0.000000 0.000000
0.038519 0.000000 0.000000
0.041481 0.000000 0.000000
0.044444 0.000000 0.000000
0.047407 0.000000 0.000000
0.050370 0.000000 0.000000
0.053333 0.000000 0.000000
0.056296 0.000000 0.000000
0.059259 0.000000 0.000000
0.062222 0.000000 0.000000
0.065185 0.000000 0.000000
0.068148 0.000000 0.000000
0.071111 0.000000 0.000000
0.074074 0.000000 0.000000
0.077037 0.000000 0.000000
0.080000 0.002963 0.000000
0.080000 0.005926 0.000000
0.080000 0.008889 0.000000
0.080000 0.011852 0.000000
0.080000 0.014815 0.000000
0.080000 0.017778 0.000000
0.080000 0.020741 0.000000
0.080000 0.023704 0.000000
0.080000 0.026667 0.000000
0.080000 0.029630 0.000000
0.080000 0.032593 0.000000
0.080000 0.035556 0.000000
0.080000 0.038519 0.000000
0.080000 0.041481 0.000000
0.080000 0.044444 0.000000
0.080000 0.047407 0.000000
0.080000 0.050370 0.000000
0.080000 0.053333 0.000000
0.080000 0.056296 0.000000
0.080000 0.059259 0.000000
0.080000 0.062222 0.000000
0.080000 0.065185 0.000000
0.080000 0.068148 0.000000
0.080000 0.071111 0.000000
0.080000 0.074074 0.000000
0.080000 0.077037 0.000000
0.080000 0.080000 0.000000
0.080000 0.082963 0.000000
0.080000 0.085926 0.000000
0.080000 0.088889 0.000000
0.080000 0.091852 0.000000
0.080000 0.094815 0.000000
0.080000 0.097778 0.000000
0.080000 0.100741 0.000000
0.080000 0.103704 0.000000
0.080000 0.106667 0.000000
0.080000 0.109630 0.000000
0.080000 0.112593 0.000000
0.080000 0.115556 0.000000
0.080000 0.118519 0.000000
0.080000 0.121481 0.000000
0.080000 0.124444 0.000000
0.080000 0.127407 0.000000
0.080000 0.130370 0.000000
0.080000 0.133333 0.000000
0.080000 0.136296 0.000000
0.080000 0.139259 0.000000
0.080000 0.142222 0.000000
0.080000 0.145185 0.000000
0.080000 0.148148 0.000000
0.080000 0.151111 0.000000
0.080000 0.154074 0.000000
0.080000 0.157037 0.000000
0.077037 0.160000 0.000000
0.074074 0.160000 0.000000
0.071111 0.160000 0.000000
0.068148 0.160000 0.000000
0.065185 0.160000 0.000000
0.062222 0.160000 0.000000
0.059259 0.160000 0.000000
0.056296 0.160000 0.000000
0.053333 0.160000 0.000000
0.050370 0.160000 0.000000
0.047407 0.160000 0.000000
0.044444 0.160000 0.000000
0.041481 0.160000 0.000000
0.038519 0.160000 0.000000
0.035556 0.160000 0.000000
0.032593 0.160000 0.000000
0.029630 0.160000 0.000000
0.026667 0.160000 0.000000
0.023704 0.160000 0.000000
0.020741 0.160000 0.000000
0.017778 0.160000 0.000000
0.014815 0.160000 0.000000
0.011852 0.160000 0.000000
0.008889 0.160000 0.000000
0.005926 0.160000 0.000000
0.002963 0.160000 0.000000
0.000000 0.157037 0.000000
0.000000 0.154074 0.000000
0.000000 0.151111 0.000000
0.000000 0.148148 0.000000
0.000000 0.145185 0.000000
0.000000 0.142222 0.000000
0.000000 0.139259 0.000000
0.000000 0.136296 0.000000
0.000000 0.133333 0.000000
0.000000 0.130370 0.000000
0.000000 0.127407 0.000000
0.000000 0.124444 0.000000
0.000000 0.121481 0.000000
0.000000 0.118519 0.000000
0.000000 0.115556 0.000000
0.000000 0.112593 0.000000
0.000000 0.109630 0.000000
0.000000 0.106667 0.000000
0.000000 0.103704 0.000000
0.000000 0.100741 0.000000
0.000000 0.097778 0.000000
0.000000 0.094815 0.000000
0.000000 0.091852 0.000000
0.000000 0.088889 0.000000
0.000000 0.085926 0.000000
0.000000 0.082963 0.000000
0.000000 0.080000 0.000000
0.000000 0.077037 0.000000
0.000000 0.074074 0.000000
0.000000 0.071111 0.000000
0.000000 0.068148 0.000000
0.000000 0.065185 0.000000
0.000000 0.062222 0.000000
0.000000 0.059259 0.000000
0.000000 0.056296 0.000000
0.000000 0.053333 0.000000
0.000000 0.050370 0.000000
0.000000 0.047407 0.000000
0.000000 0.044444 0.000000
0.000000 0.041481 0.000000
0.000000 0.038519 0.000000
0.000000 0.035556 0.000000
0.000000 0.032593 0.000000
0.000000 0.029630 0.000000
0.000000 0.026667 0.000000
0.000000 0.023704 0.000000
0.000000 0.020741 0.000000
0.000000 0.017778 0.000000
0.000000 0.014815 0.000000
0.000000 0.011852 0.000000
0.000000 0.008889 0.000000
0.000000 0.005926 0.000000
0.000000 0.002963 0.000000
0.035500 0.072746 0.000000
0.035000 0.072419 0.000000
0.034500 0.072093 0.000000
0.034000 0.071767 0.000000
0.033500 0.071440 0.000000
0.033000 0.071114 0.000000
0.032500 0.070788 0.000000
0.032000 0.070461 0.000000
0.031500 0.070135 0.000000
0.031000 0.069809 0.000000
0.030500 0.069482 0.000000
0.030000 0.069156 0.000000
0.029500 0.068829 0.000000
0.029000 0.068503 0.000000
0.028500 0.068177 0.000000
0.028000 0.067850 0.000000
0.027500 0.067524 0.000000
0.027000 0.067198 0.000000
0.026500 0.066871 0.000000
0.026000 0.066545 0.000000
0.025500 0.066219 0.000000
0.025000 0.065892 0.000000
0.044500 0.087216 0.000000
0.045000 0.087505 0.000000
0.045500 0.087793 0.000000
0.046000 0.088081 0.000000
0.046500 0.088370 0.000000
0.047000 0.088658 0.000000
0.047500 0.088946 0.000000
0.048000 0.089235 0.000000
0.048500 0.089523 0.000000
0.049000 0.089811 0.000000
0.049500 0.090100 0.000000
0.050000 0.090388 0.000000
0.050500 0.090677 0.000000
0.051000 0.090965 0.000000
0.051500 0.091253 0.000000
0.052000 0.091542 0.000000
0.052500 0.091830 0.000000
0.053000 0.092118 0.000000
0.053500 0.092407 0.000000
0.054000 0.092695 0.000000
0.054500 0.092983 0.000000
0.055000 0.093272 0.000000
0.043704 0.086415 0.000000
0.043407 0.085902 0.000000
0.043111 0.085388 0.000000
0.042815 0.084875 0.000000
0.042519 0.084362 0.000000
0.042222 0.083849 0.000000
0.041926 0.083336 0.000000
0.041630 0.082823 0.000000
0.041333 0.082309 0.000000
0.041037 0.081796 0.000000
0.040741 0.081283 0.000000
0.040444 0.080770 0.000000
0.040148 0.080257 0.000000
0.039852 0.079743 0.000000
0.039556 0.079230 0.000000
0.039259 0.078717 0.000000
0.038963 0.078204 0.000000
0.038667 0.077691 0.000000
0.038370 0.077177 0.000000
0.038074 0.076664 0.000000
0.037778 0.076151 0.000000
0.037481 0.075638 0.000000
0.037185 0.075125 0.000000
0.036889 0.074612 0.000000
0.036593 0.074098 0.000000
0.036296 0.073585 0.000000
0.024000 0.065235 0.000000
0.023500 0.064904 0.000000
0.023000 0.064572 0.000000
0.022500 0.064241 0.000000
0.022000 0.063910 0.000000
0.021500 0.063579 0.000000
0.021000 0.063248 0.000000
0.020500 0.062916 0.000000
0.020000 0.062585 0.000000
0.019500 0.062254 0.000000
0.019000 0.061923 0.000000
0.018500 0.061592 0.000000
0.018000 0.061261 0.000000
0.017500 0.060929 0.000000
0.017000 0.060598 0.000000
0.016500 0.060267 0.000000
0.016000 0.059936 0.000000
0.015500 0.059605 0.000000
0.015000 0.059273 0.000000
0.014500 0.058942 0.000000
0.014000 0.058611 0.000000
0.013500 0.058280 0.000000
0.013000 0.057949 0.000000
0.012500 0.057617 0.000000
0.012000 0.057286 0.000000
0.011500 0.056955 0.000000
0.011000 0.056624 0.000000
0.010500 0.056293 0.000000
0.010000 0.055961 0.000000
0.009500 0.055630 0.000000
0.009000 0.055299 0.000000
0.008500 0.054968 0.000000
0.008000 0.054637 0.000000
0.007500 0.054305 0.000000
0.007000 0.053974 0.000000
0.006500 0.053643 0.000000
0.006000 0.053312 0.000000
0.005500 0.052981 0.000000
0.005000 0.052650 0.000000
0.004500 0.052318 0.000000
0.004000 0.051987 0.000000
0.003500 0.051656 0.000000
0.003000 0.051325 0.000000
0.002500 0.050994 0.000000
0.002000 0.050662 0.000000
0.001500 0.050331 0.000000
0.055990 0.093902 0.000000
0.056479 0.094245 0.000000
0.056969 0.094587 0.000000
0.057458 0.094930 0.000000
0.057948 0.095272 0.000000
0.058437 0.095615 0.000000
0.058927 0.095957 0.000000
0.059417 0.096300 0.000000
0.059906 0.096642 0.000000
0.060396 0.096985 0.000000
0.060885 0.097327 0.000000
0.061375 0.097670 0.000000
0.061865 0.098012 0.000000
0.062354 0.098355 0.000000
0.062844 0.098697 0.000000
0.063333 0.099040 0.000000
0.063823 0.099382 0.000000
0.064312 0.099725 0.000000
0.064802 0.100067 0.000000
0.065292 0.100410 0.000000
0.065781 0.100752 0.000000
0.066271 0.101095 0.000000
0.066760 0.101437 0.000000
0.067250 0.101780 0.000000
0.067740 0.102122 0.000000
0.068229 0.102465 0.000000
0.068719 0.102807 0.000000
0.069208 0.103150 0.000000
0.069698 0.103492 0.000000
0.070187 0.103835 0.000000
0.070677 0.104177 0.000000
0.071167 0.104520 0.000000
0.071656 0.104862 0.000000
0.072146 0.105205 0.000000
0.072635 0.105547 0.000000
0.073125 0.105890 0.000000
0.073615 0.106232 0.000000
0.074104 0.106575 0.000000
0.074594 0.106917 0.000000
0.075083 0.107260 0.000000
0.075573 0.107602 0.000000
0.076062 0.107945 0.000000
0.076552 0.108287 0.000000
0.077042 0.108630 0.000000
0.077531 0.108972 0.000000
0.078021 0.109315 0.000000
0.078510 0.109658 0.000000
0.043942 0.087469 0.000000
0.035556 0.157037 0.000000
0.044420 0.002920 0.000000
0.077037 0.038519 0.000000
0.002963 0.121481 0.000000
0.077037 0.059259 0.000000
0.002963 0.109630 0.000000
0.002923 0.098139 0.000000
0.077153 0.126913 0.000000
0.002808 0.032596 0.000000
0.077140 0.071061 0.000000
0.002963 0.085926 0.000000
0.002963 0.136296 0.000000
0.077041 0.023701 0.000000
0.056296 0.157037 0.000000
0.032593 0.002963 0.000000
0.077037 0.080000 0.000000
0.002813 0.077135 0.000000
0.077037 0.142222 0.000000
0.017778 0.157037 0.000000
0.062222 0.002963 0.000000
0.076992 0.088722 0.000000
0.002945 0.020743 0.000000
0.017777 0.002962 0.000000
0.002801 0.068434 0.000000
0.002959 0.011851 0.000000
0.065186 0.157038 0.000000
0.002963 0.148148 0.000000
0.077037 0.011852 0.000000
0.076887 0.094740 0.000000
0.077092 0.115875 0.000000
0.002677 0.044265 0.000000
0.077038 0.148148 0.000000
0.002985 0.062165 0.000000
0.077037 0.047407 0.000000
0.011852 0.002963 0.000000
[...]
POINT_DATA 4677
SCALARS UX float 1
LOOKUP_TABLE default
-0.000000
0.000001
0.059333
0.017320
0.007027
0.009996
-0.026529
0.060941
-0.040267
0.079211
-0.000000
-0.000000
-0.000000
-0.000000
-0.000000
-0.000000
-0.000000
-0.000000
-0.000000
-0.000000
-0.000000
-0.000000
-0.000000
0.000000
0.000000
0.000000
0.000000
0.000000
0.000000
0.000000
0.000000
0.000000
0.000000
0.000000
0.000000
-0.000000
0.003099
0.004836
0.006109
0.007219
0.008231
0.009197
0.010127
0.011048
0.011997
0.013018
0.014014
0.015263
0.016717
0.018272
0.019793
0.022432
0.024361
0.026563
0.028829
0.030996
0.032747
0.036556
0.041163
0.047126
0.057831
0.064836
0.068761
0.072186
0.071773
0.073164
0.074225
0.073879
0.074223
0.075170
0.076431
0.077925
0.079502
0.081035
0.082588
0.083823
0.084376
0.084621
0.084727
0.080305
0.071488
0.063914
0.059595
0.058667
0.058221
0.058493
0.058467
0.059006
0.059209
0.058368
0.057325
0.055613
0.053821
0.052332
0.050762
0.048877
0.047001
0.045458
0.044247
0.042722
0.041707
0.040532
0.039082
0.037673
0.036383
0.034803
0.033483
0.031712
0.031224
0.028928
0.027854
0.026336
0.023763
0.021061
0.019066
0.016823
0.015756
0.014803
0.014116
0.013772
0.012715
0.010621
0.007609
0.003342
-0.003041
-0.009833
-0.014844
-0.018379
-0.020645
-0.021528
-0.021265
-0.021748
-0.021737
-0.022195
-0.022625
-0.022390
-0.023314
-0.025146
-0.028085
-0.030391
-0.032256
-0.034432
-0.035467
-0.036090
-0.037154
-0.037729
-0.038294
-0.038782
-0.039563
-0.040142
-0.040639
-0.040712
-0.040009
-0.039074
-0.038309
-0.037369
-0.036072
-0.033298
-0.030395
-0.028768
-0.025414
-0.020706
-0.014182
-0.011395
-0.009394
-0.007921
-0.005936
-0.003200
0.005407
0.003458
0.003433
-0.001003
-0.003563
-0.008832
-0.016000
-0.018881
-0.018622
-0.006506
-0.004444
-0.006189
-0.011182
-0.015876
-0.019674
-0.022506
-0.023839
-0.021937
-0.023403
-0.024571
-0.024323
-0.025699
0.014696
0.015957
0.026030
0.021427
0.021884
0.020277
0.021603
0.016758
0.023461
0.029286
0.016147
0.030828
0.031812
0.040807
0.046372
0.051167
0.048551
0.051566
0.050321
0.053872
0.056537
0.059029
0.015388
0.012278
0.010843
0.010353
0.010587
0.010513
0.010438
0.010359
0.009916
0.009812
0.009674
0.009349
0.009285
0.009151
0.008986
0.008736
0.008185
0.010663
0.010299
0.009878
0.009566
0.009078
0.008644
0.008468
0.008153
0.007808
-0.028073
-0.028450
-0.028890
-0.029241
-0.029467
-0.029985
-0.030291
-0.030534
-0.030854
-0.031166
-0.031583
-0.031971
-0.032392
-0.032756
-0.033100
-0.033412
-0.033706
-0.033989
-0.034257
-0.034532
-0.034819
-0.035084
-0.035354
-0.035591
-0.035774
-0.035971
-0.036157
-0.036350
-0.036552
-0.036754
-0.036957
-0.037238
-0.037446
-0.037661
-0.037883
-0.038106
-0.038327
-0.038548
-0.038760
-0.038962
-0.039152
-0.039372
-0.039565
-0.039760
-0.039935
-0.040087
0.062860
0.063940
0.064257
0.064670
0.064796
0.065091
0.065396
0.065771
0.066169
0.066601
0.067107
0.067565
0.067941
0.068294
0.068658
0.069016
0.069339
0.069500
0.069750
0.069910
0.070098
0.070304
0.070539
0.070804
0.071089
0.071382
0.071685
0.071989
0.072295
0.072605
0.072914
0.073215
0.073534
0.073844
0.074127
0.074543
0.074880
0.075224
0.075615
0.076006
0.076398
0.076798
0.077197
0.077605
0.078011
0.078412
0.078811
0.004432
0.036781
0.000060
0.015535
-0.015568
0.028254
-0.020376
-0.020330
0.081032
-0.030046
0.043974
-0.027873
0.010468
0.009705
0.045983
-0.000254
0.064596
-0.033668
0.055417
0.027620
0.000391
0.070775
-0.014655
-0.000377
-0.036402
-0.008008
0.050914
0.015655
0.005823
0.072044
0.080705
-0.038044
0.055334
-0.037658
0.021309
-0.000433
0.054184
0.019652
0.000887
-0.038498
0.073745
0.067060
0.039703
0.042002
-0.000340
0.000438
0.011629
0.030573
0.000272
0.057727
0.081242
-0.036961
0.013466
0.081572
-0.035148
-0.039357
-0.034842
0.068447
-0.022589
-0.030053
0.033703
0.051359
0.024670
-0.020336
0.075062
-0.019239
-0.026322
-0.022392
0.016981
0.033555
0.059973
0.000177
0.000007
-0.006289
0.012748
-0.000081
-0.012038
-0.000463
0.047774
0.043695
0.014600
0.007869
-0.006199
-0.000654
-0.002878
0.024393
0.000585
0.056311
-0.001035
-0.000687
0.017006
0.003051
0.018221
0.001218
0.078696
0.001350
-0.039663
-0.039964
0.077354
-0.000207
-0.000098
0.014521
0.045298
-0.020817
-0.027453
0.079653
0.042916
0.007446
0.056219
-0.000850
-0.035910
-0.010476
-0.037686
0.061420
0.073748
0.045097
-0.006781
-0.001496
-0.002741
0.052745
0.018796
0.001848
0.079979
-0.039052
0.072808
-0.037094
0.072188
-0.035710
-0.040272
0.069494
0.082314
-0.034087
0.078526
-0.032499
0.059581
-0.024922
-0.021279
0.037054
0.030402
-0.020655
-0.020224
0.026462
-0.019722
0.023212
0.075404
0.018574
-0.018012
0.038288
-0.011107
0.014034
0.035186
0.000123
0.040880
-0.019588
0.032159
0.000222
-0.000164
0.056472
0.007608
0.010637
0.044881
-0.000318
0.029520
0.000325
-0.009938
-0.000338
0.049555
0.013014
0.008795
-0.000496
0.015450
0.006890
0.052542
0.055095
0.026439
0.000471
0.055941
0.056998
0.022098
0.000725
0.016355
0.004592
-0.039861
0.079060
0.078167
-0.038174
-0.039598
0.011712
0.002935
0.076414
-0.039740
0.079066
-0.035022
0.014806
0.016524
0.014467
0.027936
-0.019419
-0.018304
0.076998
-0.035254
0.034038
0.027602
-0.034457
0.000423
0.009348
0.070798
0.014840
0.024354
0.071847
0.005542
0.017086
0.000974
0.078378
-0.039392
0.080707
0.024205
-0.018287
0.021126
-0.014847
0.040110
0.010187
0.048286
-0.000912
-0.001355
0.018186
0.051301
0.053710
-0.039514
0.079054
-0.037922
0.079154
0.057598
-0.036465
0.078494
-0.030706
-0.039082
0.069253
0.065378
-0.018830
0.075642
-0.028362
-0.032140
-0.036899
0.034005
0.038842
-0.022821
0.013054
-0.000406
-0.000245
-0.017413
0.017867
0.015896
0.000205
0.000075
-0.025016
0.067507
0.041381
0.030682
0.044091
-0.006374
0.001486
0.053259
0.052233
0.060819
0.037373
-0.013888
-0.000689
0.046920
-0.008354
-0.000812
0.007470
0.000651
-0.012311
-0.004930
-0.002022
0.054756
0.020810
0.001414
0.003158
-0.024608
-0.001799
0.001539
0.077793
-0.039309
-0.039816
0.079622
-0.039956
0.077773
0.003050
0.024423
0.014688
0.015754
-0.000765
-0.000424
0.014747
0.033873
-0.020613
0.039242
-0.000190
-0.018088
0.058903
0.062106
-0.001171
0.043454
-0.011117
-0.009019
-0.002600
-0.038917
0.077909
0.075427
0.017380
-0.033452
0.011837
0.000001
0.051797
-0.001564
0.046093
0.050359
0.011410
0.020140
0.002256
0.013736
-0.035299
0.070781
-0.025279
-0.036978
-0.018704
-0.032162
-0.020388
-0.019032
0.010433
0.029980
0.078961
0.026111
-0.018678
0.022377
0.051843
-0.017095
0.068629
0.069156
-0.023323
0.038709
-0.000538
0.032466
0.013211
0.019646
0.000316
0.029181
-0.012286
0.040770
0.011932
-0.011811
0.000533
0.026088
0.052211
0.008399
-0.007432
-0.003859
0.006535
0.051797
0.049891
-0.001143
0.016145
0.000790
0.035677
0.022741
0.017535
0.052993
0.004431
0.001174
-0.034143
0.077548
-0.036167
-0.001271
-0.039383
-0.002857
0.006055
0.076432
-0.038491
0.078801
0.002901
0.029303
0.077220
-0.039508
-0.039052
0.077121
0.078668
0.016730
0.015024
0.014751
-0.039165
-0.037122
-0.002280
0.021037
0.024626
-0.016563
-0.018883
-0.018151
0.073536
0.038260
-0.031996
-0.035084
0.029830
0.068823
0.016632
0.000613
0.008103
-0.010511
-0.036237
0.025049
-0.016560
0.001212
0.005289
0.020663
-0.000623
0.078234
0.036469
-0.014347
-0.006934
0.049834
-0.007921
-0.002221
0.003263
0.021716
0.037851
-0.037863
0.077939
0.064016
-0.034001
-0.017643
-0.025609
-0.018558
-0.000891
0.028803
0.010346
-0.017094
0.016226
0.037860
-0.000223
-0.029834
0.076660
0.053108
-0.029596
0.067666
0.056849
0.042091
0.019134
0.050835
-0.015169
0.013614
0.027780
-0.001335
0.013466
-0.010358
0.044706
-0.001781
0.030826
0.000793
0.033221
0.047470
0.050197
0.006324
0.007138
-0.005678
0.051077
-0.003151
0.000229
0.017730
0.019314
0.001472
0.001792
-0.033377
0.002477
0.015145
0.015232
-0.038873
-0.038916
0.077395
0.076679
-0.001090
-0.038847
-0.003716
0.075592
-0.036026
0.010522
0.078285
0.064958
0.070532
0.044889
-0.036449
-0.038520
0.012227
0.018939
0.078078
0.004111
0.022608
0.013118
0.026826
-0.001838
-0.000366
0.052221
-0.033146
0.050715
0.076475
0.065226
0.042591
0.014341
0.028835
-0.001750
-0.037345
0.048826
0.000802
0.007209
0.077459
0.045150
0.018388
0.021053
0.019037
-0.010592
0.009681
0.069981
0.031208
-0.003042
0.001644
-0.008901
-0.004781
0.002506
0.015612
0.077512
-0.017382
0.022388
0.014212
-0.014089
-0.001051
-0.016867
0.017556
0.026154
0.036312
0.072790
-0.016822
0.020686
-0.016016
-0.000039
-0.011423
0.049629
0.041047
-0.030333
0.067425
0.063771
-0.034304
0.040318
0.000422
0.061887
-0.020858
-0.009791
-0.030521
0.005305
0.010894
-0.006443
0.034851
0.048972
0.026509
0.006215
-0.002030
0.048584
0.000984
0.015214
0.039962
-0.003512
0.048608
0.031639
0.004312
0.018483
0.023430
0.009143
0.075900
-0.038554
0.000039
-0.035613
-0.038036
0.006973
0.015566
-0.000940
-0.000433
-0.003649
-0.003984
-0.035503
0.014452
0.011539
0.024090
-0.015770
-0.033239
-0.027415
-0.038464
0.055207
0.023451
0.077020
0.067866
0.051730
-0.038524
-0.039068
0.075222
0.016412
0.077423
-0.038904
-0.023753
0.075904
0.076084
0.020475
-0.001716
0.022366
-0.015222
-0.017339
0.068226
0.035544
0.004357
-0.030469
-0.000430
-0.013446
0.008609
-0.034184
0.076882
-0.002188
0.062537
-0.009128
0.048227
0.040396
-0.037553
-0.035675
0.025745
0.076756
0.023268
0.058521
0.017409
0.033834
0.017257
0.047316
-0.013245
-0.008026
0.030485
0.000517
-0.004074
0.047556
0.005010
-0.032985
0.001337
0.016948
0.003321
0.020211
-0.003088
0.010932
-0.015437
-0.028082
-0.022984
-0.023310
0.021086
0.024765
-0.015722
-0.030663
0.008702
0.057247
-0.000728
-0.035137
0.027258
-0.007565
0.000232
-0.001436
-0.038155
0.010984
0.045831
0.049205
0.076843
0.038978
-0.002542
-0.005520
0.046399
0.034215
0.014651
0.043872
0.001056
0.015944
0.005934
0.048288
0.011665
0.019388
0.075100
0.035166
0.027167
0.002013
-0.004058
0.074831
0.022776
-0.038056
0.067871
0.076152
0.077472
0.003823
0.023778
-0.038057
-0.038656
0.055648
-0.036722
0.003598
0.066750
0.024602
0.015863
-0.003617
0.019010
-0.003613
-0.004647
-0.015808
0.009058
0.076401
0.017777
0.019044
0.075335
-0.038799
-0.017688
-0.038712
0.075498
0.020577
-0.038324
0.066215
-0.012420
0.016838
-0.003144
0.054318
0.024890
0.021486
0.026529
-0.015910
-0.022037
0.046935
-0.035647
0.000617
0.038933
0.029224
0.016317
0.005035
0.026366
0.018795
0.001354
-0.037665
-0.038037
-0.015296
-0.009198
0.007070
-0.013278
-0.002460
0.043003
0.013269
0.034183
-0.003299
0.045443
0.047504
0.020907
0.026128
-0.004809
-0.014451
-0.015199
0.006907
-0.014367
-0.011274
-0.001079
-0.001852
0.074873
0.019513
-0.034491
-0.033436
0.057674
0.015469
-0.038603
0.033876
0.021106
-0.029602
0.023837
-0.035110
0.032199
0.015814
-0.008804
-0.025167
0.047651
-0.002604
0.010382
0.047129
-0.038196
-0.036467
-0.019185
0.066561
0.064826
-0.004769
-0.031621
0.037299
-0.007006
0.017557
0.041930
0.011394
0.009345
0.021794
0.046675
0.002632
0.004217
0.076398
0.024404
0.018301
0.001706
-0.011190
0.051500
0.068923
-0.000070
0.000313
0.076720
0.076043
0.016666
-0.038403
0.074558
0.048271
0.075868
-0.037833
0.026646
0.003544
-0.002927
-0.004777
-0.029172
0.018540
-0.005008
-0.037087
0.018939
0.074483
0.076734
-0.038450
0.004648
0.022572
0.061695
-0.014807
0.025313
-0.000806
0.075393
0.024470
0.074664
0.018581
-0.037838
0.050236
0.003217
0.011832
0.029646
-0.022089
-0.017558
-0.000890
-0.029536
0.007286
0.059091
-0.033435
0.067889
0.045985
-0.003381
0.017675
-0.008279
-0.013643
0.033664
-0.036003
-0.037213
0.075687
-0.037786
0.046075
-0.009715
-0.025713
0.001663
0.020675
0.030797
-0.014812
0.045650
-0.021074
0.004205
0.022163
0.019367
-0.005843
-0.035095
0.076129
0.065303
-0.037845
0.003027
0.005878
-0.017143
-0.034134
0.029612
0.040616
-0.006997
0.014908
0.052639
0.032387
-0.031930
-0.007740
-0.005194
0.025100
-0.001487
0.039177
0.009554
0.022555
0.000226
0.003391
0.044081
-0.006977
0.000992
0.024622
-0.013155
0.037739
0.002112
0.027636
-0.038181
-0.005985
0.010620
-0.011122
0.074752
-0.014110
-0.014309
-0.002271
0.018720
0.023195
0.019511
0.049047
-0.031011
0.013998
0.074632
0.020937
-0.015030
0.069712
0.047959
0.023252
-0.000947
-0.005617
0.009855
0.017786
-0.004727
0.014144
0.075318
0.024562
0.076007
-0.000969
0.074828
0.074462
0.028191
-0.004737
0.074308
-0.000486
-0.034368
0.003505
0.023595
-0.038080
-0.038841
-0.015297
0.074361
0.026598
-0.012721
0.001557
-0.037556
-0.037074
-0.010183
0.070024
0.027981
-0.037620
0.019669
-0.036561
0.076129
0.074161
-0.002225
-0.006390
0.022878
0.028304
0.020166
-0.012384
-0.016062
0.038537
-0.001253
0.009129
0.073871
0.068648
-0.036688
0.036810
-0.033686
0.029798
0.018783
0.026194
0.013354
0.024747
-0.036298
-0.007221
0.041396
-0.010565
-0.008499
0.015906
0.001559
-0.001799
0.004770
0.033327
-0.013519
-0.006045
0.000215
0.003346
0.023750
0.020957
0.001204
0.016127
0.073640
0.018928
-0.001905
-0.010002
0.074734
0.030294
0.044151
0.050760
0.018283
0.066582
0.062609
0.006203
-0.037449
0.036552
0.022809
-0.027523
-0.035586
-0.004550
-0.025170
-0.032603
0.073838
-0.014231
-0.037022
-0.019083
-0.000018
0.045945
-0.023254
0.002112
0.046083
-0.037351
0.019896
-0.030638
0.070084
-0.013056
0.030415
0.032551
0.013544
0.010330
0.008246
0.038064
-0.014842
-0.002751
-0.016923
-0.011217
0.046162
0.002666
0.046495
0.016550
0.013691
0.072670
-0.012870
0.072260
-0.037808
-0.037398
-0.000535
-0.004978
0.045949
0.004924
0.014230
-0.005865
-0.001344
0.075538
0.074679
0.029704
-0.037756
0.075479
-0.005927
-0.034574
0.024784
-0.014174
-0.004122
0.075191
0.031188
0.060183
0.000263
-0.035870
0.026164
-0.037562
0.073962
0.073922
0.003405
0.029151
-0.030976
-0.038561
0.022685
0.073986
-0.012753
-0.006762
0.044288
-0.003238
-0.012595
0.029756
0.024360
-0.015037
-0.025718
-0.028003
0.035915
0.072038
0.007132
0.060400
-0.036134
0.065531
0.044277
0.016611
-0.012411
-0.002650
0.073129
0.033846
-0.007180
-0.006401
-0.031067
0.031146
-0.013781
-0.036759
0.004096
0.000646
0.001398
-0.000033
0.002734
-0.007650
-0.037597
-0.013048
0.021272
0.014587
0.044617
-0.011955
0.073414
-0.004797
-0.023138
-0.032539
0.074927
-0.036992
0.021159
0.042788
-0.017592
-0.020714
0.031399
0.044424
-0.006862
-0.010736
-0.017516
0.070210
0.064559
-0.000763
0.003885
0.022385
0.010539
0.074906
0.026636
0.025004
0.017458
0.069122
0.000716
0.040024
0.028047
0.073523
0.017629
0.009154
-0.009883
-0.003131
0.006218
0.044113
0.019918
0.035195
0.019383
0.012982
0.045585
-0.037418
-0.005944
-0.013200
-0.001731
-0.037884
-0.000606
0.003366
0.032254
0.006564
0.019250
-0.005457
-0.037389
-0.037110
-0.006660
0.073216
-0.011298
-0.000898
0.025700
-0.034679
-0.002763
0.027604
0.048998
0.073527
0.042681
-0.008956
-0.037082
0.018553
0.070998
0.034184
0.018760
0.074159
0.030400
0.025585
0.012064
0.073568
-0.005377
-0.012970
0.027530
-0.002156
0.044288
-0.035933
-0.035171
0.067632
0.002482
0.031578
-0.010282
0.019266
0.024826
0.028723
0.043617
0.003759
-0.011724
0.044279
0.027690
0.070062
-0.035338
-0.000896
0.018958
0.006038
0.069585
0.042536
0.018457
0.068379
-0.002910
-0.006870
-0.012008
-0.034798
0.016833
0.072825
0.057259
-0.035593
-0.016375
0.033532
0.034633
-0.037098
0.027107
0.023309
0.008029
0.000777
-0.011972
-0.008898
0.072429
0.013064
0.016633
0.042743
-0.021067
0.074568
-0.005935
0.064294
0.062115
-0.029351
-0.025154
-0.036517
0.005125
-0.000249
0.032516
-0.037419
-0.018901
0.066717
-0.037083
0.003336
-0.012288
0.029203
0.001998
0.055942
-0.001506
0.011669
0.012582
0.028623
0.072561
0.044602
0.021001
0.034522
0.072384
0.015756
-0.031825
-0.003886
0.037632
0.009282
0.000365
-0.013932
0.018255
0.030163
-0.011213
-0.009591
0.019942
0.043729
-0.006482
0.023313
-0.020629
0.041993
-0.002278
0.041535
-0.009863
0.015135
0.022730
0.031768
0.043738
0.019487
0.015529
0.074230
0.002622
-0.001602
-0.002333
-0.006770
-0.002451
-0.006109
-0.037243
0.073642
0.073241
-0.004723
0.005656
0.011156
-0.012871
0.026826
-0.032097
0.023533
-0.006939
0.042925
0.073107
-0.036264
-0.001847
-0.005778
-0.037254
0.062851
0.029452
0.030559
0.074391
-0.003288
-0.030161
0.017307
-0.036984
-0.033089
-0.036842
0.034550
-0.038221
0.020220
0.030491
0.031008
-0.003895
0.018761
-0.010374
-0.015230
0.025654
-0.011114
0.002773
-0.028040
0.065464
-0.028230
0.058522
-0.001519
-0.031841
0.064843
0.033653
0.067641
0.019960
-0.033291
-0.010708
0.028888
0.072091
-0.006025
0.073991
0.001033
0.042072
0.073508
0.002395
0.020797
-0.035873
0.015537
0.017885
-0.036530
0.034884
-0.002099
-0.003582
0.021385
0.015172
0.012479
0.040793
-0.036708
0.032667
-0.019027
0.025683
0.003789
-0.000963
0.053606
0.071235
0.027162
-0.033945
-0.004500
0.021828
-0.017552
-0.003593
0.070823
0.047415
0.015407
0.025067
0.038995
0.017425
0.035815
0.007075
0.009182
-0.013039
-0.014137
-0.015346
0.069206
0.030240
0.033194
-0.002464
-0.010634
-0.011991
0.017569
0.009604
-0.009455
-0.007202
0.024842
0.005075
0.042710
-0.036554
-0.036855
-0.006964
0.020024
0.041899
-0.031099
-0.030342
0.040789
0.015823
-0.008123
-0.000220
-0.008787
-0.011338
-0.006595
0.017220
0.073199
0.023619
0.002331
0.032304
-0.005334
0.030906
0.001943
0.039431
0.027618
0.021509
0.004991
-0.002643
0.072714
-0.007026
0.008300
-0.005296
0.014844
0.071894
0.070474
0.030932
-0.006703
0.063473
0.073845
-0.036941
0.074135
-0.002366
0.033128
-0.037175
-0.021471
0.013752
0.020223
0.032536
0.024738
0.073041
0.035110
0.064039
0.004512
-0.035257
-0.005349
-0.036776
-0.006153
-0.036927
0.043133
-0.022897
-0.036035
-0.036743
0.053716
0.030480
0.013825
-0.001752
0.017655
0.046504
-0.014466
0.026214
-0.024040
0.040129
0.069029
0.028286
0.034650
-0.030458
0.005659
0.073241
0.064211
0.028937
0.069007
-0.006518
-0.002368
-0.021277
-0.006612
0.016186
-0.010490
0.002910
0.070203
-0.011455
-0.009079
-0.002601
-0.003570
0.021974
-0.034793
0.013615
-0.026555
-0.035599
0.040207
0.021313
0.024030
0.004218
0.032129
0.071624
0.031441
0.038917
0.041131
-0.004412
-0.010939
0.066956
-0.016746
-0.031115
0.072342
-0.009855
-0.002083
-0.004528
0.013672
0.023617
0.025135
-0.032469
0.027344
0.040648
0.001593
0.019735
-0.036600
0.018927
0.016837
0.020053
0.040820
-0.013069
-0.011484
0.065952
-0.005655
0.058504
0.061274
0.008465
0.008186
0.025817
0.037679
0.054625
0.010214
0.000532
0.014953
0.016008
0.004731
-0.003097
-0.008895
-0.009171
0.072820
0.041199
0.021178
-0.024839
-0.000984
0.040367
-0.008034
0.034119
0.041999
0.018866
0.072552
0.031446
-0.004498
0.022470
0.001197
0.037358
0.036143
-0.007196
0.004513
-0.036836
-0.036476
-0.029477
-0.003964
0.002378
0.007592
0.035998
0.012288
-0.003177
0.070877
-0.007319
0.054858
0.073602
0.029594
0.017177
-0.015829
-0.006210
-0.035326
-0.033976
0.031810
0.034432
-0.036451
0.072994
0.072342
0.073731
0.072752
-0.036056
0.005589
-0.036341
0.011778
0.036104
-0.036628
-0.036814
0.068323
0.013258
-0.011553
0.051369
0.016474
-0.028030
0.025982
0.036595
-0.027101
0.059911
0.028036
0.072534
-0.002605
0.004337
0.020020
-0.032628
0.067790
0.068920
0.038934
0.071326
0.072716
-0.009738
-0.006579
-0.023143
0.006749
0.051383
0.007479
-0.001621
0.072111
0.000474
0.002126
-0.036321
0.022095
0.030022
-0.033812
-0.005570
-0.005129
-0.005730
0.020151
0.013057
0.010892
0.016613
-0.035749
0.017645
0.022274
0.063346
0.039443
0.035776
-0.031153
0.062511
-0.018304
0.069576
-0.036138
-0.013304
0.017629
0.044652
0.069655
0.006602
0.018741
0.056448
-0.010284
0.072024
-0.012206
0.070793
-0.000337
0.072991
0.023494
0.066420
0.025654
0.016697
-0.018949
0.037347
-0.008507
0.021046
-0.007926
-0.006687
0.004137
-0.009798
-0.036615
0.039310
0.040714
-0.009179
-0.003812
0.031518
0.015904
0.071803
0.033053
0.026850
0.020207
0.014685
0.070672
0.042482
0.028337
-0.007321
-0.003826
0.012817
0.000367
0.034971
-0.029639
0.026787
0.003954
-0.034244
0.023082
0.065406
0.003770
0.024911
-0.007502
-0.004385
0.073031
-0.010539
-0.036636
0.007311
0.036264
0.030710
0.011105
-0.008044
0.072377
-0.006930
-0.007237
-0.036042
-0.005423
-0.015449
0.003063
0.041496
-0.035196
0.033236
-0.036168
-0.036243
0.073262
0.072417
0.039131
-0.026508
-0.002394
-0.003673
0.039127
0.018520
0.038906
-0.011342
0.050236
0.040521
-0.036388
-0.008614
0.016253
-0.002865
-0.022626
0.056273
-0.008110
-0.029775
0.057866
-0.000239
0.063370
-0.033162
0.034071
0.041038
0.065913
0.072328
0.020827
0.019047
-0.005915
-0.036034
0.068451
-0.004693
0.037425
0.021284
0.015520
-0.036200
0.032626