# vtk DataFile Version 2.0
Test
ASCII
DATASET POLYDATA
POINTS 4677 float
0.000000 0.000000 0.000000
0.080000 0.000000 0.000000
0.080000 0.160000 0.000000
0.000000 0.160000 0.000000
0.036000 0.073072 0.000000
0.044000 0.086928 0.000000
0.024500 0.065566 0.000000
0.055500 0.093560 0.000000
0.001000 0.050000 0.000000
0.079000 0.110000 0.000000
0.002963 0.000000 0.000000
0.005926 0.000000 0.000000
0.008889 0.000000 0.000000
0.011852 0.000000 0.000000
0.014815 0.000000 0.000000
0.017778 0.000000 0.000000
0.020741 0.000000 0.000000
0.023704 0.000000 0.000000
0.026667 0.000000 0.000000
0.029630 0.000000 0.000000
0.032593 0.000000 0.000000
0.035556 0.000000 0.000000
0.038519 0.000000 0.000000
0.041481 0.000000 0.000000
0.044444 0.000000 0.000000
0.047407 0.000000 0.000000
0.050370 0.000000 0.000000
0.053333 0.000000 0.000000
0.056296 0.000000 0.000000
0.059259 0.000000 0.000000
0.062222 0.000000 0.000000
0.065185 0.000000 0.000000
0.068148 0.000000 0.000000
0.071111 0.000000 0.000000
0.074074 0.000000 0.000000
0.077037 0.000000 0.000000
0.080000 0.002963 0.000000
0.080000 0.005926 0.000000
0.080000 0.008889 0.000000
0.080000 0.011852 0.000000
0.080000 0.014815 0.000000
0.080000 0.017778 0.000000
0.080000 0.020741 0.000000
0.080000 0.023704 0.000000
0.080000 0.026667 0.000000
0.080000 0.029630 0.000000
0.080000 0.032593 0.000000
0.080000 0.035556 0.000000
0.080000 0.038519 0.000000
0.080000 0.041481 0.000000
0.080000 0.044444 0.000000
0.080000 0.047407 0.000000
0.080000 0.050370 0.000000
0.080000 0.053333 0.000000
0.080000 0.056296 0.000000
0.080000 0.059259 0.000000
0.080000 0.062222 0.000000
0.080000 0.065185 0.000000
0.080000 0.068148 0.000000
0.080000 0.071111 0.000000
0.080000 0.074074 0.000000
0.080000 0.077037 0.000000
0.080000 0.080000 0.000000
0.080000 0.082963 0.000000
0.080000 0.085926 0.000000
0.080000 0.088889 0.000000
0.080000 0.091852 0.000000
0.080000 0.094815 0.000000
0.080000 0.097778 0.000000
0.080000 0.100741 0.000000
0.080000 0.103704 0.000000
0.080000 0.106667 0.000000
0.080000 0.109630 0.000000
0.080000 0.112593 0.000000
0.080000 0.115556 0.000000
0.080000 0.118519 0.000000
0.080000 0.121481 0.000000
0.080000 0.124444 0.000000
0.080000 0.127407 0.000000
0.080000 0.130370 0.000000
0.080000 0.133333 0.000000
0.080000 0.136296 0.000000
0.080000 0.139259 0.000000
0.080000 0.142222 0.000000
0.080000 0.145185 0.000000
0.080000 0.148148 0.000000
0.080000 0.151111 0.000000
0.080000 0.154074 0.000000
0.080000 0.157037 0.000000
0.077037 0.160000 0.000000
0.074074 0.160000 0.000000
0.071111 0.160000 0.000000
0.068148 0.160000 0.000000
0.065185 0.160000 0.000000
0.062222 0.160000 0.000000
0.059259 0.160000 0.000000
0.056296 0.160000 0.000000
0.053333 0.160000 0.000000
0.050370 0.160000 0.000000
0.047407 0.160000 0.000000
0.044444 0.160000 0.000000
0.041481 0.160000 0.000000
0.038519 0.160000 0.000000
0.035556 0.160000 0.000000
0.032593 0.160000 0.000000
0.029630 0.160000 0.000000
0.026667 0.160000 0.000000
0.023704 0.160000 0.000000
0.020741 0.160000 0.000000
0.017778 0.160000 0.000000
0.014815 0.160000 0.000000
0.011852 0.160000 0.000000
0.008889 0.160000 0.000000
0.005926 0.160000 0.000000
0.002963 0.160000 0.000000
0.000000 0.157037 0.000000
0.000000 0.154074 0.000000
0.000000 0.151111 0.000000
0.000000 0.148148 0.000000
0.000000 0.145185 0.000000
0.000000 0.142222 0.000000
0.000000 0.139259 0.000000
0.000000 0.136296 0.000000
0.000000 0.133333 0.000000
0.000000 0.130370 0.000000
0.000000 0.127407 0.000000
0.000000 0.124444 0.000000
0.000000 0.121481 0.000000
0.000000 0.118519 0.000000
0.000000 0.115556 0.000000
0.000000 0.112593 0.000000
0.000000 0.109630 0.000000
0.000000 0.106667 0.000000
0.000000 0.103704 0.000000
0.000000 0.100741 0.000000
0.000000 0.097778 0.000000
0.000000 0.094815 0.000000
0.000000 0.091852 0.000000
0.000000 0.088889 0.000000
0.000000 0.085926 0.000000
0.000000 0.082963 0.000000
0.000000 0.080000 0.000000
0.000000 0.077037 0.000000
0.000000 0.074074 0.000000
0.000000 0.071111 0.000000
0.000000 0.068148 0.000000
0.000000 0.065185 0.000000
0.000000 0.062222 0.000000
0.000000 0.059259 0.000000
0.000000 0.056296 0.000000
0.000000 0.053333 0.000000
0.000000 0.050370 0.000000
0.000000 0.047407 0.000000
0.000000 0.044444 0.000000
0.000000 0.041481 0.000000
0.000000 0.038519 0.000000
0.000000 0.035556 0.000000
0.000000 0.032593 0.000000
0.000000 0.029630 0.000000
0.000000 0.026667 0.000000
0.000000 0.023704 0.000000
0.000000 0.020741 0.000000
0.000000 0.017778 0.000000
0.000000 0.014815 0.000000
0.000000 0.011852 0.000000
0.000000 0.008889 0.000000
0.000000 0.005926 0.000000
0.000000 0.002963 0.000000
0.035500 0.072746 0.000000
0.035000 0.072419 0.000000
0.034500 0.072093 0.000000
0.034000 0.071767 0.000000
0.033500 0.071440 0.000000
0.033000 0.071114 0.000000
0.032500 0.070788 0.000000
0.032000 0.070461 0.000000
0.031500 0.070135 0.000000
0.031000 0.069809 0.000000
0.030500 0.069482 0.000000
0.030000 0.069156 0.000000
0.029500 0.068829 0.000000
0.029000 0.068503 0.000000
0.028500 0.068177 0.000000
0.028000 0.067850 0.000000
0.027500 0.067524 0.000000
0.027000 0.067198 0.000000
0.026500 0.066871 0.000000
0.026000 0.066545 0.000000
0.025500 0.066219 0.000000
0.025000 0.065892 0.000000
0.044500 0.087216 0.000000
0.045000 0.087505 0.000000
0.045500 0.087793 0.000000
0.046000 0.088081 0.000000
0.046500 0.088370 0.000000
0.047000 0.088658 0.000000
0.047500 0.088946 0.000000
0.048000 0.089235 0.000000
0.048500 0.089523 0.000000
0.049000 0.089811 0.000000
0.049500 0.090100 0.000000
0.050000 0.090388 0.000000
0.050500 0.090677 0.000000
0.051000 0.090965 0.000000
0.051500 0.091253 0.000000
0.052000 0.091542 0.000000
0.052500 0.091830 0.000000
0.053000 0.092118 0.000000
0.053500 0.092407 0.000000
0.054000 0.092695 0.000000
0.054500 0.092983 0.000000
0.055000 0.093272 0.000000
0.043704 0.086415 0.000000
0.043407 0.085902 0.000000
0.043111 0.085388 0.000000
0.042815 0.084875 0.000000
0.042519 0.084362 0.000000
0.042222 0.083849 0.000000
0.041926 0.083336 0.000000
0.041630 0.082823 0.000000
0.041333 0.082309 0.000000
0.041037 0.081796 0.000000
0.040741 0.081283 0.000000
0.040444 0.080770 0.000000
0.040148 0.080257 0.000000
0.039852 0.079743 0.000000
0.039556 0.079230 0.000000
0.039259 0.078717 0.000000
0.038963 0.078204 0.000000
0.038667 0.077691 0.000000
0.038370 0.077177 0.000000
0.038074 0.076664 0.000000
0.037778 0.076151 0.000000
0.037481 0.075638 0.000000
0.037185 0.075125 0.000000
0.036889 0.074612 0.000000
0.036593 0.074098 0.000000
0.036296 0.073585 0.000000
0.024000 0.065235 0.000000
0.023500 0.064904 0.000000
0.023000 0.064572 0.000000
0.022500 0.064241 0.000000
0.022000 0.063910 0.000000
0.021500 0.063579 0.000000
0.021000 0.063248 0.000000
0.020500 0.062916 0.000000
0.020000 0.062585 0.000000
0.019500 0.062254 0.000000
0.019000 0.061923 0.000000
0.018500 0.061592 0.000000
0.018000 0.061261 0.000000
0.017500 0.060929 0.000000
0.017000 0.060598 0.000000
0.016500 0.060267 0.000000
0.016000 0.059936 0.000000
0.015500 0.059605 0.000000
0.015000 0.059273 0.000000
0.014500 0.058942 0.000000
0.014000 0.058611 0.000000
0.013500 0.058280 0.000000
0.013000 0.057949 0.000000
0.012500 0.057617 0.000000
0.012000 0.057286 0.000000
0.011500 0.056955 0.000000
0.011000 0.056624 0.000000
0.010500 0.056293 0.000000
0.010000 0.055961 0.000000
0.009500 0.055630 0.000000
0.009000 0.055299 0.000000
0.008500 0.054968 0.000000
0.008000 0.054637 0.000000
0.007500 0.054305 0.000000
0.007000 0.053974 0.000000
0.006500 0.053643 0.000000
0.006000 0.053312 0.000000
0.005500 0.052981 0.000000
0.005000 0.052650 0.000000
0.004500 0.052318 0.000000
0.004000 0.051987 0.000000
0.003500 0.051656 0.000000
0.003000 0.051325 0.000000
0.002500 0.050994 0.000000
0.002000 0.050662 0.000000
0.001500 0.050331 0.000000
0.055990 0.093902 0.000000
0.056479 0.094245 0.000000
0.056969 0.094587 0.000000
0.057458 0.094930 0.000000
0.057948 0.095272 0.000000
0.058437 0.095615 0.000000
0.058927 0.095957 0.000000
0.059417 0.096300 0.000000
0.059906 0.096642 0.000000
0.060396 0.096985 0.000000
0.060885 0.097327 0.000000
0.061375 0.097670 0.000000
0.061865 0.098012 0.000000
0.062354 0.098355 0.000000
0.062844 0.098697 0.000000
0.063333 0.099040 0.000000
0.063823 0.099382 0.000000
0.064312 0.099725 0.000000
0.064802 0.100067 0.000000
0.065292 0.100410 0.000000
0.065781 0.100752 0.000000
0.066271 0.101095 0.000000
0.066760 0.101437 0.000000
0.067250 0.101780 0.000000
0.067740 0.102122 0.000000
0.068229 0.102465 0.000000
0.068719 0.102807 0.000000
0.069208 0.103150 0.000000
0.069698 0.103492 0.000000
0.070187 0.103835 0.000000
0.070677 0.104177 0.000000
0.071167 0.104520 0.000000
0.071656 0.104862 0.000000
0.072146 0.105205 0.000000
0.072635 0.105547 0.000000
0.073125 0.105890 0.000000
0.073615 0.106232 0.000000
0.074104 0.106575 0.000000
0.074594 0.106917 0.000000
0.075083 0.107260 0.000000
0.075573 0.107602 0.000000
0.076062 0.107945 0.000000
0.076552 0.108287 0.000000
0.077042 0.108630 0.000000
0.077531 0.108972 0.000000
0.078021 0.109315 0.000000
0.078510 0.109658 0.000000
0.043942 0.087469 0.000000
0.035556 0.157037 0.000000
0.044420 0.002920 0.000000
0.077037 0.038519 0.000000
0.002963 0.121481 0.000000
0.077037 0.059259 0.000000
0.002963 0.109630 0.000000
0.002923 0.098139 0.000000
0.077153 0.126913 0.000000
0.002808 0.032596 0.000000
0.077140 0.071061 0.000000
0.002963 0.085926 0.000000
0.002963 0.136296 0.000000
0.077041 0.023701 0.000000
0.056296 0.157037 0.000000
0.032593 0.002963 0.000000
0.077037 0.080000 0.000000
0.002813 0.077135 0.000000
0.077037 0.142222 0.000000
0.017778 0.157037 0.000000
0.062222 0.002963 0.000000
0.076992 0.088722 0.000000
0.002945 0.020743 0.000000
0.017777 0.002962 0.000000
0.002801 0.068434 0.000000
0.002959 0.011851 0.000000
0.065186 0.157038 0.000000
0.002963 0.148148 0.000000
0.077037 0.011852 0.000000
0.076887 0.094740 0.000000
0.077092 0.115875 0.000000
0.002677 0.044265 0.000000
0.077038 0.148148 0.000000
0.002985 0.062165 0.000000
0.077037 0.047407 0.000000
0.011852 0.002963 0.000000
[...]
POINT_DATA 4677
SCALARS UX float 1
LOOKUP_TABLE default
-0.000001
0.000001
-0.014680
-0.149040
-0.044854
-0.070395
-0.073288
-0.046181
-0.074899
-0.028935
-0.000000
-0.000000
-0.000000
-0.000000
-0.000000
-0.000000
-0.000000
-0.000000
-0.000000
-0.000000
-0.000000
-0.000000
-0.000000
0.000000
0.000000
0.000000
0.000000
0.000000
0.000000
0.000000
0.000000
0.000000
0.000000
0.000000
0.000000
-0.000000
0.005253
0.008308
0.010652
0.012593
0.014261
0.015709
0.016969
0.018033
0.018950
0.019729
0.020532
0.021074
0.021430
0.021645
0.021163
0.020458
0.019303
0.017760
0.015963
0.014003
0.011957
0.009719
0.006991
0.003957
0.000818
-0.001942
-0.005206
-0.008847
-0.013635
-0.017902
-0.022219
-0.025589
-0.027925
-0.029576
-0.030371
-0.029404
-0.028045
-0.029019
-0.031418
-0.035502
-0.041419
-0.048259
-0.050593
-0.047080
-0.053609
-0.058078
-0.059223
-0.054792
-0.051534
-0.046099
-0.040531
-0.033813
-0.024586
-0.028011
-0.037312
-0.043740
-0.053660
-0.069349
-0.078461
-0.084012
-0.089850
-0.094649
-0.098446
-0.102786
-0.107697
-0.111185
-0.114494
-0.117630
-0.120588
-0.123929
-0.126640
-0.129344
-0.130745
-0.132872
-0.136598
-0.139969
-0.142641
-0.144952
-0.147100
-0.149112
-0.149351
-0.149113
-0.149035
-0.148041
-0.146625
-0.144954
-0.143112
-0.141187
-0.139174
-0.137152
-0.134907
-0.132528
-0.130029
-0.127298
-0.124396
-0.121427
-0.118489
-0.115643
-0.112981
-0.110648
-0.108602
-0.107420
-0.107367
-0.106229
-0.105195
-0.103448
-0.100372
-0.096976
-0.093657
-0.090872
-0.087926
-0.085406
-0.083063
-0.081091
-0.078744
-0.076170
-0.074793
-0.075466
-0.075378
-0.069166
-0.065478
-0.063361
-0.060338
-0.057789
-0.054656
-0.051336
-0.048478
-0.045734
-0.044126
-0.041879
-0.040548
-0.017685
-0.045911
-0.046539
-0.047781
-0.047695
-0.046404
-0.050981
-0.056993
-0.055630
-0.063414
-0.063756
-0.059882
-0.062507
-0.064779
-0.066231
-0.068320
-0.067760
-0.067973
-0.068991
-0.069385
-0.070581
-0.071476
-0.071915
-0.067093
-0.064212
-0.062325
-0.061016
-0.061236
-0.067793
-0.070334
-0.057060
-0.059707
-0.058873
-0.047216
-0.056959
-0.055308
-0.056000
-0.051411
-0.050136
-0.060381
-0.047778
-0.046696
-0.051242
-0.051398
-0.049738
-0.072649
-0.070915
-0.070759
-0.070026
-0.069136
-0.068450
-0.067640
-0.066854
-0.065851
-0.064751
-0.063640
-0.062763
-0.061289
-0.060118
-0.059345
-0.058161
-0.056997
-0.055767
-0.054423
-0.052886
-0.051482
-0.050299
-0.048917
-0.047719
-0.046067
-0.044766
-0.071610
-0.071838
-0.070562
-0.069823
-0.069374
-0.069052
-0.068837
-0.068676
-0.068563
-0.068465
-0.068411
-0.068376
-0.068357
-0.068344
-0.068349
-0.068349
-0.068412
-0.068463
-0.068694
-0.068878
-0.068951
-0.069049
-0.069325
-0.069667
-0.070026
-0.070359
-0.070692
-0.071022
-0.071350
-0.071681
-0.072005
-0.072316
-0.072604
-0.072885
-0.073170
-0.073416
-0.073575
-0.073885
-0.073963
-0.074256
-0.074540
-0.074591
-0.074691
-0.074750
-0.074805
-0.074855
-0.047162
-0.047090
-0.047020
-0.046933
-0.046905
-0.047020
-0.047140
-0.047190
-0.047296
-0.047243
-0.047092
-0.047253
-0.046898
-0.046620
-0.046300
-0.046132
-0.045851
-0.045464
-0.044919
-0.044443
-0.043965
-0.043537
-0.043250
-0.042865
-0.042435
-0.041955
-0.041421
-0.040977
-0.040590
-0.040174
-0.039719
-0.039223
-0.038706
-0.038181
-0.037611
-0.037008
-0.036456
-0.035757
-0.035031
-0.034310
-0.033641
-0.032929
-0.032284
-0.031534
-0.030813
-0.030102
-0.029494
-0.070420
-0.119006
-0.000170
0.020376
-0.130502
0.012456
-0.119500
-0.108714
-0.058579
-0.059146
0.001944
-0.103340
-0.141302
0.016821
-0.092434
-0.001142
-0.007463
-0.098565
-0.060982
-0.135540
0.001425
-0.020464
-0.049346
-0.001417
-0.089413
-0.039522
-0.072991
-0.147365
0.011143
-0.028870
-0.034783
-0.070077
-0.054049
-0.083439
0.019225
-0.003253
-0.049735
-0.145232
0.002483
-0.080641
-0.032432
-0.061106
-0.112280
-0.104804
-0.001039
-0.137272
0.018627
-0.131625
0.001000
-0.038025
-0.040366
-0.068947
-0.067026
-0.046634
-0.063586
-0.080095
-0.094926
-0.011481
-0.104898
-0.102024
0.007942
-0.001655
0.016444
-0.113794
-0.033382
-0.125402
-0.056911
-0.055096
0.020300
-0.125980
-0.065387
0.000471
-0.000558
-0.135128
0.019350
-0.000900
-0.045824
-0.001080
-0.085534
-0.100583
-0.144904
0.014388
-0.032751
-0.004152
-0.023994
-0.140867
0.001863
-0.048581
-0.006307
-0.007965
-0.147335
0.006493
-0.147199
0.003206
-0.030173
-0.073278
-0.073745
-0.076132
-0.031127
-0.072565
-0.000760
0.019109
-0.004238
-0.054788
-0.099692
-0.047550
-0.102903
-0.135259
-0.070370
-0.002078
-0.064688
-0.043050
-0.080168
-0.010883
-0.036015
-0.094573
-0.027979
-0.007944
-0.021667
-0.061290
-0.145419
0.005103
-0.030910
-0.072231
-0.030571
-0.086236
-0.024815
-0.092159
-0.075770
-0.015496
-0.053123
-0.061440
-0.029595
-0.101422
-0.004057
-0.104458
-0.106798
0.005430
0.010391
-0.111265
-0.116667
0.014625
-0.122577
0.018106
-0.060274
0.019953
-0.128130
-0.115651
-0.132932
0.019947
-0.122155
0.000154
-0.109453
-0.052702
-0.129093
0.000746
-0.001063
-0.064987
-0.139321
0.017788
-0.096659
-0.001056
-0.132894
0.001212
-0.042537
-0.001219
-0.079223
-0.143202
0.015712
-0.002157
-0.146337
0.012888
-0.062051
-0.057174
-0.137682
0.001632
-0.043988
-0.043855
-0.143080
0.002146
-0.147406
0.009081
-0.074203
-0.029524
-0.030824
-0.077499
-0.074026
-0.067522
-0.072809
-0.032062
-0.078246
-0.043410
-0.062796
-0.063507
-0.065587
-0.063110
0.009407
-0.103950
-0.114906
-0.047946
-0.060926
-0.123273
-0.133695
-0.090571
0.001499
0.016516
-0.026724
-0.141384
-0.138004
-0.032991
0.011479
-0.144462
0.003260
-0.031074
-0.072942
-0.060800
0.013299
-0.120762
0.016877
-0.126205
-0.110581
-0.137354
-0.083173
-0.002652
-0.005216
-0.145745
-0.065515
-0.058310
-0.072910
-0.030212
-0.068885
-0.033534
-0.007944
-0.084064
-0.054057
-0.098314
-0.076723
-0.019472
-0.013690
-0.109223
-0.033911
-0.057312
-0.058611
-0.066064
0.003462
-0.000787
-0.101148
0.018803
-0.001774
-0.001308
-0.053298
0.018666
0.018989
0.000449
-0.000168
-0.100333
-0.068073
-0.106317
-0.130672
-0.098817
-0.130841
-0.132953
-0.069670
-0.062815
-0.068056
-0.117073
-0.050947
-0.002014
-0.088474
-0.038548
-0.002171
0.014323
0.002392
-0.046489
-0.019706
-0.013018
-0.051753
-0.143450
0.004262
0.007580
-0.055599
-0.073865
-0.070470
-0.031735
-0.073459
-0.075391
-0.029097
-0.074279
-0.031003
-0.073783
-0.065524
-0.067147
-0.062018
-0.072252
-0.001533
0.017778
-0.002287
-0.098508
-0.110583
-0.128950
-0.051568
-0.074509
-0.016656
-0.002669
-0.100148
-0.047263
-0.036384
-0.007974
-0.071948
-0.032345
-0.063470
-0.061228
-0.093031
0.018312
-0.000033
-0.074069
-0.002960
-0.090810
-0.067610
-0.133288
-0.143517
0.006393
-0.066038
-0.087907
-0.029953
-0.054241
-0.082174
-0.112543
-0.095857
-0.102278
-0.105748
0.017502
0.007279
-0.039582
0.011392
-0.118111
0.015417
-0.010711
-0.123747
-0.066394
-0.023114
-0.097685
-0.114567
-0.001887
-0.126693
-0.139484
0.017855
0.000996
-0.132937
-0.049584
-0.107563
0.017518
-0.128430
0.001963
-0.135760
-0.066263
0.015506
-0.030266
-0.018934
0.013002
-0.062330
-0.076247
-0.003543
-0.143051
0.002810
-0.120101
-0.141174
-0.145417
-0.055958
0.009704
0.003723
-0.059341
-0.051554
-0.062773
-0.073851
-0.075801
-0.074007
-0.069828
-0.032957
-0.070591
-0.032569
-0.072407
-0.064414
-0.032513
-0.075206
-0.071724
-0.032050
-0.031568
-0.063394
-0.060034
-0.060645
-0.073952
-0.065777
-0.073989
-0.057826
0.009504
-0.106483
-0.096032
-0.050154
-0.054081
-0.111327
-0.091823
-0.059640
-0.130956
-0.027650
-0.139504
0.002283
0.015138
-0.045171
-0.080786
-0.136870
-0.116286
0.004178
0.011611
0.014128
-0.002084
-0.033984
-0.117857
-0.121936
-0.126891
-0.070823
-0.027536
-0.005756
0.008357
-0.141263
-0.005768
-0.067989
-0.042055
-0.073963
-0.088371
-0.101880
-0.096434
-0.099891
-0.002536
0.004367
0.016850
-0.110529
0.017351
-0.114184
-0.000862
-0.056416
-0.058270
-0.073925
-0.095622
-0.021366
-0.013968
-0.103855
0.015710
-0.073658
-0.051783
-0.135504
-0.132184
-0.002815
0.017750
-0.042187
-0.095732
-0.003502
0.001028
0.002933
-0.123972
-0.085772
-0.068704
-0.131121
0.014125
-0.026367
-0.065521
-0.010305
0.000816
-0.141077
-0.143192
0.004803
0.005514
-0.055794
-0.072077
-0.062515
-0.059097
-0.072591
-0.073633
-0.032780
-0.033527
-0.073822
-0.074703
-0.074825
-0.034695
-0.085559
-0.069587
-0.036646
-0.019563
-0.069038
-0.007541
-0.062934
-0.070432
-0.067533
-0.060443
-0.033004
-0.071367
-0.067466
0.016224
0.001860
-0.124435
-0.000829
-0.017525
-0.055723
-0.078622
-0.049422
-0.023718
-0.101519
-0.131358
-0.130374
-0.003475
-0.066162
-0.075953
0.003084
0.014073
-0.034427
-0.093356
-0.137533
-0.141268
-0.057940
-0.045015
0.015634
-0.064206
-0.005622
-0.005458
0.005465
-0.035044
-0.014584
0.007239
-0.062815
-0.038681
-0.097013
0.013185
-0.064485
-0.046649
-0.002582
-0.104373
0.016760
0.007217
-0.114994
-0.058655
-0.114016
-0.062402
-0.119416
0.000345
-0.124980
-0.078356
-0.105722
-0.092983
-0.024830
-0.069096
-0.086181
-0.010966
0.001560
-0.021499
-0.094961
-0.041837
-0.053849
-0.126853
0.016076
-0.022109
-0.120729
-0.069389
-0.134124
0.012944
-0.003963
-0.078426
0.003550
-0.137623
-0.108532
-0.009718
-0.073638
-0.127015
0.010096
-0.142492
-0.139361
0.016058
-0.035082
-0.073233
-0.073560
-0.082271
-0.068575
-0.071732
-0.057703
-0.073405
-0.072218
-0.075147
-0.075071
-0.060103
-0.064345
-0.067884
-0.068617
-0.098772
-0.089651
-0.095729
-0.074381
-0.077351
0.011364
-0.033239
-0.016877
-0.006068
-0.070896
-0.074738
-0.035413
-0.060265
-0.033624
-0.073081
-0.051978
-0.033958
-0.034430
-0.054796
-0.074441
-0.055420
-0.111613
-0.094105
-0.060104
-0.113642
-0.122300
-0.090146
-0.000384
-0.045272
0.014039
-0.057033
-0.045635
-0.004237
-0.024963
-0.038985
-0.081514
-0.105168
-0.067004
-0.079188
-0.133096
-0.034993
0.007576
-0.068434
0.014479
-0.120268
-0.060221
-0.080840
-0.117550
-0.028968
-0.126541
0.002192
-0.010581
-0.079719
0.011467
-0.086848
0.004688
-0.135742
0.008832
-0.140511
-0.074378
-0.070122
-0.103193
-0.093258
-0.094323
-0.049825
0.011472
0.004779
-0.095385
-0.052486
0.015120
-0.019508
-0.001869
-0.084578
-0.001650
-0.121763
0.001291
-0.003147
-0.074260
-0.129201
-0.014898
-0.077472
-0.034178
-0.108778
-0.004159
-0.019189
-0.088075
-0.009244
0.016186
-0.097239
0.003876
-0.133579
0.012681
-0.072050
0.016020
-0.138915
-0.036340
-0.117871
-0.131704
0.006288
-0.015075
-0.035833
-0.139065
-0.072626
-0.028679
-0.035246
-0.036275
-0.070308
-0.065873
-0.069229
-0.072365
-0.075364
-0.063236
-0.073257
-0.026375
-0.055772
-0.061229
-0.075199
-0.059983
-0.075223
-0.075999
-0.101401
-0.070875
-0.034525
-0.060454
-0.060450
-0.034842
-0.075553
-0.047717
-0.073329
-0.035828
-0.056224
-0.072924
-0.064177
-0.046287
-0.057457
-0.075648
-0.068984
-0.053178
0.005672
-0.005963
-0.092480
-0.048641
-0.020223
-0.060343
0.002855
-0.105679
-0.124435
-0.129431
0.011402
-0.054511
-0.056740
0.004823
-0.068306
-0.071853
-0.104919
-0.039203
0.013170
-0.043474
-0.119534
-0.098267
0.014381
-0.013945
-0.006544
-0.088880
-0.081684
-0.136492
-0.129157
-0.075919
-0.099333
-0.108565
-0.072041
-0.115617
-0.043063
-0.002201
-0.003725
-0.035114
0.012509
-0.082705
-0.084677
-0.022756
-0.062418
-0.076110
-0.116745
-0.055366
-0.052114
-0.000002
-0.080478
-0.123064
0.015541
-0.037665
-0.093872
-0.081764
-0.005383
-0.124888
-0.079750
-0.070650
-0.078939
-0.093008
-0.029744
-0.027541
-0.015555
-0.088300
-0.110878
-0.024089
-0.131648
-0.101828
0.014370
0.014248
-0.137799
-0.078915
0.007717
0.010257
-0.035279
-0.135515
-0.133816
0.005736
-0.119398
-0.073405
-0.031007
0.000717
-0.074084
-0.036604
-0.041820
-0.067207
-0.072196
-0.056032
-0.080242
-0.035948
-0.073779
-0.054486
-0.069490
-0.073789
-0.076111
-0.090576
-0.063304
-0.076185
-0.065742
-0.058143
-0.036759
-0.038741
-0.075130
-0.072610
0.009673
-0.065411
-0.113702
-0.055088
-0.001476
-0.036552
-0.054808
-0.037126
-0.060339
-0.072310
-0.070265
-0.117565
0.012245
-0.053005
-0.048772
-0.091363
-0.001031
-0.088183
0.012384
-0.026771
-0.081140
-0.032249
-0.084530
-0.007869
-0.127362
-0.034356
-0.107382
-0.113668
-0.077623
-0.067133
-0.037217
-0.071533
-0.086157
-0.115823
-0.091137
0.005648
-0.054464
-0.122179
-0.093691
-0.087896
-0.092247
0.010364
-0.134348
0.010246
-0.076989
-0.077917
-0.037288
-0.030681
-0.069814
-0.072962
0.012318
-0.046135
-0.057288
-0.010647
-0.103227
-0.117639
0.013621
-0.021439
-0.119568
-0.085049
-0.030972
-0.015395
-0.002811
-0.003023
-0.016847
-0.120416
0.002613
0.001749
0.009153
-0.094304
-0.024669
0.003846
-0.130527
-0.109683
-0.108155
0.006675
-0.127235
-0.074981
-0.020297
0.014342
-0.040413
-0.046850
-0.103506
-0.101112
-0.004605
-0.129511
-0.135272
-0.135834
-0.078082
-0.054006
-0.127148
-0.051223
0.008640
-0.097292
-0.030564
-0.071535
-0.053269
-0.075026
-0.076854
-0.069807
-0.058123
-0.075250
-0.063011
-0.042784
-0.064665
-0.038999
-0.071946
-0.037218
-0.037824
-0.053390
-0.076292
-0.036151
-0.000040
-0.079261
-0.068453
-0.060957
-0.071326
-0.077701
-0.106553
-0.034974
-0.053151
-0.114509
-0.073450
-0.073327
-0.080464
-0.042982
-0.061348
-0.054175
-0.072186
-0.058540
-0.063456
-0.036446
-0.037405
-0.075984
-0.077615
-0.052009
-0.052089
0.001865
-0.105931
-0.089772
-0.020330
-0.001456
-0.115878
-0.047661
-0.034408
-0.065602
-0.107473
-0.078675
-0.120800
-0.125219
-0.126001
0.011949
-0.009543
-0.076411
-0.028431
-0.100895
-0.111595
-0.034458
0.012586
-0.073907
-0.115805
0.010755
-0.053330
-0.097695
-0.020009
0.002314
0.009016
-0.130335
-0.132977
0.004592
-0.125219
-0.036906
0.007099
-0.003458
-0.038786
-0.038173
-0.015894
-0.094463
-0.024687
0.011678
-0.032417
-0.028030
0.011687
-0.069048
-0.110480
-0.005419
-0.089271
-0.076730
-0.012294
-0.050477
-0.083114
-0.037792
-0.095419
-0.078043
-0.090576
0.001127
-0.086548
-0.091473
0.006694
-0.085431
-0.071884
-0.131628
-0.085824
-0.032825
-0.099864
-0.051740
-0.116067
-0.122832
0.012446
0.012613
-0.104933
-0.090920
-0.006794
-0.045403
-0.039571
-0.072105
0.007875
-0.075324
-0.058806
-0.062040
-0.053823
-0.112085
-0.056671
-0.074542
-0.073769
-0.071110
-0.074676
-0.081718
-0.071585
-0.068140
-0.077100
-0.002240
-0.038522
-0.040568
-0.063164
-0.070538
-0.038742
-0.076612
-0.076450
-0.051285
-0.105989
-0.076630
-0.037537
-0.052405
-0.065916
-0.074359
-0.061204
-0.051029
-0.071317
-0.034317
-0.038353
-0.067350
-0.054041
-0.054493
-0.078816
-0.058933
-0.037184
-0.042332
-0.113247
-0.073437
-0.076894
-0.042165
-0.050506
-0.050228
-0.088269
-0.051034
-0.086034
-0.105916
-0.053388
0.010843
-0.029507
-0.063806
-0.032856
-0.087235
-0.057470
-0.096593
-0.005037
-0.036846
-0.050847
-0.110184
-0.077948
-0.083397
-0.114771
-0.092352
-0.075448
-0.113975
-0.074772
0.005145
0.001508
0.007885
-0.029646
-0.075345
-0.102120
-0.052314
0.011442
-0.091607
-0.108109
-0.038057
-0.017622
-0.089429
-0.080405
-0.038579
-0.068109
-0.001743
-0.023128
-0.046274
-0.089985
-0.118003
-0.093328
-0.024226
-0.038776
-0.088977
-0.059426
-0.063211
0.000020
0.009780
-0.129607
0.010557
-0.039971
-0.013229
-0.128500
-0.123251
-0.033117
0.003469
-0.102413
-0.123409
-0.044216
0.008892
0.012643
-0.036469
-0.008771
0.010668
-0.073465
-0.127361
-0.110199
0.004632
-0.118369
-0.079865
-0.069920
-0.075930
-0.104521
-0.002534
-0.078566
-0.069921
-0.072887
-0.050855
-0.070288
-0.067133
-0.077209
-0.071275
-0.073016
-0.077633
-0.035094
-0.109332
-0.075330
-0.063089
-0.058590
-0.073221
-0.050208
-0.070334
-0.038443
-0.098345
-0.037368
-0.071194
-0.055208
-0.032626
-0.018474
0.013670
-0.038699
-0.056536
-0.049454
-0.062477
-0.038840
-0.017676
-0.094634
-0.059105
-0.111801
-0.084460
-0.075663
-0.075583
-0.034320
-0.065597
-0.046302
-0.039054
-0.003014
-0.048396
-0.048913
-0.073182
-0.110293
-0.094854
-0.027874
-0.017861
-0.058045
-0.061334
0.000326
-0.121230
0.009154
-0.035258
-0.087137
-0.054142
-0.036042
-0.006410
-0.024304
-0.102231
-0.074386
0.005542
-0.038163
-0.028583
-0.074668
-0.087334
-0.049460
-0.107996
-0.070619
-0.122026
-0.127771
0.010767
0.003978
-0.098353
-0.034650
-0.036699
-0.113804
0.010152
-0.097064
-0.087648
-0.039867
-0.078115
-0.031546
-0.064909
-0.085189
-0.088171
-0.065883
0.010243
-0.075679
-0.112315
-0.076683
-0.088238
-0.034587
-0.069219
0.008787
-0.092788
-0.119107
0.006358
-0.068289
-0.001313
0.010357
-0.060161
-0.058363
-0.034022
-0.088987
-0.129716
-0.022799
-0.049839
-0.120886
-0.081943
-0.013613
-0.103653
0.010718
0.002780
-0.089700
0.000221
-0.116961
-0.104454
-0.107768
-0.123310
-0.082264
-0.021814
-0.012218
-0.048055
-0.074582
-0.003767
-0.100193
-0.035998
-0.058154
-0.050482
-0.050007
-0.077938
-0.054874
0.010873
-0.041099
-0.073989
-0.068657
-0.066746
-0.077292
-0.072293
-0.075462
-0.074070
-0.039101
-0.039522
-0.077547
-0.071937
-0.068934
-0.042973
-0.048763
-0.056079
-0.066140
-0.078286
-0.097663
-0.039013
-0.074555
-0.076275
-0.017846
-0.070358
-0.030637
-0.062592
-0.060232
-0.039365
-0.108581
-0.084029
0.012314
-0.071366
-0.079029
-0.072379
-0.052393
-0.076082
-0.006455
-0.056726
-0.058614
-0.077846
-0.007607
-0.039832
-0.085892
-0.048031
-0.093023
-0.107038
-0.052710
-0.063091
-0.083494
-0.031020
-0.000911
-0.079614
-0.033538
-0.106259
-0.036271
-0.119154
-0.077267
-0.101152
-0.116000
-0.038257
-0.017704
-0.041028
0.004276
-0.085045
-0.039948
0.007216
-0.124859
-0.073799
-0.056488
-0.119020
-0.074008
-0.053676
-0.002862
-0.069469
-0.050815
0.008645
0.009674
-0.099261
-0.072696
-0.048401
-0.085548
-0.064310
0.009137
-0.076604
-0.027900
-0.035256
-0.118860
-0.058653
-0.015356
-0.127349
-0.086752
-0.010968
-0.055063
-0.071572
-0.116291
-0.124884
-0.025545
0.003297
-0.103471
0.009174
0.008737
-0.091029
-0.087126
-0.045078
-0.036116
-0.113553
-0.057812
-0.004251
-0.106661
-0.100377
-0.004255
-0.111833
-0.035750
-0.028686
-0.015273
0.009033
-0.089990
-0.070766
-0.070458
-0.106545
-0.051686
-0.076645
-0.080579
-0.081816
-0.076184
0.007212
-0.031867
0.001771
-0.032824
-0.096606
-0.076694
-0.055029
-0.044116
-0.048860
-0.064600
-0.055998
-0.016584
-0.020483
-0.074930
-0.101478
-0.047565
-0.009734
-0.073157
-0.071176
-0.039632
-0.078234
-0.070998
-0.078473
-0.067911
-0.035362
-0.034945
-0.048903
-0.078710
-0.032342
-0.039637
-0.073534
-0.040695
-0.077228
-0.109966
-0.074915
-0.048826
-0.057496
-0.052752
-0.057782
-0.065223
-0.039807
-0.049751
-0.029679
0.010067
-0.073486
-0.074248
-0.071078
-0.019134
-0.069420
-0.092860
-0.086586
-0.063960
-0.067867
-0.069632
-0.058718
0.005684
-0.077566
-0.008504
-0.072166
-0.085121
-0.046849
-0.050385
-0.029360
-0.059887
-0.022536
-0.102472
-0.079424
0.007703
-0.043564
-0.034170
-0.112501
-0.037795
-0.021547
-0.105031
-0.084778
-0.075826
-0.053949
-0.094843
0.007703
-0.037125
-0.042349
-0.105376
-0.004405
-0.072149
-0.014223
-0.072616
-0.109772
-0.084481
-0.072718
-0.076059
-0.049240
-0.047095
0.008643
-0.108473
-0.037037
-0.047397
-0.099466
-0.093276
-0.078765
-0.099516
-0.036379
-0.084610
-0.055545
-0.039128
-0.103137
-0.002451
-0.014654
0.009402
-0.124337
-0.121888
-0.078311
-0.115400
-0.087535
0.005564
-0.066739
-0.068335
-0.117393
-0.000812
-0.010882
-0.096865
-0.088745
-0.091762
-0.034917
-0.015100
-0.067566
-0.031495
-0.108248
0.009144
-0.019954
-0.053690
-0.030715
0.008566
0.003033
0.004088
-0.111934
0.007577
-0.008007
-0.033280
-0.036239
-0.038938
-0.089608
-0.121235
-0.085399
0.000465
-0.077919
-0.030877
-0.027187
-0.081030
-0.051911
-0.047282
-0.062590
-0.068531
-0.049166
-0.075846
-0.101184
-0.050747
-0.077867
-0.074174
-0.074282
-0.072112
-0.082667
-0.073038
-0.063213
-0.072295
-0.056809
-0.070059
-0.078175
-0.036943
-0.078953
-0.025660
-0.041513
-0.047618
-0.053405
-0.045813
-0.079009
-0.061978
-0.077452
-0.111211
-0.048190
-0.066354
-0.040264
-0.040227
-0.040495
-0.040391
-0.072870
0.011431
-0.070560
-0.058858
-0.056222
-0.070282
-0.069664
-0.037797
0.002861
-0.042862
-0.070594
-0.108273
-0.053089
-0.024457
-0.031047
-0.082000
-0.032605
-0.111493
-0.046385
-0.003661
0.006096
-0.115194
-0.076280
-0.037916
-0.039258
-0.089864
-0.038500
-0.041017
-0.099928
-0.104003
-0.083499
-0.105066
-0.030303
0.007124
-0.000836
-0.041154
0.003116
0.006188
-0.067102
-0.047516
-0.046331
-0.075768
-0.014761
-0.011615
-0.074300
-0.015360
0.007207
0.007784
-0.005315
-0.071919
-0.114745
-0.123114
-0.065071
-0.092463
-0.100803
-0.078499
-0.033101
-0.083513
-0.037929
-0.072035
-0.086685
-0.051054
-0.030523
-0.057510
0.007580
-0.011883
-0.032408
-0.092404
-0.040347