# vtk DataFile Version 2.0
Test
ASCII
DATASET POLYDATA
POINTS 4677 float
0.000000 0.000000 0.000000
0.080000 0.000000 0.000000
0.080000 0.160000 0.000000
0.000000 0.160000 0.000000
0.036000 0.073072 0.000000
0.044000 0.086928 0.000000
0.024500 0.065566 0.000000
0.055500 0.093560 0.000000
0.001000 0.050000 0.000000
0.079000 0.110000 0.000000
0.002963 0.000000 0.000000
0.005926 0.000000 0.000000
0.008889 0.000000 0.000000
0.011852 0.000000 0.000000
0.014815 0.000000 0.000000
0.017778 0.000000 0.000000
0.020741 0.000000 0.000000
0.023704 0.000000 0.000000
0.026667 0.000000 0.000000
0.029630 0.000000 0.000000
0.032593 0.000000 0.000000
0.035556 0.000000 0.000000
0.038519 0.000000 0.000000
0.041481 0.000000 0.000000
0.044444 0.000000 0.000000
0.047407 0.000000 0.000000
0.050370 0.000000 0.000000
0.053333 0.000000 0.000000
0.056296 0.000000 0.000000
0.059259 0.000000 0.000000
0.062222 0.000000 0.000000
0.065185 0.000000 0.000000
0.068148 0.000000 0.000000
0.071111 0.000000 0.000000
0.074074 0.000000 0.000000
0.077037 0.000000 0.000000
0.080000 0.002963 0.000000
0.080000 0.005926 0.000000
0.080000 0.008889 0.000000
0.080000 0.011852 0.000000
0.080000 0.014815 0.000000
0.080000 0.017778 0.000000
0.080000 0.020741 0.000000
0.080000 0.023704 0.000000
0.080000 0.026667 0.000000
0.080000 0.029630 0.000000
0.080000 0.032593 0.000000
0.080000 0.035556 0.000000
0.080000 0.038519 0.000000
0.080000 0.041481 0.000000
0.080000 0.044444 0.000000
0.080000 0.047407 0.000000
0.080000 0.050370 0.000000
0.080000 0.053333 0.000000
0.080000 0.056296 0.000000
0.080000 0.059259 0.000000
0.080000 0.062222 0.000000
0.080000 0.065185 0.000000
0.080000 0.068148 0.000000
0.080000 0.071111 0.000000
0.080000 0.074074 0.000000
0.080000 0.077037 0.000000
0.080000 0.080000 0.000000
0.080000 0.082963 0.000000
0.080000 0.085926 0.000000
0.080000 0.088889 0.000000
0.080000 0.091852 0.000000
0.080000 0.094815 0.000000
0.080000 0.097778 0.000000
0.080000 0.100741 0.000000
0.080000 0.103704 0.000000
0.080000 0.106667 0.000000
0.080000 0.109630 0.000000
0.080000 0.112593 0.000000
0.080000 0.115556 0.000000
0.080000 0.118519 0.000000
0.080000 0.121481 0.000000
0.080000 0.124444 0.000000
0.080000 0.127407 0.000000
0.080000 0.130370 0.000000
0.080000 0.133333 0.000000
0.080000 0.136296 0.000000
0.080000 0.139259 0.000000
0.080000 0.142222 0.000000
0.080000 0.145185 0.000000
0.080000 0.148148 0.000000
0.080000 0.151111 0.000000
0.080000 0.154074 0.000000
0.080000 0.157037 0.000000
0.077037 0.160000 0.000000
0.074074 0.160000 0.000000
0.071111 0.160000 0.000000
0.068148 0.160000 0.000000
0.065185 0.160000 0.000000
0.062222 0.160000 0.000000
0.059259 0.160000 0.000000
0.056296 0.160000 0.000000
0.053333 0.160000 0.000000
0.050370 0.160000 0.000000
0.047407 0.160000 0.000000
0.044444 0.160000 0.000000
0.041481 0.160000 0.000000
0.038519 0.160000 0.000000
0.035556 0.160000 0.000000
0.032593 0.160000 0.000000
0.029630 0.160000 0.000000
0.026667 0.160000 0.000000
0.023704 0.160000 0.000000
0.020741 0.160000 0.000000
0.017778 0.160000 0.000000
0.014815 0.160000 0.000000
0.011852 0.160000 0.000000
0.008889 0.160000 0.000000
0.005926 0.160000 0.000000
0.002963 0.160000 0.000000
0.000000 0.157037 0.000000
0.000000 0.154074 0.000000
0.000000 0.151111 0.000000
0.000000 0.148148 0.000000
0.000000 0.145185 0.000000
0.000000 0.142222 0.000000
0.000000 0.139259 0.000000
0.000000 0.136296 0.000000
0.000000 0.133333 0.000000
0.000000 0.130370 0.000000
0.000000 0.127407 0.000000
0.000000 0.124444 0.000000
0.000000 0.121481 0.000000
0.000000 0.118519 0.000000
0.000000 0.115556 0.000000
0.000000 0.112593 0.000000
0.000000 0.109630 0.000000
0.000000 0.106667 0.000000
0.000000 0.103704 0.000000
0.000000 0.100741 0.000000
0.000000 0.097778 0.000000
0.000000 0.094815 0.000000
0.000000 0.091852 0.000000
0.000000 0.088889 0.000000
0.000000 0.085926 0.000000
0.000000 0.082963 0.000000
0.000000 0.080000 0.000000
0.000000 0.077037 0.000000
0.000000 0.074074 0.000000
0.000000 0.071111 0.000000
0.000000 0.068148 0.000000
0.000000 0.065185 0.000000
0.000000 0.062222 0.000000
0.000000 0.059259 0.000000
0.000000 0.056296 0.000000
0.000000 0.053333 0.000000
0.000000 0.050370 0.000000
0.000000 0.047407 0.000000
0.000000 0.044444 0.000000
0.000000 0.041481 0.000000
0.000000 0.038519 0.000000
0.000000 0.035556 0.000000
0.000000 0.032593 0.000000
0.000000 0.029630 0.000000
0.000000 0.026667 0.000000
0.000000 0.023704 0.000000
0.000000 0.020741 0.000000
0.000000 0.017778 0.000000
0.000000 0.014815 0.000000
0.000000 0.011852 0.000000
0.000000 0.008889 0.000000
0.000000 0.005926 0.000000
0.000000 0.002963 0.000000
0.035500 0.072746 0.000000
0.035000 0.072419 0.000000
0.034500 0.072093 0.000000
0.034000 0.071767 0.000000
0.033500 0.071440 0.000000
0.033000 0.071114 0.000000
0.032500 0.070788 0.000000
0.032000 0.070461 0.000000
0.031500 0.070135 0.000000
0.031000 0.069809 0.000000
0.030500 0.069482 0.000000
0.030000 0.069156 0.000000
0.029500 0.068829 0.000000
0.029000 0.068503 0.000000
0.028500 0.068177 0.000000
0.028000 0.067850 0.000000
0.027500 0.067524 0.000000
0.027000 0.067198 0.000000
0.026500 0.066871 0.000000
0.026000 0.066545 0.000000
0.025500 0.066219 0.000000
0.025000 0.065892 0.000000
0.044500 0.087216 0.000000
0.045000 0.087505 0.000000
0.045500 0.087793 0.000000
0.046000 0.088081 0.000000
0.046500 0.088370 0.000000
0.047000 0.088658 0.000000
0.047500 0.088946 0.000000
0.048000 0.089235 0.000000
0.048500 0.089523 0.000000
0.049000 0.089811 0.000000
0.049500 0.090100 0.000000
0.050000 0.090388 0.000000
0.050500 0.090677 0.000000
0.051000 0.090965 0.000000
0.051500 0.091253 0.000000
0.052000 0.091542 0.000000
0.052500 0.091830 0.000000
0.053000 0.092118 0.000000
0.053500 0.092407 0.000000
0.054000 0.092695 0.000000
0.054500 0.092983 0.000000
0.055000 0.093272 0.000000
0.043704 0.086415 0.000000
0.043407 0.085902 0.000000
0.043111 0.085388 0.000000
0.042815 0.084875 0.000000
0.042519 0.084362 0.000000
0.042222 0.083849 0.000000
0.041926 0.083336 0.000000
0.041630 0.082823 0.000000
0.041333 0.082309 0.000000
0.041037 0.081796 0.000000
0.040741 0.081283 0.000000
0.040444 0.080770 0.000000
0.040148 0.080257 0.000000
0.039852 0.079743 0.000000
0.039556 0.079230 0.000000
0.039259 0.078717 0.000000
0.038963 0.078204 0.000000
0.038667 0.077691 0.000000
0.038370 0.077177 0.000000
0.038074 0.076664 0.000000
0.037778 0.076151 0.000000
0.037481 0.075638 0.000000
0.037185 0.075125 0.000000
0.036889 0.074612 0.000000
0.036593 0.074098 0.000000
0.036296 0.073585 0.000000
0.024000 0.065235 0.000000
0.023500 0.064904 0.000000
0.023000 0.064572 0.000000
0.022500 0.064241 0.000000
0.022000 0.063910 0.000000
0.021500 0.063579 0.000000
0.021000 0.063248 0.000000
0.020500 0.062916 0.000000
0.020000 0.062585 0.000000
0.019500 0.062254 0.000000
0.019000 0.061923 0.000000
0.018500 0.061592 0.000000
0.018000 0.061261 0.000000
0.017500 0.060929 0.000000
0.017000 0.060598 0.000000
0.016500 0.060267 0.000000
0.016000 0.059936 0.000000
0.015500 0.059605 0.000000
0.015000 0.059273 0.000000
0.014500 0.058942 0.000000
0.014000 0.058611 0.000000
0.013500 0.058280 0.000000
0.013000 0.057949 0.000000
0.012500 0.057617 0.000000
0.012000 0.057286 0.000000
0.011500 0.056955 0.000000
0.011000 0.056624 0.000000
0.010500 0.056293 0.000000
0.010000 0.055961 0.000000
0.009500 0.055630 0.000000
0.009000 0.055299 0.000000
0.008500 0.054968 0.000000
0.008000 0.054637 0.000000
0.007500 0.054305 0.000000
0.007000 0.053974 0.000000
0.006500 0.053643 0.000000
0.006000 0.053312 0.000000
0.005500 0.052981 0.000000
0.005000 0.052650 0.000000
0.004500 0.052318 0.000000
0.004000 0.051987 0.000000
0.003500 0.051656 0.000000
0.003000 0.051325 0.000000
0.002500 0.050994 0.000000
0.002000 0.050662 0.000000
0.001500 0.050331 0.000000
0.055990 0.093902 0.000000
0.056479 0.094245 0.000000
0.056969 0.094587 0.000000
0.057458 0.094930 0.000000
0.057948 0.095272 0.000000
0.058437 0.095615 0.000000
0.058927 0.095957 0.000000
0.059417 0.096300 0.000000
0.059906 0.096642 0.000000
0.060396 0.096985 0.000000
0.060885 0.097327 0.000000
0.061375 0.097670 0.000000
0.061865 0.098012 0.000000
0.062354 0.098355 0.000000
0.062844 0.098697 0.000000
0.063333 0.099040 0.000000
0.063823 0.099382 0.000000
0.064312 0.099725 0.000000
0.064802 0.100067 0.000000
0.065292 0.100410 0.000000
0.065781 0.100752 0.000000
0.066271 0.101095 0.000000
0.066760 0.101437 0.000000
0.067250 0.101780 0.000000
0.067740 0.102122 0.000000
0.068229 0.102465 0.000000
0.068719 0.102807 0.000000
0.069208 0.103150 0.000000
0.069698 0.103492 0.000000
0.070187 0.103835 0.000000
0.070677 0.104177 0.000000
0.071167 0.104520 0.000000
0.071656 0.104862 0.000000
0.072146 0.105205 0.000000
0.072635 0.105547 0.000000
0.073125 0.105890 0.000000
0.073615 0.106232 0.000000
0.074104 0.106575 0.000000
0.074594 0.106917 0.000000
0.075083 0.107260 0.000000
0.075573 0.107602 0.000000
0.076062 0.107945 0.000000
0.076552 0.108287 0.000000
0.077042 0.108630 0.000000
0.077531 0.108972 0.000000
0.078021 0.109315 0.000000
0.078510 0.109658 0.000000
0.043942 0.087469 0.000000
0.035556 0.157037 0.000000
0.044420 0.002920 0.000000
0.077037 0.038519 0.000000
0.002963 0.121481 0.000000
0.077037 0.059259 0.000000
0.002963 0.109630 0.000000
0.002923 0.098139 0.000000
0.077153 0.126913 0.000000
0.002808 0.032596 0.000000
0.077140 0.071061 0.000000
0.002963 0.085926 0.000000
0.002963 0.136296 0.000000
0.077041 0.023701 0.000000
0.056296 0.157037 0.000000
0.032593 0.002963 0.000000
0.077037 0.080000 0.000000
0.002813 0.077135 0.000000
0.077037 0.142222 0.000000
0.017778 0.157037 0.000000
0.062222 0.002963 0.000000
0.076992 0.088722 0.000000
0.002945 0.020743 0.000000
0.017777 0.002962 0.000000
0.002801 0.068434 0.000000
0.002959 0.011851 0.000000
0.065186 0.157038 0.000000
0.002963 0.148148 0.000000
0.077037 0.011852 0.000000
0.076887 0.094740 0.000000
0.077092 0.115875 0.000000
0.002677 0.044265 0.000000
0.077038 0.148148 0.000000
0.002985 0.062165 0.000000
0.077037 0.047407 0.000000
0.011852 0.002963 0.000000
[...]
POINT_DATA 4677
SCALARS UX float 1
LOOKUP_TABLE default
-0.000001
0.000002
0.051790
-0.041707
-0.012799
-0.008109
-0.045676
0.030277
-0.060827
0.067815
-0.000000
-0.000000
-0.000000
-0.000000
-0.000000
-0.000000
-0.000000
-0.000000
-0.000000
-0.000000
-0.000000
-0.000000
-0.000000
0.000000
0.000000
0.000000
0.000000
0.000000
0.000000
0.000000
0.000000
0.000000
0.000000
0.000000
0.000000
-0.000000
0.008054
0.012691
0.016221
0.019163
0.021730
0.024068
0.026302
0.028585
0.030866
0.032924
0.035207
0.036882
0.038819
0.039799
0.040318
0.043259
0.045391
0.046704
0.047265
0.047551
0.048546
0.049921
0.051856
0.055225
0.060583
0.063136
0.064434
0.065738
0.065585
0.065168
0.062645
0.061384
0.062465
0.064005
0.065916
0.067894
0.068884
0.068961
0.067060
0.066950
0.067543
0.064787
0.059180
0.056817
0.057395
0.058992
0.055632
0.054695
0.054043
0.053035
0.052364
0.051948
0.051830
0.048450
0.044928
0.041190
0.037423
0.033794
0.030369
0.027070
0.023808
0.020550
0.017291
0.014034
0.010784
0.007529
0.004254
0.000945
-0.002403
-0.005787
-0.009206
-0.012663
-0.016159
-0.019697
-0.023275
-0.026891
-0.030545
-0.034249
-0.037956
-0.041757
-0.041856
-0.042008
-0.042210
-0.042460
-0.042761
-0.043123
-0.043561
-0.044060
-0.044675
-0.045325
-0.046164
-0.047082
-0.048108
-0.049214
-0.050392
-0.051630
-0.052921
-0.054300
-0.055921
-0.057790
-0.059676
-0.061453
-0.062591
-0.063126
-0.064743
-0.066862
-0.068722
-0.070361
-0.071891
-0.072592
-0.072621
-0.071878
-0.070438
-0.067992
-0.065159
-0.062201
-0.059260
-0.056565
-0.054035
-0.051824
-0.050071
-0.047771
-0.045061
-0.042342
-0.039856
-0.036696
-0.033384
-0.029676
-0.025983
-0.021851
-0.016516
-0.010303
-0.015696
-0.018472
-0.019367
-0.017769
-0.019952
-0.020817
-0.020149
-0.017483
-0.020767
-0.023168
-0.024859
-0.026140
-0.029091
-0.030250
-0.028195
-0.030760
-0.033131
-0.035054
-0.037141
-0.039217
-0.043133
-0.044495
-0.004467
-0.002195
0.000105
0.002038
0.001970
0.004302
0.004560
0.007612
0.010783
0.012254
0.013260
0.014772
0.016774
0.019276
0.022058
0.026203
0.024149
0.023358
0.023655
0.026617
0.029903
0.032103
-0.007455
-0.008282
-0.008775
-0.009266
-0.009910
-0.010097
-0.010310
-0.010548
-0.010594
-0.010698
-0.010580
-0.010545
-0.010615
-0.010744
-0.010955
-0.011166
-0.011340
-0.011613
-0.011929
-0.012327
-0.012750
-0.012964
-0.012916
-0.012567
-0.011956
-0.012030
-0.044358
-0.045778
-0.046838
-0.047092
-0.046955
-0.046139
-0.044250
-0.045890
-0.049375
-0.052061
-0.053884
-0.054310
-0.054596
-0.054776
-0.054944
-0.055122
-0.055294
-0.055474
-0.055648
-0.055829
-0.056010
-0.056191
-0.056371
-0.056562
-0.056770
-0.056993
-0.057206
-0.057400
-0.057590
-0.057777
-0.057967
-0.058158
-0.058350
-0.058547
-0.058748
-0.058945
-0.059139
-0.059324
-0.059508
-0.059684
-0.059853
-0.060018
-0.060186
-0.060351
-0.060509
-0.060669
0.032760
0.033521
0.034017
0.034472
0.034975
0.035427
0.035864
0.036345
0.036788
0.037164
0.037414
0.037698
0.038084
0.038517
0.038961
0.039461
0.040072
0.040748
0.041543
0.042279
0.042899
0.043359
0.043868
0.044485
0.045150
0.045934
0.046907
0.047827
0.049218
0.051068
0.052802
0.054628
0.056480
0.058094
0.059216
0.060119
0.061199
0.062194
0.062879
0.063487
0.064175
0.064647
0.065114
0.065629
0.066163
0.066718
0.067269
-0.006923
0.000913
0.000472
0.034227
-0.043364
0.044587
-0.047994
-0.054038
0.055710
-0.044947
0.051526
-0.059406
-0.039819
0.025460
0.023777
-0.000140
0.061642
-0.065399
0.048431
-0.019727
0.001849
0.060077
-0.033615
-0.001801
-0.070010
-0.022302
0.033856
-0.038447
0.016618
0.057478
0.061768
-0.053623
0.048971
-0.069299
0.039437
-0.003145
0.041279
-0.034242
0.003735
-0.066784
0.059455
0.051909
0.007482
0.013995
-0.000426
-0.040900
0.029907
-0.012682
0.001292
0.048420
0.060858
-0.050771
-0.005706
0.061448
-0.048673
-0.066343
-0.067330
0.061279
-0.057660
-0.061109
0.046401
0.056209
0.044059
-0.050828
0.062794
-0.045544
-0.041980
-0.039185
0.034411
-0.005786
0.053441
0.000847
0.000324
-0.041625
0.032080
0.000174
-0.030035
-0.000782
0.027042
0.017259
-0.039015
0.021343
-0.017963
-0.003984
-0.011664
-0.026923
0.002613
0.048601
-0.005613
-0.005437
-0.038081
0.009792
-0.037982
0.004957
0.066287
-0.008492
-0.059306
-0.062171
0.066165
-0.008377
0.000549
0.029868
0.051294
-0.039409
-0.057752
0.056452
0.017127
-0.037288
0.046309
-0.001380
-0.048955
-0.026700
-0.066157
0.058117
0.058282
0.023471
-0.018965
-0.006441
-0.010199
0.044638
-0.034341
0.007602
0.065840
-0.056770
0.058156
-0.070169
0.058194
-0.069165
-0.061487
0.061160
0.061119
-0.047646
0.067367
-0.063400
0.059770
-0.058633
-0.055741
0.048554
0.045086
-0.052499
-0.049382
0.044664
-0.046776
0.042306
0.052459
0.036076
-0.044444
0.004246
-0.042470
0.033556
-0.002388
0.000645
0.010763
-0.036737
-0.009209
0.001046
0.000020
0.050297
-0.040316
0.027639
0.020528
-0.000303
-0.016177
0.001547
-0.026339
-0.001206
0.030364
-0.039378
0.023363
-0.002417
-0.038705
0.019144
0.037542
0.048004
-0.023303
0.002185
0.044933
0.048484
-0.030562
0.003129
-0.038238
0.013573
-0.059816
0.067081
0.065848
-0.063418
-0.059582
-0.005123
-0.009802
0.065413
-0.064163
0.055625
-0.047982
-0.002462
-0.004952
-0.002416
0.041938
-0.053038
-0.045970
0.052081
-0.047512
-0.002471
-0.016262
-0.066280
0.002067
0.024415
0.054634
-0.035678
-0.023384
0.055253
0.016614
-0.034985
0.004460
0.065269
-0.058418
0.055380
0.041763
-0.043256
0.038968
-0.040875
0.010575
-0.036683
0.030434
-0.003042
-0.005159
-0.034501
0.037771
0.044784
-0.058461
0.066085
-0.053754
0.061085
0.057962
-0.067635
0.056979
-0.060626
-0.062354
0.057193
0.057560
-0.049083
0.063694
-0.044136
-0.045716
-0.051098
0.045616
0.047889
-0.054927
0.029880
-0.000107
0.000230
-0.036622
0.032588
0.030768
0.001249
0.000877
-0.056178
0.047642
0.013934
-0.009295
0.020344
-0.038932
-0.038085
0.045240
0.043737
0.046002
0.004012
-0.033330
-0.000801
0.027015
-0.022957
-0.002036
0.020650
0.003103
-0.030135
-0.014699
-0.007952
0.044951
-0.030642
0.006198
0.011149
-0.041698
-0.010260
-0.005689
0.064999
-0.058890
-0.061046
0.067868
-0.059725
0.066219
-0.010228
-0.003196
-0.006567
-0.001325
-0.007424
0.000212
0.027763
0.044109
-0.051996
0.010789
-0.035382
-0.038011
0.042624
0.053067
-0.001611
0.020584
-0.029619
-0.023321
-0.008003
-0.057427
0.063962
0.051270
-0.001183
-0.064498
0.029322
0.001196
0.039832
-0.003834
0.026977
0.039924
-0.033724
-0.030807
0.009218
-0.006711
-0.067135
0.054651
-0.041802
-0.067211
-0.047483
-0.062473
-0.053468
-0.051396
0.026890
0.042833
0.056188
0.041763
-0.044511
0.041017
0.052722
-0.041979
0.050892
0.054958
-0.053569
0.007117
-0.000423
-0.005748
-0.036101
0.036274
0.001630
-0.012690
-0.032647
0.013796
0.025717
-0.039838
0.002562
-0.019774
0.043223
0.022504
-0.019700
-0.011827
0.018716
0.041378
0.034147
-0.004038
-0.035306
0.003718
0.000784
-0.026978
-0.034717
0.041235
0.014130
0.005259
-0.046007
0.050985
-0.049669
-0.011297
-0.061401
-0.009923
-0.004531
0.064719
-0.055436
0.062953
-0.010565
0.002352
0.064680
-0.060790
-0.057051
0.065381
0.064585
0.001404
0.001125
0.001197
-0.059227
-0.051787
-0.009174
0.003175
0.038675
-0.044954
-0.049387
-0.037740
0.047042
0.010412
-0.061482
-0.047729
-0.009229
0.052665
-0.032043
0.003064
0.021407
-0.028986
-0.065548
-0.019981
-0.041169
0.005557
0.016293
0.037520
-0.000190
0.060069
0.004121
-0.038329
-0.036474
0.039495
-0.020124
-0.006532
0.011929
-0.027161
0.046035
-0.053794
0.053362
0.045063
-0.064441
-0.048694
-0.054991
-0.050221
-0.000798
0.040825
0.025045
-0.044206
0.029529
0.007820
0.000670
-0.043489
0.051468
0.040919
-0.058687
0.053397
0.053526
0.017506
0.035815
0.040425
-0.036009
-0.033084
-0.012970
-0.002550
0.026202
-0.026819
0.023741
-0.005096
0.042582
0.003802
-0.002604
0.030299
0.037596
-0.034483
0.019775
-0.015784
0.040989
-0.009712
0.001765
-0.031661
-0.031031
0.006586
0.007775
-0.045316
-0.005229
-0.004160
0.004945
-0.057992
-0.058948
0.064056
0.063964
-0.011857
-0.060253
-0.011604
0.063112
-0.067685
-0.002381
0.056614
0.052459
0.048437
0.050084
-0.050232
-0.055758
-0.008039
0.002359
0.062888
-0.010801
0.001011
0.024946
0.038097
-0.033338
0.000717
0.048468
-0.045702
0.038520
0.049983
0.050405
0.020276
-0.030242
-0.009864
-0.002648
-0.052376
0.036458
0.003983
0.019181
0.059921
0.026640
-0.028436
-0.027397
0.000588
-0.031832
0.021148
0.044795
0.041486
-0.007256
0.007248
-0.023674
-0.013127
0.010090
-0.005255
0.054642
-0.047720
0.039006
-0.007918
-0.035205
-0.000722
-0.046689
0.032986
0.039316
0.006566
0.044184
-0.042467
0.003726
-0.039885
0.001493
-0.037311
0.036829
0.016451
-0.059181
0.052249
0.045952
-0.064664
0.045160
0.002358
0.049802
-0.050733
-0.026431
-0.043354
-0.031993
0.021786
-0.016719
0.000683
0.037080
-0.016425
0.018094
-0.004075
0.033940
0.004617
-0.032489
0.013513
-0.009019
0.036228
-0.005883
0.014277
-0.031310
-0.023548
0.023085
0.062859
-0.058787
-0.006884
-0.065561
-0.054497
-0.003593
0.005234
-0.012305
-0.012341
-0.012457
-0.011435
-0.048500
-0.007256
-0.002659
0.003193
-0.045725
-0.063068
-0.056699
-0.059931
0.040974
0.038591
0.063999
0.057369
0.055372
-0.056412
-0.060196
0.062349
0.005922
0.062705
-0.058445
-0.040597
0.063838
0.063507
0.003421
-0.008615
0.004564
-0.039547
-0.046541
0.040211
0.007345
-0.029810
-0.058358
0.000914
-0.034695
0.017948
-0.046528
0.052144
-0.003936
0.048307
-0.026487
0.035089
0.017228
-0.053237
-0.063927
-0.016707
0.060441
0.035969
0.039491
0.032647
0.000368
-0.004879
0.033292
-0.036784
-0.020351
-0.006384
0.003043
-0.009526
0.033504
0.015597
-0.062029
0.006062
-0.028953
0.012184
-0.027710
-0.013297
-0.000370
-0.043245
-0.055975
-0.052148
-0.040505
0.035291
0.036849
-0.044262
-0.043142
0.020623
0.049526
-0.000034
-0.065630
0.039974
-0.034541
0.002225
-0.001594
-0.059837
-0.031032
0.046571
0.036424
0.063223
0.013334
-0.005738
-0.013979
0.029940
0.041312
0.027058
0.023640
0.004943
-0.029591
0.017168
0.036809
0.023351
-0.028072
0.061570
0.003380
-0.013237
0.008569
-0.010858
0.061580
-0.023817
-0.058109
0.050843
0.062230
0.057016
-0.011808
0.007749
-0.055094
-0.057831
0.042595
-0.050724
-0.005025
0.050649
0.006766
-0.003121
-0.012877
0.009845
-0.011003
-0.012857
-0.044514
-0.002320
0.063165
-0.003909
0.006306
0.062862
-0.061142
-0.037567
-0.058757
0.062127
0.008373
-0.058419
0.037145
-0.034187
0.008582
-0.010268
0.033091
0.008057
0.033114
0.037486
-0.043434
-0.040457
0.044844
-0.048642
0.003677
0.016176
-0.006848
-0.026905
0.014950
0.011246
-0.000579
0.006039
-0.054351
-0.057356
-0.042426
-0.028177
0.016937
-0.034932
-0.031001
0.023426
0.025057
0.039264
-0.007527
0.030128
0.033240
-0.024530
-0.013597
-0.014314
-0.042113
-0.040613
-0.001497
-0.037679
-0.032581
-0.000498
-0.002525
0.061947
0.034315
-0.063846
-0.062400
0.046979
-0.007576
-0.061785
0.003317
0.002964
-0.043283
0.035159
-0.063875
-0.002803
0.029488
-0.023858
-0.053838
0.033848
-0.005650
-0.028639
0.033146
-0.056280
-0.064468
-0.047982
0.049401
0.048768
-0.011626
-0.059960
0.010307
-0.017229
-0.026165
0.020468
0.022422
0.019189
-0.024130
0.033343
0.010381
0.014063
0.061702
-0.020219
-0.025524
0.007340
-0.035370
0.041166
0.051154
0.001712
-0.006292
0.056964
0.052853
0.003993
-0.057777
0.046109
0.037715
0.061413
-0.059463
0.011520
-0.011833
-0.013886
-0.013700
-0.056753
0.004868
-0.012960
-0.052092
-0.000912
0.060354
0.054698
-0.060750
-0.003382
0.036098
0.035548
-0.038532
0.009495
0.000146
0.060584
0.011105
0.059875
0.006665
-0.057890
0.031504
-0.027860
0.021700
0.014095
-0.040624
-0.045216
0.000268
-0.056456
0.015632
0.046033
-0.061261
0.049725
0.032330
-0.007421
-0.023582
-0.023888
-0.037486
0.005943
-0.063155
-0.053245
0.058638
-0.057021
0.030449
-0.033491
-0.052755
0.006954
0.003170
-0.003855
-0.041775
0.030002
-0.049417
0.013681
-0.021052
0.031268
-0.015221
-0.062408
0.057154
0.048019
-0.055656
-0.002885
0.016072
-0.037922
-0.046562
0.037182
0.019117
-0.032132
0.027289
0.047312
-0.000519
-0.059550
-0.020523
-0.011973
0.036550
-0.001409
0.041808
-0.026613
0.033946
0.002581
0.012185
0.026691
-0.017574
0.004793
-0.016996
-0.035881
0.013160
0.008767
-0.010127
-0.060690
-0.014432
0.020689
-0.031839
0.050306
-0.039505
-0.040674
-0.003637
-0.022837
-0.020627
-0.024950
0.038598
-0.044409
-0.027728
0.047503
0.033075
-0.043086
0.052611
0.035144
0.006402
-0.007863
-0.014406
0.000933
-0.003393
-0.014802
-0.008621
0.052341
0.006515
0.055012
-0.013015
0.060337
0.058303
0.012547
-0.012513
0.060044
0.001006
-0.062007
-0.011998
0.008646
-0.056754
-0.063610
-0.041742
0.060525
0.010476
-0.035056
-0.004650
-0.059089
-0.066128
-0.031477
0.039805
0.010358
-0.057800
0.008680
-0.050754
0.059420
0.059233
-0.009394
-0.015694
0.006964
0.013318
0.031350
-0.034434
-0.042762
0.038308
-0.000257
-0.024711
0.048817
0.049606
-0.052004
0.012992
-0.060585
-0.003972
-0.020365
-0.010625
0.022450
0.033700
-0.062403
-0.020462
0.021500
-0.032149
-0.025481
0.028048
-0.004049
-0.028808
0.013479
0.013564
-0.039578
-0.014791
0.003004
0.011616
-0.017637
-0.021505
0.005572
-0.024484
0.057417
0.029657
-0.002115
-0.029759
0.059034
0.034620
0.026956
0.043769
0.030700
0.048401
0.047178
0.014598
-0.054752
0.010100
0.033402
-0.054069
-0.062168
-0.009944
-0.041611
-0.060195
0.057940
-0.041014
-0.064060
-0.046805
0.001922
0.030106
-0.051016
0.008439
0.031461
-0.057593
-0.022160
-0.057368
0.052629
-0.037667
0.015526
0.002985
-0.025519
0.019911
0.016682
0.016147
-0.040998
-0.005404
-0.038124
-0.032482
0.030391
0.010204
0.036085
-0.005579
-0.008622
0.045391
-0.035306
0.041543
-0.060331
-0.059648
-0.013355
-0.015534
0.034387
-0.001502
0.002580
-0.014423
-0.000722
0.057032
0.052039
0.006883
-0.056133
0.054846
-0.015891
-0.060755
0.009669
-0.039012
-0.011777
0.059040
0.014310
0.034987
-0.005602
-0.048923
0.012014
-0.056894
0.059520
0.058122
-0.012062
0.010557
-0.044277
-0.064973
0.010992
0.058564
-0.035324
-0.030421
0.028596
-0.010990
-0.035577
0.015589
0.009901
-0.040513
-0.041558
-0.053686
0.013010
0.044391
0.014345
0.045547
-0.050606
0.047151
0.029389
-0.005229
-0.036351
-0.004763
0.055895
0.016769
-0.028820
-0.015735
-0.057228
0.002636
-0.038888
-0.061638
-0.025834
-0.005573
0.006152
0.002080
0.009839
-0.022549
-0.061268
-0.036676
0.005383
0.023470
0.027781
-0.033316
0.056203
-0.010770
-0.049933
-0.059156
0.056202
-0.053702
0.031845
0.039931
-0.038543
-0.048311
0.000028
0.027448
-0.017356
-0.032743
-0.044442
0.037807
0.036015
0.000828
0.012447
-0.018123
0.019161
0.054564
0.033439
-0.013943
-0.021412
0.051102
0.004226
0.019450
-0.007353
0.049669
0.028163
0.018213
-0.029533
-0.006734
0.013342
0.031879
-0.019194
0.009188
0.030292
-0.023611
0.034706
-0.055620
-0.016491
-0.036345
-0.001437
-0.064644
-0.013465
-0.002712
0.017082
-0.000465
0.004664
-0.013965
-0.056895
-0.058999
-0.016590
0.056870
-0.032580
-0.007385
0.008221
-0.047178
-0.014362
0.013845
0.031024
0.056836
0.024133
-0.028327
-0.057003
-0.000781
0.054173
0.036107
0.034234
0.057012
0.012310
0.012225
-0.009560
0.056399
-0.012376
-0.037500
0.013716
-0.027364
0.030852
-0.061568
-0.061005
0.048429
-0.011945
0.011560
-0.033023
0.028988
0.012130
0.015436
0.027646
-0.024445
-0.034157
0.039127
0.031540
0.039036
-0.048979
0.000827
-0.018390
0.012012
0.050712
0.027222
-0.000432
0.048320
-0.005725
-0.019579
-0.033008
-0.059853
0.026633
0.054198
0.044408
-0.060587
-0.042284
0.018028
0.009995
-0.056340
-0.007230
-0.014785
0.015858
0.004705
-0.034639
-0.027223
0.053954
-0.021833
0.027777
0.024724
-0.047161
0.054044
-0.015318
0.046706
0.033050
-0.055107
-0.051124
-0.052248
0.012458
-0.006604
0.005417
-0.062763
-0.045870
0.047298
-0.054808
0.010793
-0.034951
-0.003337
0.007724
0.032121
-0.000572
0.019590
-0.008684
0.014844
0.055680
0.028668
-0.018966
0.034577
0.047107
-0.022520
-0.058116
-0.008703
0.016341
0.017647
0.003339
-0.038536
0.028475
-0.000349
-0.031736
-0.029456
-0.017265
0.030527
-0.017335
0.030589
-0.039461
0.027809
-0.002931
0.022256
-0.030353
-0.006757
0.008411
0.017065
0.031665
0.001179
0.025677
0.052383
-0.003793
-0.013338
-0.013181
-0.017307
-0.014671
-0.016993
-0.060068
0.055470
0.053963
-0.013340
-0.001788
0.001548
-0.035779
0.013691
-0.045227
0.007866
-0.016917
0.024743
0.054778
-0.060765
-0.008717
-0.013693
-0.055993
0.046122
0.009310
0.011914
0.055947
-0.025926
-0.055830
0.029730
-0.057271
-0.059669
-0.058479
0.016363
-0.061868
0.029858
0.014526
0.015083
-0.012526
0.026696
-0.033024
-0.039995
0.012971
-0.031847
-0.023077
-0.042618
0.034474
-0.052754
0.043890
-0.000704
-0.057146
0.045992
0.009923
0.047243
-0.015336
-0.059185
-0.030145
-0.000892
0.052253
-0.016746
0.052547
0.005041
0.027025
0.053176
0.008723
-0.016223
-0.059999
-0.005800
-0.019555
-0.060286
0.018080
-0.002167
-0.014299
0.006644
0.024692
0.020057
0.021870
-0.058903
0.018272
-0.044513
0.008851
0.011097
-0.007821
0.043108
0.052894
-0.004889
-0.047102
-0.010272
-0.015968
-0.043693
-0.008063
0.042954
0.028683
-0.020718
-0.011041
0.036419
0.027375
0.013920
0.013457
0.016713
-0.036511
-0.038102
-0.036936
0.049496
0.002418
0.017728
-0.003811
-0.030643
-0.034055
0.026059
-0.022879
-0.030600
-0.021785
0.030660
0.011066
0.026352
-0.056957
-0.056366
-0.026407
0.004080
0.027752
-0.055927
-0.054884
0.025456
0.025676
-0.024752
0.002175
-0.027298
-0.033061
-0.017868
-0.002782
0.050343
0.010696
-0.012126
0.014581
-0.012632
0.032436
-0.004795
0.019234
0.015015
0.030023
-0.002658
-0.014793
0.052727
-0.017846
-0.000966
-0.014693
0.005118
0.053678
0.052086
0.017166
-0.016873
0.045454
0.054299
-0.059656
0.053653
-0.010254
0.007297
-0.061006
-0.039594
-0.007746
0.003671
0.016390
0.008568
0.052642
0.018280
0.047391
0.012304
-0.059519
-0.016215
-0.057105
-0.015169
-0.055120
0.025838
-0.048403
-0.050806
-0.053770
0.029932
0.016856
0.023002
-0.009166
0.023768
0.026943
-0.037548
0.014055
-0.040710
0.035984
0.037729
0.029364
0.012183
-0.054143
0.011002
0.051194
0.044830
0.001524
0.048025
-0.019536
-0.023427
-0.046082
-0.018116
-0.004135
-0.030697
0.009190
0.050366
-0.034581
-0.027691
-0.004579
-0.016300
0.027818
-0.058705
-0.020212
-0.051215
-0.059042
0.024598
0.007827
0.012159
0.010338
0.006712
0.052218
0.018252
0.019274
0.023233
-0.013846
-0.031173
0.046280
-0.041860
-0.044764
0.052243
-0.028982
-0.002296
-0.011219
0.022163
-0.012072
-0.008871
-0.058081
-0.002202
0.024006
0.006624
0.007552
-0.054307
-0.016791
0.025439
0.027125
0.022562
-0.035968
-0.032676
0.046245
-0.014387
0.031207
0.044725
-0.021896
0.015356
0.028803
0.020450
0.042467
0.017035
0.003541
0.023875
-0.019071
0.009669
-0.006884
-0.028297
-0.030593
0.053783
0.024145
-0.014186
-0.049674
0.000708
0.024875
-0.024844
0.032540
0.027937
0.002218
0.048714
0.012234
-0.014629
0.009396
-0.005880
0.016810
0.018474
-0.018547
-0.003422
-0.060472
-0.058438
-0.054002
-0.016149
-0.011880
-0.001629
0.017517
0.001454
-0.011589
0.051343
-0.018057
0.044804
0.052286
0.016830
-0.002168
-0.037041
-0.016453
-0.049445
-0.060402
0.005189
0.019036
-0.052695
0.052036
0.050315
0.053152
0.050663
-0.059253
0.014264
-0.056940
-0.009209
0.016825
-0.056374
-0.055495
0.047008
0.020869
-0.034604
0.028454
-0.017702
-0.042843
0.026872
0.033225
-0.050384
0.043157
0.000021
0.049664
-0.005208
0.008432
-0.013958
-0.057656
0.046068
0.046439
0.020783
0.050637
0.050916
-0.027433
-0.024774
-0.046961
-0.020849
0.041354
0.014023
-0.001087
0.047996
0.003712
0.007340
-0.053437
0.010009
0.018031
-0.059306
-0.015908
-0.013584
-0.017899
0.024837
0.021157
0.016934
0.023203
-0.058416
-0.017640
-0.013124
0.033526
0.021278
0.014336
-0.055232
0.044164
-0.042735
0.049028
-0.058491
-0.035473
0.000392
0.038023
0.040418
0.012740
0.024355
0.041874
-0.029555
0.049454
-0.034089
0.045390
0.002146
0.050970
0.027424
0.045180
-0.005221
0.005829
-0.038393
0.020003
-0.028406
-0.012343
-0.025199
-0.021061
0.008982
-0.032232
-0.055244
0.022818
0.024520
-0.030617
-0.009120
0.030898
0.024415
0.050883
0.009165
0.015458
0.005861
-0.006217
0.049863
0.025629
0.016603
-0.019092
-0.013530
-0.008373
-0.006834
0.015343
-0.052909
0.009732
-0.004167
-0.048121
0.011084
0.045179
0.010032
0.012939
-0.019023
-0.016062
0.050917
-0.030572
-0.059603
-0.002255
0.019520
0.004222
-0.000203
-0.025695
0.051699
-0.017920
-0.022684
-0.051517
-0.015830
-0.038929
-0.011975
0.020564
-0.058338
0.019260
-0.056207
-0.057937
0.052361
0.049095
0.020137
-0.051961
-0.010495
-0.012864
0.019460
0.002630
0.018977
-0.032684
0.042130