# vtk DataFile Version 2.0
Test
ASCII
DATASET POLYDATA
POINTS 4677 float
0.000000 0.000000 0.000000
0.080000 0.000000 0.000000
0.080000 0.160000 0.000000
0.000000 0.160000 0.000000
0.036000 0.073072 0.000000
0.044000 0.086928 0.000000
0.024500 0.065566 0.000000
0.055500 0.093560 0.000000
0.001000 0.050000 0.000000
0.079000 0.110000 0.000000
0.002963 0.000000 0.000000
0.005926 0.000000 0.000000
0.008889 0.000000 0.000000
0.011852 0.000000 0.000000
0.014815 0.000000 0.000000
0.017778 0.000000 0.000000
0.020741 0.000000 0.000000
0.023704 0.000000 0.000000
0.026667 0.000000 0.000000
0.029630 0.000000 0.000000
0.032593 0.000000 0.000000
0.035556 0.000000 0.000000
0.038519 0.000000 0.000000
0.041481 0.000000 0.000000
0.044444 0.000000 0.000000
0.047407 0.000000 0.000000
0.050370 0.000000 0.000000
0.053333 0.000000 0.000000
0.056296 0.000000 0.000000
0.059259 0.000000 0.000000
0.062222 0.000000 0.000000
0.065185 0.000000 0.000000
0.068148 0.000000 0.000000
0.071111 0.000000 0.000000
0.074074 0.000000 0.000000
0.077037 0.000000 0.000000
0.080000 0.002963 0.000000
0.080000 0.005926 0.000000
0.080000 0.008889 0.000000
0.080000 0.011852 0.000000
0.080000 0.014815 0.000000
0.080000 0.017778 0.000000
0.080000 0.020741 0.000000
0.080000 0.023704 0.000000
0.080000 0.026667 0.000000
0.080000 0.029630 0.000000
0.080000 0.032593 0.000000
0.080000 0.035556 0.000000
0.080000 0.038519 0.000000
0.080000 0.041481 0.000000
0.080000 0.044444 0.000000
0.080000 0.047407 0.000000
0.080000 0.050370 0.000000
0.080000 0.053333 0.000000
0.080000 0.056296 0.000000
0.080000 0.059259 0.000000
0.080000 0.062222 0.000000
0.080000 0.065185 0.000000
0.080000 0.068148 0.000000
0.080000 0.071111 0.000000
0.080000 0.074074 0.000000
0.080000 0.077037 0.000000
0.080000 0.080000 0.000000
0.080000 0.082963 0.000000
0.080000 0.085926 0.000000
0.080000 0.088889 0.000000
0.080000 0.091852 0.000000
0.080000 0.094815 0.000000
0.080000 0.097778 0.000000
0.080000 0.100741 0.000000
0.080000 0.103704 0.000000
0.080000 0.106667 0.000000
0.080000 0.109630 0.000000
0.080000 0.112593 0.000000
0.080000 0.115556 0.000000
0.080000 0.118519 0.000000
0.080000 0.121481 0.000000
0.080000 0.124444 0.000000
0.080000 0.127407 0.000000
0.080000 0.130370 0.000000
0.080000 0.133333 0.000000
0.080000 0.136296 0.000000
0.080000 0.139259 0.000000
0.080000 0.142222 0.000000
0.080000 0.145185 0.000000
0.080000 0.148148 0.000000
0.080000 0.151111 0.000000
0.080000 0.154074 0.000000
0.080000 0.157037 0.000000
0.077037 0.160000 0.000000
0.074074 0.160000 0.000000
0.071111 0.160000 0.000000
0.068148 0.160000 0.000000
0.065185 0.160000 0.000000
0.062222 0.160000 0.000000
0.059259 0.160000 0.000000
0.056296 0.160000 0.000000
0.053333 0.160000 0.000000
0.050370 0.160000 0.000000
0.047407 0.160000 0.000000
0.044444 0.160000 0.000000
0.041481 0.160000 0.000000
0.038519 0.160000 0.000000
0.035556 0.160000 0.000000
0.032593 0.160000 0.000000
0.029630 0.160000 0.000000
0.026667 0.160000 0.000000
0.023704 0.160000 0.000000
0.020741 0.160000 0.000000
0.017778 0.160000 0.000000
0.014815 0.160000 0.000000
0.011852 0.160000 0.000000
0.008889 0.160000 0.000000
0.005926 0.160000 0.000000
0.002963 0.160000 0.000000
0.000000 0.157037 0.000000
0.000000 0.154074 0.000000
0.000000 0.151111 0.000000
0.000000 0.148148 0.000000
0.000000 0.145185 0.000000
0.000000 0.142222 0.000000
0.000000 0.139259 0.000000
0.000000 0.136296 0.000000
0.000000 0.133333 0.000000
0.000000 0.130370 0.000000
0.000000 0.127407 0.000000
0.000000 0.124444 0.000000
0.000000 0.121481 0.000000
0.000000 0.118519 0.000000
0.000000 0.115556 0.000000
0.000000 0.112593 0.000000
0.000000 0.109630 0.000000
0.000000 0.106667 0.000000
0.000000 0.103704 0.000000
0.000000 0.100741 0.000000
0.000000 0.097778 0.000000
0.000000 0.094815 0.000000
0.000000 0.091852 0.000000
0.000000 0.088889 0.000000
0.000000 0.085926 0.000000
0.000000 0.082963 0.000000
0.000000 0.080000 0.000000
0.000000 0.077037 0.000000
0.000000 0.074074 0.000000
0.000000 0.071111 0.000000
0.000000 0.068148 0.000000
0.000000 0.065185 0.000000
0.000000 0.062222 0.000000
0.000000 0.059259 0.000000
0.000000 0.056296 0.000000
0.000000 0.053333 0.000000
0.000000 0.050370 0.000000
0.000000 0.047407 0.000000
0.000000 0.044444 0.000000
0.000000 0.041481 0.000000
0.000000 0.038519 0.000000
0.000000 0.035556 0.000000
0.000000 0.032593 0.000000
0.000000 0.029630 0.000000
0.000000 0.026667 0.000000
0.000000 0.023704 0.000000
0.000000 0.020741 0.000000
0.000000 0.017778 0.000000
0.000000 0.014815 0.000000
0.000000 0.011852 0.000000
0.000000 0.008889 0.000000
0.000000 0.005926 0.000000
0.000000 0.002963 0.000000
0.035500 0.072746 0.000000
0.035000 0.072419 0.000000
0.034500 0.072093 0.000000
0.034000 0.071767 0.000000
0.033500 0.071440 0.000000
0.033000 0.071114 0.000000
0.032500 0.070788 0.000000
0.032000 0.070461 0.000000
0.031500 0.070135 0.000000
0.031000 0.069809 0.000000
0.030500 0.069482 0.000000
0.030000 0.069156 0.000000
0.029500 0.068829 0.000000
0.029000 0.068503 0.000000
0.028500 0.068177 0.000000
0.028000 0.067850 0.000000
0.027500 0.067524 0.000000
0.027000 0.067198 0.000000
0.026500 0.066871 0.000000
0.026000 0.066545 0.000000
0.025500 0.066219 0.000000
0.025000 0.065892 0.000000
0.044500 0.087216 0.000000
0.045000 0.087505 0.000000
0.045500 0.087793 0.000000
0.046000 0.088081 0.000000
0.046500 0.088370 0.000000
0.047000 0.088658 0.000000
0.047500 0.088946 0.000000
0.048000 0.089235 0.000000
0.048500 0.089523 0.000000
0.049000 0.089811 0.000000
0.049500 0.090100 0.000000
0.050000 0.090388 0.000000
0.050500 0.090677 0.000000
0.051000 0.090965 0.000000
0.051500 0.091253 0.000000
0.052000 0.091542 0.000000
0.052500 0.091830 0.000000
0.053000 0.092118 0.000000
0.053500 0.092407 0.000000
0.054000 0.092695 0.000000
0.054500 0.092983 0.000000
0.055000 0.093272 0.000000
0.043704 0.086415 0.000000
0.043407 0.085902 0.000000
0.043111 0.085388 0.000000
0.042815 0.084875 0.000000
0.042519 0.084362 0.000000
0.042222 0.083849 0.000000
0.041926 0.083336 0.000000
0.041630 0.082823 0.000000
0.041333 0.082309 0.000000
0.041037 0.081796 0.000000
0.040741 0.081283 0.000000
0.040444 0.080770 0.000000
0.040148 0.080257 0.000000
0.039852 0.079743 0.000000
0.039556 0.079230 0.000000
0.039259 0.078717 0.000000
0.038963 0.078204 0.000000
0.038667 0.077691 0.000000
0.038370 0.077177 0.000000
0.038074 0.076664 0.000000
0.037778 0.076151 0.000000
0.037481 0.075638 0.000000
0.037185 0.075125 0.000000
0.036889 0.074612 0.000000
0.036593 0.074098 0.000000
0.036296 0.073585 0.000000
0.024000 0.065235 0.000000
0.023500 0.064904 0.000000
0.023000 0.064572 0.000000
0.022500 0.064241 0.000000
0.022000 0.063910 0.000000
0.021500 0.063579 0.000000
0.021000 0.063248 0.000000
0.020500 0.062916 0.000000
0.020000 0.062585 0.000000
0.019500 0.062254 0.000000
0.019000 0.061923 0.000000
0.018500 0.061592 0.000000
0.018000 0.061261 0.000000
0.017500 0.060929 0.000000
0.017000 0.060598 0.000000
0.016500 0.060267 0.000000
0.016000 0.059936 0.000000
0.015500 0.059605 0.000000
0.015000 0.059273 0.000000
0.014500 0.058942 0.000000
0.014000 0.058611 0.000000
0.013500 0.058280 0.000000
0.013000 0.057949 0.000000
0.012500 0.057617 0.000000
0.012000 0.057286 0.000000
0.011500 0.056955 0.000000
0.011000 0.056624 0.000000
0.010500 0.056293 0.000000
0.010000 0.055961 0.000000
0.009500 0.055630 0.000000
0.009000 0.055299 0.000000
0.008500 0.054968 0.000000
0.008000 0.054637 0.000000
0.007500 0.054305 0.000000
0.007000 0.053974 0.000000
0.006500 0.053643 0.000000
0.006000 0.053312 0.000000
0.005500 0.052981 0.000000
0.005000 0.052650 0.000000
0.004500 0.052318 0.000000
0.004000 0.051987 0.000000
0.003500 0.051656 0.000000
0.003000 0.051325 0.000000
0.002500 0.050994 0.000000
0.002000 0.050662 0.000000
0.001500 0.050331 0.000000
0.055990 0.093902 0.000000
0.056479 0.094245 0.000000
0.056969 0.094587 0.000000
0.057458 0.094930 0.000000
0.057948 0.095272 0.000000
0.058437 0.095615 0.000000
0.058927 0.095957 0.000000
0.059417 0.096300 0.000000
0.059906 0.096642 0.000000
0.060396 0.096985 0.000000
0.060885 0.097327 0.000000
0.061375 0.097670 0.000000
0.061865 0.098012 0.000000
0.062354 0.098355 0.000000
0.062844 0.098697 0.000000
0.063333 0.099040 0.000000
0.063823 0.099382 0.000000
0.064312 0.099725 0.000000
0.064802 0.100067 0.000000
0.065292 0.100410 0.000000
0.065781 0.100752 0.000000
0.066271 0.101095 0.000000
0.066760 0.101437 0.000000
0.067250 0.101780 0.000000
0.067740 0.102122 0.000000
0.068229 0.102465 0.000000
0.068719 0.102807 0.000000
0.069208 0.103150 0.000000
0.069698 0.103492 0.000000
0.070187 0.103835 0.000000
0.070677 0.104177 0.000000
0.071167 0.104520 0.000000
0.071656 0.104862 0.000000
0.072146 0.105205 0.000000
0.072635 0.105547 0.000000
0.073125 0.105890 0.000000
0.073615 0.106232 0.000000
0.074104 0.106575 0.000000
0.074594 0.106917 0.000000
0.075083 0.107260 0.000000
0.075573 0.107602 0.000000
0.076062 0.107945 0.000000
0.076552 0.108287 0.000000
0.077042 0.108630 0.000000
0.077531 0.108972 0.000000
0.078021 0.109315 0.000000
0.078510 0.109658 0.000000
0.043942 0.087469 0.000000
0.035556 0.157037 0.000000
0.044420 0.002920 0.000000
0.077037 0.038519 0.000000
0.002963 0.121481 0.000000
0.077037 0.059259 0.000000
0.002963 0.109630 0.000000
0.002923 0.098139 0.000000
0.077153 0.126913 0.000000
0.002808 0.032596 0.000000
0.077140 0.071061 0.000000
0.002963 0.085926 0.000000
0.002963 0.136296 0.000000
0.077041 0.023701 0.000000
0.056296 0.157037 0.000000
0.032593 0.002963 0.000000
0.077037 0.080000 0.000000
0.002813 0.077135 0.000000
0.077037 0.142222 0.000000
0.017778 0.157037 0.000000
0.062222 0.002963 0.000000
0.076992 0.088722 0.000000
0.002945 0.020743 0.000000
0.017777 0.002962 0.000000
0.002801 0.068434 0.000000
0.002959 0.011851 0.000000
0.065186 0.157038 0.000000
0.002963 0.148148 0.000000
0.077037 0.011852 0.000000
0.076887 0.094740 0.000000
0.077092 0.115875 0.000000
0.002677 0.044265 0.000000
0.077038 0.148148 0.000000
0.002985 0.062165 0.000000
0.077037 0.047407 0.000000
0.011852 0.002963 0.000000
[...]
POINT_DATA 4677
SCALARS UX float 1
LOOKUP_TABLE default
-0.000001
0.000002
0.129942
0.009166
0.016349
0.032664
-0.026570
0.088724
-0.056824
0.166783
-0.000000
-0.000000
-0.000000
-0.000000
-0.000000
-0.000000
-0.000000
-0.000000
-0.000000
-0.000000
-0.000000
-0.000000
-0.000000
0.000000
0.000000
0.000000
0.000000
0.000000
0.000000
0.000000
0.000000
0.000000
0.000000
0.000000
0.000000
-0.000000
0.001592
0.003158
0.004837
0.006515
0.008455
0.010933
0.014743
0.018856
0.025476
0.031350
0.037378
0.042965
0.046927
0.050907
0.054095
0.055891
0.060521
0.064201
0.067854
0.072050
0.076625
0.080614
0.088017
0.098726
0.107210
0.121703
0.131673
0.144393
0.146281
0.141257
0.138900
0.140577
0.142151
0.148969
0.154758
0.160093
0.167616
0.173337
0.173411
0.167168
0.164127
0.153246
0.148844
0.141205
0.139049
0.138820
0.134177
0.135521
0.133957
0.132568
0.130671
0.130078
0.129992
0.125745
0.121468
0.117203
0.112884
0.108429
0.103810
0.098988
0.094183
0.089600
0.084878
0.080342
0.076065
0.071926
0.067972
0.064106
0.060115
0.055996
0.051731
0.047325
0.042792
0.038151
0.033430
0.028657
0.023836
0.018971
0.014090
0.009122
0.009039
0.008854
0.008515
0.007973
0.007183
0.006098
0.004715
0.003128
0.001233
-0.000780
-0.003037
-0.005246
-0.007275
-0.009044
-0.010484
-0.011527
-0.012182
-0.012556
-0.012850
-0.013350
-0.014589
-0.016703
-0.019755
-0.023672
-0.027871
-0.032351
-0.036577
-0.040943
-0.044504
-0.047624
-0.050356
-0.052852
-0.056087
-0.059356
-0.060079
-0.057928
-0.053666
-0.048158
-0.046152
-0.044854
-0.043504
-0.039519
-0.036993
-0.034292
-0.030783
-0.026684
-0.022560
-0.018369
-0.014908
-0.010940
-0.005336
-0.000675
0.014847
0.013350
0.011765
0.009324
0.010297
0.008084
0.005890
0.002391
0.000648
-0.002483
-0.004722
-0.005864
-0.006966
-0.007892
-0.092844
-0.011199
-0.012562
-0.017524
-0.023459
-0.020975
-0.024064
-0.026082
0.034789
0.037133
0.039212
0.041462
0.043208
0.044562
0.046328
0.048620
0.051256
0.052317
0.055678
0.058338
0.061985
0.065966
0.069521
0.065657
0.059739
0.071345
0.076959
0.080069
0.083573
0.086336
0.030895
0.029020
0.026978
0.025604
0.024360
0.023210
0.022151
0.021054
0.021247
0.022043
0.024840
0.029012
0.030864
0.030134
0.028874
0.028050
0.027432
0.025547
0.024664
0.023656
0.022949
0.022174
0.021498
0.020838
0.019440
0.017919
-0.028343
-0.028518
-0.029041
-0.030094
-0.031285
-0.032650
-0.034517
-0.034878
-0.036644
-0.037733
-0.038982
-0.040348
-0.042088
-0.043222
-0.044711
-0.045652
-0.046614
-0.047543
-0.048206
-0.049116
-0.049652
-0.050383
-0.050973
-0.051852
-0.052706
-0.053502
-0.053923
-0.054131
-0.054342
-0.054496
-0.054675
-0.054763
-0.055047
-0.055392
-0.055635
-0.055865
-0.056092
-0.056305
-0.056490
-0.056659
-0.056801
-0.056888
-0.056969
-0.056995
-0.057022
-0.056939
0.093317
0.077725
0.094830
0.096643
0.098003
0.098188
0.099051
0.099868
0.100907
0.101867
0.100766
0.099978
0.101912
0.104303
0.105370
0.107048
0.107660
0.109670
0.111719
0.113834
0.116061
0.116949
0.117725
0.120007
0.121704
0.124115
0.127457
0.129045
0.131281
0.133570
0.135968
0.138162
0.140204
0.142238
0.143688
0.145084
0.146781
0.148441
0.150067
0.151701
0.153335
0.155148
0.156932
0.158785
0.160741
0.162721
0.164809
0.034779
0.064105
0.000021
0.043545
-0.000424
0.068458
-0.007410
-0.009235
0.137931
-0.036620
0.093994
-0.019742
0.009899
0.015681
0.094201
0.000150
0.126884
-0.033996
0.126966
0.038167
0.000042
0.136871
-0.024286
-0.000204
-0.045573
-0.012725
0.108312
0.013544
0.004090
0.135890
0.162604
-0.045362
0.126342
-0.051445
0.053640
-0.000079
0.117028
0.019002
0.000098
-0.055547
0.143252
0.129719
0.071962
0.080532
-0.000080
0.006440
0.027054
0.047344
0.000026
0.125545
0.159420
-0.043797
0.031906
0.150515
-0.042542
-0.058053
-0.038315
0.139783
-0.012193
-0.024765
0.078273
0.099522
0.060995
-0.008776
0.148673
-0.004605
-0.035092
-0.031949
0.047099
0.056037
0.129899
0.000048
-0.000020
0.004260
0.032617
-0.000006
-0.019769
-0.000342
0.099031
0.085025
0.012289
0.007322
-0.008375
-0.000138
-0.000118
0.028662
0.000057
0.125721
-0.000046
-0.000051
0.014016
0.001130
0.014089
0.000162
0.164213
0.032045
-0.055655
-0.058466
0.157580
0.034431
-0.000028
0.038784
0.094732
-0.033672
-0.020765
0.145292
0.084824
0.011400
0.123533
-0.000326
-0.042966
-0.016814
-0.053285
0.124679
0.141802
0.093592
-0.010578
-0.000206
-0.000116
0.121151
0.018950
0.000203
0.165404
-0.051648
0.138174
-0.048509
0.132927
-0.042207
-0.057868
0.141906
0.146266
-0.041697
0.163033
-0.029331
0.115572
-0.014778
-0.010229
0.083711
0.072532
-0.009203
-0.008279
0.064705
-0.006271
0.057255
0.132167
0.050503
-0.002677
0.068047
0.001926
0.038108
0.060184
0.000045
0.076157
-0.028426
0.051765
0.000025
0.000077
0.129230
0.008303
0.021211
0.089432
0.000000
0.042818
0.000036
-0.015561
-0.000421
0.103788
0.011263
0.010735
-0.000034
0.013036
0.005598
0.112743
0.126874
0.033447
0.000050
0.121269
0.125545
0.023855
0.000076
0.013854
0.002474
-0.055959
0.165959
0.161471
-0.055869
-0.056220
0.037029
0.029877
0.153253
-0.059058
0.148258
-0.041870
0.032915
0.030504
0.031565
0.068946
-0.007421
-0.004493
0.141816
-0.042174
0.060252
0.042793
-0.039527
0.000031
0.016644
0.128858
0.016319
0.033435
0.134377
0.003258
0.018011
0.000121
0.162745
-0.054875
0.126812
0.061661
-0.002062
0.054300
0.001974
0.076368
0.013295
0.103446
-0.000587
-0.000173
0.018795
0.112370
0.120646
-0.054436
0.166555
-0.047757
0.165109
0.117114
-0.047794
0.137588
-0.027434
-0.058043
0.136290
0.130384
-0.005487
0.150630
-0.038125
-0.040503
-0.043536
0.081163
0.088368
-0.012272
0.033916
0.000392
0.000151
-0.030542
0.047863
0.043478
0.000093
0.000075
-0.016049
0.124068
0.080850
0.051741
0.088981
0.006709
0.009024
0.123137
0.123364
0.124340
0.068266
-0.026284
0.000053
0.098926
-0.012364
-0.000651
0.008185
0.000055
-0.021138
-0.005428
-0.000122
0.120963
0.023835
0.000142
0.000829
-0.034827
0.032080
0.037486
0.159713
-0.055671
-0.057648
0.169328
-0.055455
0.159567
0.027584
0.040154
0.029388
0.035442
0.036817
-0.000027
0.038990
0.083024
-0.009513
0.077190
0.011791
-0.032990
0.119127
0.121180
-0.000170
0.089844
-0.022688
-0.013711
-0.000604
-0.054021
0.160419
0.123803
0.030971
-0.035902
0.029234
0.000112
0.118687
-0.000448
0.098722
0.117289
0.016452
0.023677
0.000261
0.027408
-0.042923
0.132644
-0.035799
-0.049284
-0.005364
-0.031685
-0.008756
-0.006173
0.022745
0.073489
0.152027
0.065226
-0.003487
0.057520
0.101184
-0.000119
0.125336
0.132026
-0.013287
0.072067
0.000232
0.056213
0.015052
0.051193
0.000016
0.047415
-0.028631
0.080706
0.029051
0.004386
0.000052
0.038195
0.117802
0.012228
-0.009659
-0.000144
0.004806
0.116157
0.107987
-0.000216
0.017297
0.000088
0.064275
0.028678
0.018499
0.116596
0.001916
0.000141
-0.040318
0.138918
-0.043201
0.029759
-0.057915
0.033849
0.040034
0.153745
-0.050782
0.163308
0.026185
0.041231
0.157024
-0.057520
-0.053053
0.156747
0.162634
0.037173
0.031977
0.033764
-0.056170
-0.045821
0.036002
0.031671
0.063717
-0.001821
-0.007061
-0.033252
0.137490
0.077205
-0.032547
-0.041752
0.051957
0.126842
0.021278
0.000056
0.012989
-0.025506
-0.047930
0.037995
0.000357
0.000139
0.003558
0.054048
0.000333
0.160059
0.068815
0.004669
0.009218
0.114471
-0.009830
-0.000564
0.000816
0.028503
0.085821
-0.048996
0.146422
0.115248
-0.039122
-0.004018
-0.017533
-0.006113
0.000289
0.074511
0.023040
-0.001877
0.043196
0.073533
0.000048
-0.039520
0.130193
0.121064
-0.026538
0.132652
0.111140
0.085360
0.051160
0.116740
-0.031208
0.018373
0.047152
-0.000704
0.034008
-0.017678
0.094506
-0.000866
0.077394
0.000044
0.060323
0.103113
0.111940
0.014239
0.008868
-0.009408
0.115547
-0.000304
-0.000011
0.022202
0.023391
0.000208
0.000233
-0.040191
0.040431
0.028778
0.035697
-0.054883
-0.055990
0.157874
0.154571
0.027601
-0.057026
0.031146
0.150084
-0.045934
0.041601
0.159434
0.127304
0.116473
0.094647
-0.044639
-0.051808
0.025091
0.039901
0.160136
0.024638
0.043034
0.034155
0.070294
0.013558
0.000097
0.098154
-0.040693
0.116380
0.139845
0.127168
0.090126
0.021506
0.051236
-0.001139
-0.047654
0.112042
0.000042
0.010372
0.156742
0.098408
0.026199
0.028215
0.028554
-0.027656
0.020043
0.119823
0.077703
-0.001072
0.000212
-0.015476
-0.004778
0.000362
0.025235
0.153964
-0.004157
0.057627
0.023130
-0.030668
0.000199
-0.002739
0.047467
0.068242
0.072244
0.126882
-0.000874
0.043043
0.002100
-0.000065
0.007077
0.116063
0.084552
-0.028727
0.128154
0.114362
-0.041133
0.087353
0.000026
0.120484
-0.010216
-0.018505
-0.038979
0.016783
0.024608
-0.008252
0.064473
0.111625
0.042660
0.005616
-0.000479
0.107675
0.000089
0.020045
0.080962
-0.000981
0.111394
0.056182
0.001892
0.022918
0.033287
0.017499
0.151041
-0.055885
0.040219
-0.046063
-0.050603
0.041404
0.032830
0.026120
0.024839
0.028919
0.032977
-0.043083
0.024546
0.042683
0.044278
-0.001247
-0.036082
-0.022378
-0.056659
0.113793
0.060475
0.156146
0.135740
0.104372
-0.053148
-0.057053
0.148489
0.038034
0.157428
-0.055434
-0.036772
0.151491
0.152063
0.042027
0.038184
0.032263
0.002266
-0.004287
0.127700
0.073515
0.019077
-0.029593
0.000101
-0.030566
0.015415
-0.041346
0.146063
-0.002054
0.120781
-0.023413
0.110724
0.086704
-0.049529
-0.047020
0.042369
0.153754
0.062763
0.112788
0.047271
0.064224
0.024964
0.108003
0.006074
-0.010121
0.055666
0.000066
-0.001386
0.107472
0.003485
-0.037046
0.000120
0.024963
0.000859
0.027734
0.026077
0.043748
-0.000008
-0.024147
-0.013804
-0.036308
0.056311
0.067088
-0.001012
-0.038487
0.015849
0.109155
0.000261
-0.043883
0.074215
0.010630
0.000002
-0.000060
-0.056405
0.019367
0.091577
0.113897
0.155420
0.081152
-0.002180
-0.003353
0.102989
0.079866
0.039265
0.094493
0.000084
0.023323
0.005541
0.112122
0.029229
0.027038
0.147633
0.068087
0.046894
0.000288
-0.002122
0.146859
0.032971
-0.055247
0.124440
0.151640
0.155865
0.023453
0.045801
-0.051820
-0.054914
0.111758
-0.046358
0.041578
0.126067
0.033960
0.026951
0.027982
0.042192
0.035302
0.030496
-0.000547
0.042375
0.153187
0.023758
0.044073
0.149137
-0.057469
-0.033408
-0.055862
0.149351
0.036620
-0.055558
0.118518
-0.029478
0.040037
0.036009
0.112731
0.036502
0.060937
0.071457
-0.001314
-0.035937
0.091338
-0.044139
0.000047
0.085742
0.055190
0.026446
0.003916
0.043470
0.029057
0.000132
-0.051361
-0.054615
0.000289
-0.026879
0.010563
-0.030776
0.016141
0.094355
0.035576
0.078660
-0.004307
0.103493
0.108938
0.031843
0.046507
0.027556
0.001281
0.001385
0.043613
0.004564
-0.028728
0.000032
-0.001195
0.147296
0.052836
-0.042860
-0.039223
0.111153
0.022836
-0.057550
0.068208
0.030463
-0.038197
0.066263
-0.045247
0.060201
0.042598
-0.016583
-0.018460
0.110496
-0.001690
0.022024
0.107603
-0.053403
-0.050345
-0.007064
0.121057
0.123559
-0.002341
-0.032778
0.077303
-0.006969
0.028256
0.090830
0.029442
0.019988
0.032533
0.107745
0.000355
0.002162
0.152617
0.037742
0.029764
0.000210
0.008637
0.109579
0.125291
0.000110
0.040294
0.153553
0.145912
0.045503
-0.054979
0.135430
0.110638
0.150001
-0.056067
0.039639
0.022346
0.024701
0.028062
-0.026777
0.048138
0.032516
-0.048524
0.025557
0.145007
0.150992
-0.057026
0.042294
0.060139
0.119574
0.003372
0.035335
0.000088
0.147809
0.041359
0.145143
0.045581
-0.055010
0.113381
0.021194
0.030081
0.042760
-0.036127
-0.003910
-0.000046
-0.027978
0.011824
0.110671
-0.040283
0.122588
0.105530
-0.004156
0.031432
-0.019428
0.004154
0.072008
-0.049373
-0.050306
0.147727
-0.054299
0.104701
0.010563
-0.019194
0.000275
0.032628
0.058998
0.000356
0.103782
-0.010048
0.002119
0.036576
0.053953
0.027255
-0.045408
0.152611
0.118063
-0.052893
0.042949
0.006261
-0.034243
-0.041473
0.074669
0.089552
0.013389
0.040079
0.098989
0.063261
-0.035367
-0.012849
-0.002259
0.069158
-0.000192
0.083951
0.024342
0.063741
0.000080
0.001026
0.098970
-0.005846
0.000112
0.042043
0.006063
0.081455
0.000269
0.050998
-0.056787
-0.003989
0.024591
-0.028544
0.140570
0.002654
0.002129
-0.001875
0.033087
0.037216
0.030977
0.108645
-0.038672
0.024351
0.136514
0.057963
0.000876
0.128410
0.108730
0.034798
0.038536
0.029669
0.044880
0.028109
0.025943
0.021909
0.143968
0.047909
0.149124
0.023564
0.145767
0.143867
0.038642
0.033248
0.144365
-0.000024
-0.043127
0.021218
0.050854
-0.054017
-0.057592
0.000631
0.145101
0.039240
0.007937
0.041769
-0.055697
-0.051200
-0.027761
0.128419
0.045681
-0.054843
0.047310
-0.047294
0.150274
0.143352
0.036699
0.029096
0.037013
0.042792
0.060700
0.007112
-0.001308
0.081589
-0.000619
0.026651
0.139642
0.121305
-0.049008
0.081872
-0.041372
0.059006
0.036295
0.050462
0.034974
0.068017
-0.051453
-0.015405
0.092217
0.011544
-0.023449
0.043442
0.041776
0.018629
0.004066
0.047358
0.002889
-0.003576
-0.000004
0.001058
0.041187
0.035757
0.000173
0.029400
0.141194
0.055513
-0.001134
-0.027318
0.144305
0.073618
0.099800
0.092671
0.050266
0.119164
0.117979
0.008378
-0.052084
0.077297
0.065142
-0.023473
-0.047720
-0.005318
-0.036774
-0.037455
0.141840
0.001592
-0.052726
-0.006549
-0.000013
0.104303
-0.014056
0.000321
0.105221
-0.054560
0.034506
-0.032116
0.128551
0.004515
0.042483
0.068078
0.026983
0.025047
0.015469
0.086001
0.000746
-0.002440
-0.034219
-0.029483
0.108963
0.000383
0.106329
0.026863
0.024094
0.131979
0.007199
0.128922
-0.056451
-0.055886
0.022411
0.024712
0.106809
0.044252
0.046938
0.030927
-0.000347
0.147900
0.142843
0.050272
-0.053472
0.147711
0.026611
-0.044004
0.039448
0.002877
0.034072
0.146057
0.045444
0.121188
0.040417
-0.045220
0.042104
-0.054148
0.143170
0.142425
0.020051
0.052971
-0.037916
-0.056824
0.049578
0.142416
-0.032643
0.015000
0.108768
0.035107
-0.032702
0.046779
0.041224
0.000752
-0.036523
-0.024680
0.082096
0.131230
0.011828
0.111142
-0.047411
0.115345
0.100977
0.030357
0.004900
-0.002787
0.138958
0.047720
0.016423
0.029445
-0.033910
0.067894
0.001662
-0.053389
0.023764
0.040402
0.000338
-0.000106
0.000558
-0.019591
-0.055946
0.005070
0.036818
0.039471
0.100834
0.008861
0.139477
-0.005683
-0.014160
-0.037836
0.144767
-0.051089
0.062748
0.083679
-0.034675
-0.009780
0.064170
0.100445
-0.009485
-0.030605
-0.003401
0.125261
0.122568
-0.000194
0.001968
0.040433
0.025993
0.146772
0.070111
0.046114
0.034223
0.124841
0.000128
0.089685
0.054676
0.139739
0.051725
0.020199
-0.027389
-0.003622
0.008525
0.105575
0.038466
0.076490
0.057560
0.029354
0.105542
-0.053015
0.025853
0.005128
-0.001210
-0.055134
0.021139
0.043239
0.045231
0.046222
0.048450
0.031562
-0.054100
-0.055349
0.027474
0.139002
0.010252
0.038840
0.052489
-0.043158
0.023512
0.045350
0.114146
0.140310
0.095692
-0.027185
-0.054097
0.033243
0.131790
0.076781
0.050344
0.142340
0.048682
0.043630
0.024838
0.140525
-0.003981
0.003427
0.050938
0.019966
0.102532
-0.049795
-0.046376
0.118514
0.018546
0.055240
-0.030565
0.058363
0.045649
0.048353
0.109519
0.025215
0.006252
0.082776
0.068898
0.125823
-0.045359
-0.000606
0.038947
0.008320
0.124033
0.098268
0.036333
0.117762
-0.003624
-0.016904
0.008292
-0.045701
0.052191
0.135891
0.105238
-0.048418
-0.000554
0.049687
0.078112
-0.053622
0.054992
0.045000
0.015722
0.000169
0.006852
-0.027272
0.135309
0.031686
0.047879
0.096807
-0.009158
0.144067
0.030052
0.114225
0.120927
-0.028970
-0.017907
-0.049501
0.005366
0.039085
0.071640
-0.054902
-0.006000
0.115552
-0.052242
0.001406
0.003680
0.060044
0.000435
0.117224
-0.001241
0.030191
0.028727
0.056552
0.136288
0.100982
0.039079
0.073898
0.133871
0.031853
-0.035731
-0.004795
0.085842
0.020795
0.000081
0.001958
0.056743
0.063955
0.010139
0.014509
0.040970
0.102112
-0.012922
0.064612
-0.034983
0.105499
-0.001823
0.093373
-0.029199
0.032248
0.040739
0.047501
0.103307
0.033151
0.043833
0.145333
0.042055
0.019880
0.018005
0.026055
0.023030
0.025079
-0.055506
0.140476
0.138711
0.032386
0.045255
0.048108
-0.032846
0.045467
-0.039920
0.051723
0.027729
0.096802
0.137677
-0.051731
0.037320
-0.005726
-0.053346
0.114654
0.054655
0.057065
0.142827
0.021227
-0.031734
0.047287
-0.054243
-0.039702
-0.054788
0.049930
-0.057372
0.060282
0.051092
0.053793
0.033411
0.056106
-0.031131
0.002338
0.045962
0.007542
0.026592
-0.036529
0.120583
-0.025918
0.102897
-0.001577
-0.035971
0.112255
0.077960
0.115023
0.043688
-0.040589
0.011457
0.063507
0.131651
-0.014969
0.142592
0.000260
0.098642
0.138771
0.000713
0.042725
-0.050107
0.031150
0.036718
-0.053178
0.052585
-0.002221
0.019988
0.040844
0.045655
0.033979
0.092992
-0.054547
0.052425
-0.004451
0.055510
0.002416
0.037814
0.096635
0.131065
0.058280
-0.042646
-0.007348
0.043279
-0.002589
-0.004499
0.128976
0.112347
0.034242
0.050016
0.077577
0.054257
0.082771
0.012650
0.022139
0.002701
0.002948
-0.033124
0.120677
0.067912
0.055942
-0.002830
0.012159
0.007343
0.054373
0.029034
-0.029398
-0.020350
0.066032
0.005466
0.097345
-0.054052
-0.053649
0.019291
0.038539
0.102398
-0.034369
-0.032234
0.104968
0.048736
-0.023425
-0.000265
-0.027717
0.007006
0.025671
0.034565
0.139119
0.043699
0.023913
0.059019
-0.007604
0.071542
0.040932
0.089448
0.046657
0.062416
0.044065
0.021687
0.135189
0.026559
0.047019
0.030872
0.049907
0.133054
0.128028
0.051412
0.028096
0.111340
0.140850
-0.054887
0.141599
0.035806
0.074475
-0.054958
-0.034556
0.027626
0.036800
0.058877
0.053771
0.136690
0.052417
0.118673
0.004107
-0.047786
0.024232
-0.054161
-0.009077
-0.052582
0.097639
-0.012533
-0.047751
-0.051245
0.115146
0.052659
0.045357
0.036527
0.051849
0.110694
0.004035
0.047118
-0.034929
0.076118
0.123094
0.066981
0.081228
-0.032786
0.008818
0.137405
0.109688
0.066997
0.117612
-0.018253
0.024582
-0.008116
0.024608
0.030326
0.009748
0.001280
0.124298
-0.031859
0.016313
-0.003322
0.022015
0.060925
-0.046651
0.033964
-0.021290
-0.049485
0.105388
0.040015
0.044584
0.003686
0.073990
0.130394
0.051869
0.089659
0.094133
0.031892
0.009847
0.112513
0.000224
-0.039126
0.132864
0.013577
-0.002506
-0.008463
0.039836
0.048681
0.053004
-0.038241
0.062044
0.095332
0.000454
0.053890
-0.051844
0.041197
0.052475
0.058318
0.093697
0.003667
0.005648
0.112824
-0.011183
0.115367
0.108436
0.029868
0.016353
0.064420
0.060738
0.095151
0.026602
-0.000040
0.048230
0.036630
0.005355
-0.004298
-0.028287
-0.029463
0.135748
0.095014
0.045560
-0.015497
-0.001098
0.102192
-0.024815
0.070602
0.100199
0.037050
0.133152
0.057341
0.018757
0.042234
0.039841
0.086540
0.054641
0.025125
0.042898
-0.054198
-0.054261
-0.029951
0.022766
0.027851
0.045888
0.063740
0.048439
0.034307
0.127511
0.026548
0.102461
0.140040
0.049572
0.031861
-0.032984
0.028712
-0.045852
-0.042353
0.071690
0.054854
-0.050097
0.136341
0.132149
0.139892
0.134114
-0.051988
0.006117
-0.053995
0.027831
0.061146
-0.053707
-0.052954
0.114940
0.043520
-0.031694
0.111472
0.038747
-0.036782
0.062821
0.070759
-0.022997
0.102815
0.065700
0.131874
-0.004259
0.004791
0.045726
-0.038884
0.112405
0.114746
0.092078
0.128062
0.135327
0.014715
0.021107
-0.010078
0.030689
0.090056
0.015829
-0.002227
0.129839
-0.000121
0.000665
-0.050977
0.041163
0.052422
-0.042330
-0.016045
-0.012910
0.023049
0.055976
0.040532
0.029626
0.050926
-0.050976
0.039554
0.047201
0.115722
0.092006
0.083825
-0.034814
0.107732
-0.001573
0.120726
-0.053072
0.004779
0.031937
0.078779
0.122987
0.012922
0.054075
0.095794
0.009106
0.130285
0.004416
0.127825
-0.000669
0.136973
0.061465
0.110028
0.058122
0.050247
-0.033587
0.058375
-0.027745
0.048240
-0.025744
-0.020107
0.003648
-0.030745
-0.052798
0.101237
0.099328
-0.030579
-0.005953
0.069585
0.050090
0.129588
0.077515
0.048339
0.038615
0.026429
0.125409
0.108157
0.050067
0.024260
0.020994
0.026411
0.038741
0.060816
-0.030523
0.056227
0.041855
-0.043799
0.043200
0.110530
0.002385
0.046064
0.025280
0.020454
0.135205
0.009935
-0.053959
0.044751
0.057549
0.070657
0.047400
0.018391
0.133072
0.026871
-0.022181
-0.048637
0.029537
0.003615
0.028954
0.067491
-0.048662
0.054199
-0.053644
-0.054085
0.137891
0.131400
0.090714
-0.020725
0.035126
0.032835
0.062296
0.034039
0.064801
0.008557
0.089906
0.097066
-0.053460
-0.030108
0.048744
0.033658
-0.034149
0.109953
0.018502
-0.031064
0.096576
-0.000890
0.106833
-0.040569
0.081050
0.073722
0.107774
0.129484
0.050347
0.033520
-0.017284
-0.049863
0.112336
-0.012487
0.089181
0.057176
0.029696
-0.052659
0.067590
0.065407
0.046021
0.069897
0.001211
0.096504
-0.004874
0.050065
0.041502
0.051396
0.055269
-0.017621
0.060460
-0.004104
-0.047721
0.040061
0.109982
-0.032785
0.034953
0.041678
-0.050099