# vtk DataFile Version 2.0
Test
ASCII
DATASET POLYDATA
POINTS 4677 float
0.000000 0.000000 0.000000
0.080000 0.000000 0.000000
0.080000 0.160000 0.000000
0.000000 0.160000 0.000000
0.036000 0.073072 0.000000
0.044000 0.086928 0.000000
0.024500 0.065566 0.000000
0.055500 0.093560 0.000000
0.001000 0.050000 0.000000
0.079000 0.110000 0.000000
0.002963 0.000000 0.000000
0.005926 0.000000 0.000000
0.008889 0.000000 0.000000
0.011852 0.000000 0.000000
0.014815 0.000000 0.000000
0.017778 0.000000 0.000000
0.020741 0.000000 0.000000
0.023704 0.000000 0.000000
0.026667 0.000000 0.000000
0.029630 0.000000 0.000000
0.032593 0.000000 0.000000
0.035556 0.000000 0.000000
0.038519 0.000000 0.000000
0.041481 0.000000 0.000000
0.044444 0.000000 0.000000
0.047407 0.000000 0.000000
0.050370 0.000000 0.000000
0.053333 0.000000 0.000000
0.056296 0.000000 0.000000
0.059259 0.000000 0.000000
0.062222 0.000000 0.000000
0.065185 0.000000 0.000000
0.068148 0.000000 0.000000
0.071111 0.000000 0.000000
0.074074 0.000000 0.000000
0.077037 0.000000 0.000000
0.080000 0.002963 0.000000
0.080000 0.005926 0.000000
0.080000 0.008889 0.000000
0.080000 0.011852 0.000000
0.080000 0.014815 0.000000
0.080000 0.017778 0.000000
0.080000 0.020741 0.000000
0.080000 0.023704 0.000000
0.080000 0.026667 0.000000
0.080000 0.029630 0.000000
0.080000 0.032593 0.000000
0.080000 0.035556 0.000000
0.080000 0.038519 0.000000
0.080000 0.041481 0.000000
0.080000 0.044444 0.000000
0.080000 0.047407 0.000000
0.080000 0.050370 0.000000
0.080000 0.053333 0.000000
0.080000 0.056296 0.000000
0.080000 0.059259 0.000000
0.080000 0.062222 0.000000
0.080000 0.065185 0.000000
0.080000 0.068148 0.000000
0.080000 0.071111 0.000000
0.080000 0.074074 0.000000
0.080000 0.077037 0.000000
0.080000 0.080000 0.000000
0.080000 0.082963 0.000000
0.080000 0.085926 0.000000
0.080000 0.088889 0.000000
0.080000 0.091852 0.000000
0.080000 0.094815 0.000000
0.080000 0.097778 0.000000
0.080000 0.100741 0.000000
0.080000 0.103704 0.000000
0.080000 0.106667 0.000000
0.080000 0.109630 0.000000
0.080000 0.112593 0.000000
0.080000 0.115556 0.000000
0.080000 0.118519 0.000000
0.080000 0.121481 0.000000
0.080000 0.124444 0.000000
0.080000 0.127407 0.000000
0.080000 0.130370 0.000000
0.080000 0.133333 0.000000
0.080000 0.136296 0.000000
0.080000 0.139259 0.000000
0.080000 0.142222 0.000000
0.080000 0.145185 0.000000
0.080000 0.148148 0.000000
0.080000 0.151111 0.000000
0.080000 0.154074 0.000000
0.080000 0.157037 0.000000
0.077037 0.160000 0.000000
0.074074 0.160000 0.000000
0.071111 0.160000 0.000000
0.068148 0.160000 0.000000
0.065185 0.160000 0.000000
0.062222 0.160000 0.000000
0.059259 0.160000 0.000000
0.056296 0.160000 0.000000
0.053333 0.160000 0.000000
0.050370 0.160000 0.000000
0.047407 0.160000 0.000000
0.044444 0.160000 0.000000
0.041481 0.160000 0.000000
0.038519 0.160000 0.000000
0.035556 0.160000 0.000000
0.032593 0.160000 0.000000
0.029630 0.160000 0.000000
0.026667 0.160000 0.000000
0.023704 0.160000 0.000000
0.020741 0.160000 0.000000
0.017778 0.160000 0.000000
0.014815 0.160000 0.000000
0.011852 0.160000 0.000000
0.008889 0.160000 0.000000
0.005926 0.160000 0.000000
0.002963 0.160000 0.000000
0.000000 0.157037 0.000000
0.000000 0.154074 0.000000
0.000000 0.151111 0.000000
0.000000 0.148148 0.000000
0.000000 0.145185 0.000000
0.000000 0.142222 0.000000
0.000000 0.139259 0.000000
0.000000 0.136296 0.000000
0.000000 0.133333 0.000000
0.000000 0.130370 0.000000
0.000000 0.127407 0.000000
0.000000 0.124444 0.000000
0.000000 0.121481 0.000000
0.000000 0.118519 0.000000
0.000000 0.115556 0.000000
0.000000 0.112593 0.000000
0.000000 0.109630 0.000000
0.000000 0.106667 0.000000
0.000000 0.103704 0.000000
0.000000 0.100741 0.000000
0.000000 0.097778 0.000000
0.000000 0.094815 0.000000
0.000000 0.091852 0.000000
0.000000 0.088889 0.000000
0.000000 0.085926 0.000000
0.000000 0.082963 0.000000
0.000000 0.080000 0.000000
0.000000 0.077037 0.000000
0.000000 0.074074 0.000000
0.000000 0.071111 0.000000
0.000000 0.068148 0.000000
0.000000 0.065185 0.000000
0.000000 0.062222 0.000000
0.000000 0.059259 0.000000
0.000000 0.056296 0.000000
0.000000 0.053333 0.000000
0.000000 0.050370 0.000000
0.000000 0.047407 0.000000
0.000000 0.044444 0.000000
0.000000 0.041481 0.000000
0.000000 0.038519 0.000000
0.000000 0.035556 0.000000
0.000000 0.032593 0.000000
0.000000 0.029630 0.000000
0.000000 0.026667 0.000000
0.000000 0.023704 0.000000
0.000000 0.020741 0.000000
0.000000 0.017778 0.000000
0.000000 0.014815 0.000000
0.000000 0.011852 0.000000
0.000000 0.008889 0.000000
0.000000 0.005926 0.000000
0.000000 0.002963 0.000000
0.035500 0.072746 0.000000
0.035000 0.072419 0.000000
0.034500 0.072093 0.000000
0.034000 0.071767 0.000000
0.033500 0.071440 0.000000
0.033000 0.071114 0.000000
0.032500 0.070788 0.000000
0.032000 0.070461 0.000000
0.031500 0.070135 0.000000
0.031000 0.069809 0.000000
0.030500 0.069482 0.000000
0.030000 0.069156 0.000000
0.029500 0.068829 0.000000
0.029000 0.068503 0.000000
0.028500 0.068177 0.000000
0.028000 0.067850 0.000000
0.027500 0.067524 0.000000
0.027000 0.067198 0.000000
0.026500 0.066871 0.000000
0.026000 0.066545 0.000000
0.025500 0.066219 0.000000
0.025000 0.065892 0.000000
0.044500 0.087216 0.000000
0.045000 0.087505 0.000000
0.045500 0.087793 0.000000
0.046000 0.088081 0.000000
0.046500 0.088370 0.000000
0.047000 0.088658 0.000000
0.047500 0.088946 0.000000
0.048000 0.089235 0.000000
0.048500 0.089523 0.000000
0.049000 0.089811 0.000000
0.049500 0.090100 0.000000
0.050000 0.090388 0.000000
0.050500 0.090677 0.000000
0.051000 0.090965 0.000000
0.051500 0.091253 0.000000
0.052000 0.091542 0.000000
0.052500 0.091830 0.000000
0.053000 0.092118 0.000000
0.053500 0.092407 0.000000
0.054000 0.092695 0.000000
0.054500 0.092983 0.000000
0.055000 0.093272 0.000000
0.043704 0.086415 0.000000
0.043407 0.085902 0.000000
0.043111 0.085388 0.000000
0.042815 0.084875 0.000000
0.042519 0.084362 0.000000
0.042222 0.083849 0.000000
0.041926 0.083336 0.000000
0.041630 0.082823 0.000000
0.041333 0.082309 0.000000
0.041037 0.081796 0.000000
0.040741 0.081283 0.000000
0.040444 0.080770 0.000000
0.040148 0.080257 0.000000
0.039852 0.079743 0.000000
0.039556 0.079230 0.000000
0.039259 0.078717 0.000000
0.038963 0.078204 0.000000
0.038667 0.077691 0.000000
0.038370 0.077177 0.000000
0.038074 0.076664 0.000000
0.037778 0.076151 0.000000
0.037481 0.075638 0.000000
0.037185 0.075125 0.000000
0.036889 0.074612 0.000000
0.036593 0.074098 0.000000
0.036296 0.073585 0.000000
0.024000 0.065235 0.000000
0.023500 0.064904 0.000000
0.023000 0.064572 0.000000
0.022500 0.064241 0.000000
0.022000 0.063910 0.000000
0.021500 0.063579 0.000000
0.021000 0.063248 0.000000
0.020500 0.062916 0.000000
0.020000 0.062585 0.000000
0.019500 0.062254 0.000000
0.019000 0.061923 0.000000
0.018500 0.061592 0.000000
0.018000 0.061261 0.000000
0.017500 0.060929 0.000000
0.017000 0.060598 0.000000
0.016500 0.060267 0.000000
0.016000 0.059936 0.000000
0.015500 0.059605 0.000000
0.015000 0.059273 0.000000
0.014500 0.058942 0.000000
0.014000 0.058611 0.000000
0.013500 0.058280 0.000000
0.013000 0.057949 0.000000
0.012500 0.057617 0.000000
0.012000 0.057286 0.000000
0.011500 0.056955 0.000000
0.011000 0.056624 0.000000
0.010500 0.056293 0.000000
0.010000 0.055961 0.000000
0.009500 0.055630 0.000000
0.009000 0.055299 0.000000
0.008500 0.054968 0.000000
0.008000 0.054637 0.000000
0.007500 0.054305 0.000000
0.007000 0.053974 0.000000
0.006500 0.053643 0.000000
0.006000 0.053312 0.000000
0.005500 0.052981 0.000000
0.005000 0.052650 0.000000
0.004500 0.052318 0.000000
0.004000 0.051987 0.000000
0.003500 0.051656 0.000000
0.003000 0.051325 0.000000
0.002500 0.050994 0.000000
0.002000 0.050662 0.000000
0.001500 0.050331 0.000000
0.055990 0.093902 0.000000
0.056479 0.094245 0.000000
0.056969 0.094587 0.000000
0.057458 0.094930 0.000000
0.057948 0.095272 0.000000
0.058437 0.095615 0.000000
0.058927 0.095957 0.000000
0.059417 0.096300 0.000000
0.059906 0.096642 0.000000
0.060396 0.096985 0.000000
0.060885 0.097327 0.000000
0.061375 0.097670 0.000000
0.061865 0.098012 0.000000
0.062354 0.098355 0.000000
0.062844 0.098697 0.000000
0.063333 0.099040 0.000000
0.063823 0.099382 0.000000
0.064312 0.099725 0.000000
0.064802 0.100067 0.000000
0.065292 0.100410 0.000000
0.065781 0.100752 0.000000
0.066271 0.101095 0.000000
0.066760 0.101437 0.000000
0.067250 0.101780 0.000000
0.067740 0.102122 0.000000
0.068229 0.102465 0.000000
0.068719 0.102807 0.000000
0.069208 0.103150 0.000000
0.069698 0.103492 0.000000
0.070187 0.103835 0.000000
0.070677 0.104177 0.000000
0.071167 0.104520 0.000000
0.071656 0.104862 0.000000
0.072146 0.105205 0.000000
0.072635 0.105547 0.000000
0.073125 0.105890 0.000000
0.073615 0.106232 0.000000
0.074104 0.106575 0.000000
0.074594 0.106917 0.000000
0.075083 0.107260 0.000000
0.075573 0.107602 0.000000
0.076062 0.107945 0.000000
0.076552 0.108287 0.000000
0.077042 0.108630 0.000000
0.077531 0.108972 0.000000
0.078021 0.109315 0.000000
0.078510 0.109658 0.000000
0.043942 0.087469 0.000000
0.035556 0.157037 0.000000
0.044420 0.002920 0.000000
0.077037 0.038519 0.000000
0.002963 0.121481 0.000000
0.077037 0.059259 0.000000
0.002963 0.109630 0.000000
0.002923 0.098139 0.000000
0.077153 0.126913 0.000000
0.002808 0.032596 0.000000
0.077140 0.071061 0.000000
0.002963 0.085926 0.000000
0.002963 0.136296 0.000000
0.077041 0.023701 0.000000
0.056296 0.157037 0.000000
0.032593 0.002963 0.000000
0.077037 0.080000 0.000000
0.002813 0.077135 0.000000
0.077037 0.142222 0.000000
0.017778 0.157037 0.000000
0.062222 0.002963 0.000000
0.076992 0.088722 0.000000
0.002945 0.020743 0.000000
0.017777 0.002962 0.000000
0.002801 0.068434 0.000000
0.002959 0.011851 0.000000
0.065186 0.157038 0.000000
0.002963 0.148148 0.000000
0.077037 0.011852 0.000000
0.076887 0.094740 0.000000
0.077092 0.115875 0.000000
0.002677 0.044265 0.000000
0.077038 0.148148 0.000000
0.002985 0.062165 0.000000
0.077037 0.047407 0.000000
0.011852 0.002963 0.000000
[...]
POINT_DATA 4677
SCALARS UX float 1
LOOKUP_TABLE default
-0.000001
0.000001
-0.049408
-0.128303
-0.054165
-0.077087
-0.075343
-0.055548
-0.088924
-0.037334
-0.000000
-0.000000
-0.000000
-0.000000
-0.000000
-0.000000
-0.000000
-0.000000
-0.000000
-0.000000
-0.000000
-0.000000
-0.000000
0.000000
0.000000
0.000000
0.000000
0.000000
0.000000
0.000000
0.000000
0.000000
0.000000
0.000000
0.000000
-0.000000
0.005101
0.007977
0.010037
0.011574
0.012739
0.013579
0.014153
0.014483
0.014668
0.014743
0.014827
0.014744
0.014565
0.014355
0.013708
0.012700
0.011132
0.009091
0.006883
0.004633
0.002461
0.000612
-0.001261
-0.001572
-0.002251
-0.004658
-0.007651
-0.009262
-0.014346
-0.020215
-0.025530
-0.028045
-0.025829
-0.029970
-0.031786
-0.034080
-0.036462
-0.036142
-0.036811
-0.042417
-0.043020
-0.045222
-0.046923
-0.047082
-0.047976
-0.050117
-0.050615
-0.053366
-0.054808
-0.054949
-0.052095
-0.051743
-0.049756
-0.055612
-0.059931
-0.063531
-0.068199
-0.072776
-0.076019
-0.079617
-0.082791
-0.085687
-0.088443
-0.091123
-0.093750
-0.096330
-0.098865
-0.101344
-0.103764
-0.106139
-0.108477
-0.110786
-0.113082
-0.115353
-0.117580
-0.119774
-0.121940
-0.124074
-0.126208
-0.128220
-0.128060
-0.127834
-0.127553
-0.127214
-0.126804
-0.126279
-0.125635
-0.125244
-0.124629
-0.124013
-0.123328
-0.122662
-0.122151
-0.121171
-0.120193
-0.118947
-0.117663
-0.116337
-0.114950
-0.113521
-0.112123
-0.110713
-0.109481
-0.108600
-0.107177
-0.105070
-0.102515
-0.099661
-0.096639
-0.093866
-0.091478
-0.090021
-0.089236
-0.089121
-0.089253
-0.089990
-0.092458
-0.086051
-0.078859
-0.075372
-0.072673
-0.070146
-0.066849
-0.063247
-0.058670
-0.054074
-0.048474
-0.041973
-0.036125
-0.030002
-0.027238
-0.029562
-0.054582
-0.054939
-0.056828
-0.057651
-0.058753
-0.060512
-0.061320
-0.062786
-0.064800
-0.066312
-0.068667
-0.069029
-0.068237
-0.070004
-0.069624
-0.072459
-0.074740
-0.075416
-0.077192
-0.077490
-0.075869
-0.075529
-0.074901
-0.073443
-0.074041
-0.073052
-0.073017
-0.073120
-0.076095
-0.072761
-0.072892
-0.068230
-0.070180
-0.067796
-0.070873
-0.065014
-0.063618
-0.066914
-0.065357
-0.062626
-0.059409
-0.055515
-0.052854
-0.056141
-0.076570
-0.076194
-0.075466
-0.074433
-0.073493
-0.072617
-0.071771
-0.070928
-0.070102
-0.069298
-0.068500
-0.067702
-0.066907
-0.066108
-0.065299
-0.064481
-0.063641
-0.062788
-0.061908
-0.061025
-0.060091
-0.059113
-0.058028
-0.056891
-0.055704
-0.055224
-0.076251
-0.076556
-0.075062
-0.072921
-0.070853
-0.070462
-0.069355
-0.068172
-0.066964
-0.065853
-0.066435
-0.066977
-0.067500
-0.068078
-0.068753
-0.069506
-0.070254
-0.071038
-0.071747
-0.072472
-0.073191
-0.073948
-0.074753
-0.075402
-0.076302
-0.077074
-0.077558
-0.078120
-0.078612
-0.079097
-0.079396
-0.079911
-0.080543
-0.081303
-0.081803
-0.082500
-0.083172
-0.083692
-0.084099
-0.084547
-0.085138
-0.085854
-0.086317
-0.086885
-0.087540
-0.088205
-0.054529
-0.055067
-0.055403
-0.055848
-0.056247
-0.056583
-0.056924
-0.057249
-0.057563
-0.057860
-0.058102
-0.058320
-0.058202
-0.057891
-0.057661
-0.057300
-0.057166
-0.056143
-0.055299
-0.054600
-0.053546
-0.052473
-0.051417
-0.050404
-0.049339
-0.048399
-0.047334
-0.046260
-0.045261
-0.044264
-0.043248
-0.042310
-0.041584
-0.040962
-0.040413
-0.040012
-0.039812
-0.039382
-0.039058
-0.038830
-0.038679
-0.038552
-0.038407
-0.038255
-0.038076
-0.037898
-0.037621
-0.077174
-0.101322
-0.000431
0.013476
-0.120819
0.003038
-0.117233
-0.111990
-0.051342
-0.068288
-0.004767
-0.106559
-0.123643
0.013317
-0.083003
-0.001577
-0.010498
-0.101048
-0.057455
-0.115329
0.001381
-0.024387
-0.052457
-0.000610
-0.092373
-0.034020
-0.073527
-0.125516
0.010225
-0.034038
-0.044162
-0.079886
-0.059216
-0.087907
0.011465
-0.002038
-0.064787
-0.124073
0.002514
-0.086561
-0.032771
-0.053761
-0.096310
-0.091127
-0.001288
-0.122727
0.013629
-0.110759
0.000852
-0.057899
-0.047738
-0.074189
-0.075637
-0.050051
-0.072575
-0.087228
-0.097879
-0.013503
-0.108983
-0.105014
-0.001794
-0.006099
0.007730
-0.114786
-0.034572
-0.119354
-0.064871
-0.061319
0.013069
-0.106095
-0.055190
0.000240
-0.000799
-0.122194
0.013656
-0.001157
-0.046502
-0.000862
-0.080149
-0.088491
-0.124775
0.012334
-0.026142
-0.004780
-0.019840
-0.119744
0.001886
-0.059611
-0.009311
-0.022817
-0.126025
0.006295
-0.126168
0.003184
-0.038762
-0.077683
-0.087096
-0.087262
-0.036671
-0.077778
-0.001403
0.012274
-0.011247
-0.062757
-0.102995
-0.053037
-0.088492
-0.120233
-0.060241
-0.002334
-0.071541
-0.044069
-0.085563
-0.015375
-0.037289
-0.083173
-0.029350
-0.006598
-0.013647
-0.064497
-0.123954
0.004991
-0.039626
-0.087990
-0.030102
-0.089863
-0.030593
-0.095157
-0.088399
-0.017688
-0.049944
-0.071017
-0.037126
-0.103670
-0.007734
-0.107693
-0.110634
-0.003799
0.000716
-0.113527
-0.116065
0.005513
-0.118512
0.009907
-0.052059
0.012498
-0.120342
-0.098811
-0.121393
0.013614
-0.103710
-0.000093
-0.093722
-0.057205
-0.108435
0.000551
-0.001413
-0.055689
-0.123289
0.013525
-0.085785
-0.001380
-0.113053
0.001118
-0.040268
-0.000556
-0.076854
-0.124291
0.012962
-0.001094
-0.125175
0.011456
-0.070420
-0.059042
-0.117555
0.001635
-0.061599
-0.058254
-0.121924
0.002170
-0.125802
0.008587
-0.088259
-0.038077
-0.038747
-0.084510
-0.086462
-0.076493
-0.077815
-0.035235
-0.087168
-0.053060
-0.071091
-0.073478
-0.074244
-0.073522
-0.000231
-0.108578
-0.114472
-0.054940
-0.068925
-0.103574
-0.112947
-0.093905
0.001039
0.012304
-0.033053
-0.122167
-0.117485
-0.036274
0.010108
-0.123083
0.003105
-0.039805
-0.086181
-0.054591
0.004123
-0.116832
0.008697
-0.118179
-0.093757
-0.120906
-0.077244
-0.001834
-0.003449
-0.123737
-0.070786
-0.064122
-0.087350
-0.039269
-0.080705
-0.045540
-0.012404
-0.087744
-0.054451
-0.101299
-0.085469
-0.023556
-0.018345
-0.111915
-0.036565
-0.067503
-0.068753
-0.075726
-0.006807
-0.009358
-0.105438
0.012468
-0.002461
-0.001944
-0.060171
0.011231
0.011785
-0.000140
-0.000792
-0.104525
-0.057351
-0.091090
-0.108331
-0.085845
-0.119214
-0.119613
-0.061917
-0.063478
-0.058507
-0.098822
-0.055176
-0.002653
-0.080197
-0.037146
-0.001817
0.011608
0.002106
-0.050107
-0.021740
-0.009897
-0.062985
-0.121845
0.004188
0.007170
-0.064807
-0.078532
-0.076797
-0.039500
-0.085636
-0.087248
-0.037372
-0.089399
-0.037587
-0.077064
-0.073882
-0.074861
-0.072723
-0.077646
-0.002727
0.010623
-0.014380
-0.103258
-0.093398
-0.116727
-0.061659
-0.061161
-0.022761
-0.004180
-0.085787
-0.050900
-0.038693
-0.006636
-0.084633
-0.041235
-0.057936
-0.071863
-0.096242
0.012510
-0.001116
-0.064666
-0.003780
-0.080189
-0.067015
-0.118308
-0.121640
0.006027
-0.073875
-0.091197
-0.036884
-0.064238
-0.086495
-0.113529
-0.099107
-0.106981
-0.109778
0.012514
-0.002781
-0.050546
0.001967
-0.115755
0.006699
-0.017772
-0.117670
-0.056128
-0.028149
-0.102147
-0.096458
-0.002654
-0.105918
-0.121567
0.010158
0.000461
-0.110607
-0.055996
-0.091045
0.011340
-0.118600
0.001593
-0.115211
-0.062166
0.012051
-0.031931
-0.015772
0.010997
-0.067710
-0.074145
-0.002066
-0.122663
0.002598
-0.101203
-0.119693
-0.123443
-0.066453
0.008879
0.003625
-0.068001
-0.056237
-0.073234
-0.078406
-0.085529
-0.078786
-0.076045
-0.037341
-0.084056
-0.043541
-0.076147
-0.074618
-0.039189
-0.086218
-0.085468
-0.037736
-0.041074
-0.071983
-0.071613
-0.071217
-0.085318
-0.077366
-0.078641
-0.070036
-0.000139
-0.109789
-0.101391
-0.060482
-0.058705
-0.093407
-0.095402
-0.067778
-0.108056
-0.034452
-0.120041
0.001470
0.010958
-0.050865
-0.085056
-0.115104
-0.114071
0.003702
0.009649
0.005396
-0.003309
-0.046664
-0.098493
-0.115619
-0.116604
-0.065622
-0.034427
-0.004623
0.007574
-0.119512
-0.016167
-0.079856
-0.054287
-0.060278
-0.091837
-0.106966
-0.100954
-0.104903
-0.003988
-0.006575
0.011330
-0.111877
0.010039
-0.095694
-0.001978
-0.065346
-0.057670
-0.062888
-0.099105
-0.026632
-0.019841
-0.088139
0.007619
-0.066197
-0.059689
-0.118969
-0.110542
-0.004350
0.011097
-0.045736
-0.083094
-0.003370
-0.010860
0.002246
-0.103442
-0.077335
-0.071442
-0.117708
0.010705
-0.024444
-0.068238
-0.013531
-0.000214
-0.120537
-0.121344
0.004407
0.005153
-0.065020
-0.076975
-0.072926
-0.071045
-0.084322
-0.084345
-0.040538
-0.039423
-0.077774
-0.084539
-0.079197
-0.038402
-0.088934
-0.076077
-0.050499
-0.025441
-0.059498
-0.015844
-0.072589
-0.082811
-0.073617
-0.067260
-0.043934
-0.074720
-0.072182
0.009119
-0.010103
-0.114654
-0.002579
-0.024602
-0.063949
-0.065809
-0.056889
-0.030714
-0.085951
-0.116272
-0.108093
-0.006368
-0.077330
-0.069367
0.001837
0.009788
-0.046445
-0.080684
-0.117898
-0.119226
-0.070100
-0.054775
0.010054
-0.060842
-0.017704
-0.006950
0.004632
-0.040635
-0.019748
0.006476
-0.071921
-0.053154
-0.102557
0.004073
-0.071564
-0.057409
-0.004634
-0.108674
0.009271
-0.002825
-0.096350
-0.059993
-0.113373
-0.072988
-0.115030
-0.001366
-0.116555
-0.067332
-0.088802
-0.096602
-0.031477
-0.061892
-0.089700
-0.019053
0.000623
-0.028860
-0.099971
-0.045995
-0.063674
-0.114758
0.010020
-0.027824
-0.101048
-0.071885
-0.112814
0.010272
-0.006095
-0.075194
0.002977
-0.119470
-0.091021
-0.008943
-0.069182
-0.105734
0.008772
-0.120971
-0.117336
0.011186
-0.039804
-0.083405
-0.077697
-0.086183
-0.080508
-0.076361
-0.070006
-0.076796
-0.075104
-0.078962
-0.079487
-0.068069
-0.072038
-0.074273
-0.073180
-0.104152
-0.093339
-0.100000
-0.083740
-0.063981
0.001879
-0.040115
-0.021220
-0.011952
-0.082461
-0.084918
-0.038760
-0.071529
-0.042653
-0.084345
-0.062500
-0.037750
-0.039238
-0.073059
-0.078589
-0.068612
-0.111073
-0.099488
-0.061763
-0.095294
-0.111576
-0.094034
-0.002805
-0.055843
0.008551
-0.064023
-0.056848
-0.008178
-0.033685
-0.047693
-0.069128
-0.087868
-0.078315
-0.083686
-0.112613
-0.044527
-0.002770
-0.063957
0.006607
-0.100939
-0.070111
-0.071774
-0.113187
-0.035954
-0.105726
0.000777
-0.011420
-0.075704
0.008893
-0.090584
0.003745
-0.117382
0.007541
-0.118862
-0.077145
-0.074475
-0.107382
-0.096826
-0.098586
-0.060709
0.001805
-0.006197
-0.101095
-0.062041
0.009952
-0.026140
-0.003678
-0.088131
-0.014427
-0.114004
-0.000293
-0.005599
-0.082943
-0.115646
-0.022162
-0.068818
-0.041204
-0.090791
-0.006839
-0.022827
-0.077826
-0.019649
0.008796
-0.083263
0.002787
-0.116884
0.009289
-0.070316
0.009592
-0.118405
-0.040390
-0.098732
-0.110336
0.005518
-0.013362
-0.038419
-0.117084
-0.082120
-0.036787
-0.040964
-0.050074
-0.073512
-0.072337
-0.080241
-0.083334
-0.063886
-0.072073
-0.076996
-0.034089
-0.068505
-0.071443
-0.078381
-0.074395
-0.079471
-0.079678
-0.106182
-0.075425
-0.040161
-0.070436
-0.073875
-0.037772
-0.084681
-0.058438
-0.083911
-0.040216
-0.069723
-0.082667
-0.062957
-0.056784
-0.071320
-0.079420
-0.065292
-0.067139
-0.005847
-0.018306
-0.097969
-0.058628
-0.028713
-0.066908
0.000914
-0.088152
-0.105565
-0.114169
0.007988
-0.070264
-0.068427
0.003284
-0.079615
-0.081627
-0.108526
-0.050185
0.008155
-0.055484
-0.111600
-0.082836
0.007147
-0.023879
-0.009467
-0.077250
-0.070653
-0.116287
-0.110062
-0.078691
-0.104515
-0.110175
-0.075545
-0.112506
-0.054126
-0.004762
-0.007185
-0.037102
0.003062
-0.086487
-0.088421
-0.032633
-0.070359
-0.084537
-0.098344
-0.068388
-0.060624
-0.011820
-0.084556
-0.103214
0.008267
-0.042336
-0.097812
-0.069874
-0.009195
-0.112639
-0.072784
-0.081168
-0.083848
-0.098163
-0.038642
-0.036407
-0.015374
-0.092135
-0.093053
-0.030389
-0.114759
-0.085279
0.007490
0.008343
-0.116730
-0.073841
0.006446
0.008371
-0.042102
-0.114861
-0.115266
0.004353
-0.112921
-0.065949
-0.039374
-0.001614
-0.077814
-0.049073
-0.055331
-0.073583
-0.082466
-0.060212
-0.068573
-0.041426
-0.081992
-0.068590
-0.072549
-0.076047
-0.079371
-0.094338
-0.072403
-0.080089
-0.074633
-0.069659
-0.039352
-0.052997
-0.083906
-0.076291
-0.000097
-0.064640
-0.111758
-0.068047
-0.003911
-0.041231
-0.068835
-0.040375
-0.074807
-0.081327
-0.067470
-0.109492
0.005061
-0.067464
-0.057310
-0.096547
-0.004143
-0.092010
0.006784
-0.037328
-0.085195
-0.041241
-0.072741
-0.011427
-0.111982
-0.043381
-0.108354
-0.095738
-0.082455
-0.076393
-0.043121
-0.080742
-0.074666
-0.110918
-0.095252
0.003626
-0.067466
-0.103514
-0.099396
-0.075808
-0.097058
0.007702
-0.114185
-0.000284
-0.079787
-0.082205
-0.047129
-0.040255
-0.079944
-0.076441
0.008121
-0.057284
-0.062813
-0.021834
-0.085891
-0.111043
0.006041
-0.028741
-0.101136
-0.088989
-0.037428
-0.015685
-0.015268
-0.005999
-0.025449
-0.109715
-0.008859
-0.000424
0.007242
-0.079877
-0.032610
0.002117
-0.112280
-0.108896
-0.090403
0.005384
-0.107776
-0.083316
-0.024136
0.008068
-0.053088
-0.058234
-0.106969
-0.105446
-0.008630
-0.112604
-0.114578
-0.115745
-0.068230
-0.061039
-0.113471
-0.059926
-0.002296
-0.102853
-0.038189
-0.067028
-0.067075
-0.078674
-0.080153
-0.074793
-0.068485
-0.077609
-0.069746
-0.054628
-0.072853
-0.051827
-0.074426
-0.041200
-0.041213
-0.066979
-0.080263
-0.037930
-0.003075
-0.083314
-0.071661
-0.074171
-0.081460
-0.085602
-0.109234
-0.036172
-0.066745
-0.110489
-0.077102
-0.081386
-0.085336
-0.053383
-0.063031
-0.070449
-0.080578
-0.071607
-0.070710
-0.043875
-0.039956
-0.079484
-0.080638
-0.066056
-0.065793
-0.010264
-0.106098
-0.094956
-0.030496
-0.005211
-0.107345
-0.056336
-0.043527
-0.072753
-0.089964
-0.083041
-0.103054
-0.109827
-0.107500
0.004122
-0.021593
-0.081843
-0.036381
-0.083995
-0.108234
-0.046499
0.004318
-0.077270
-0.108030
0.006624
-0.067090
-0.103340
-0.023164
-0.000382
0.006561
-0.112038
-0.113649
0.002384
-0.111347
-0.038707
-0.005027
-0.007194
-0.050965
-0.042411
-0.027266
-0.079010
-0.033605
0.002118
-0.041935
-0.038124
0.006422
-0.078828
-0.092745
-0.017924
-0.093175
-0.081394
-0.012851
-0.057971
-0.087118
-0.040122
-0.101012
-0.083672
-0.095442
-0.001798
-0.074870
-0.096295
0.004800
-0.073482
-0.079889
-0.113112
-0.089820
-0.040868
-0.104276
-0.065787
-0.097964
-0.110550
0.005762
0.006497
-0.087613
-0.096430
-0.010040
-0.055421
-0.052606
-0.068926
0.006019
-0.069715
-0.068500
-0.068860
-0.060342
-0.109762
-0.062393
-0.082503
-0.081350
-0.073443
-0.076792
-0.070690
-0.075829
-0.074007
-0.080668
-0.005495
-0.045769
-0.052991
-0.073030
-0.079819
-0.049972
-0.079187
-0.080789
-0.065737
-0.108043
-0.080291
-0.042247
-0.067028
-0.065643
-0.077908
-0.066289
-0.065411
-0.079685
-0.035410
-0.041519
-0.070766
-0.070407
-0.059974
-0.085718
-0.069405
-0.039271
-0.054081
-0.107972
-0.070642
-0.080302
-0.053036
-0.064597
-0.064708
-0.093443
-0.057155
-0.089876
-0.089343
-0.059271
0.004506
-0.040072
-0.069140
-0.042729
-0.075607
-0.067390
-0.101832
-0.009995
-0.038300
-0.065033
-0.106363
-0.081263
-0.087600
-0.097566
-0.098135
-0.081650
-0.106452
-0.078064
0.002479
-0.002029
0.005397
-0.041847
-0.082693
-0.105088
-0.065751
0.002930
-0.077343
-0.106439
-0.040187
-0.014667
-0.093514
-0.084735
-0.043915
-0.075749
-0.014389
-0.033453
-0.055349
-0.094487
-0.100174
-0.078391
-0.031039
-0.051456
-0.093812
-0.063032
-0.064985
-0.003738
0.006686
-0.111567
0.003084
-0.048348
-0.025359
-0.109662
-0.109297
-0.041796
0.001023
-0.085066
-0.105352
-0.054738
-0.002573
0.006266
-0.050690
-0.011590
0.004843
-0.070456
-0.110361
-0.092814
-0.007812
-0.107833
-0.070757
-0.078869
-0.078233
-0.106256
-0.006725
-0.084805
-0.072472
-0.076603
-0.065541
-0.075257
-0.073482
-0.080961
-0.079588
-0.080388
-0.080295
-0.036042
-0.106935
-0.078749
-0.072228
-0.063057
-0.075252
-0.064592
-0.068316
-0.040954
-0.081829
-0.049337
-0.079151
-0.066622
-0.039242
-0.029784
0.005071
-0.042533
-0.068379
-0.064082
-0.068512
-0.042019
-0.016688
-0.100126
-0.069359
-0.106512
-0.074151
-0.080813
-0.080088
-0.043931
-0.069584
-0.070806
-0.050569
-0.015907
-0.062839
-0.063379
-0.070833
-0.104696
-0.100353
-0.038421
-0.029914
-0.061789
-0.065329
-0.004076
-0.107273
0.002503
-0.043866
-0.076749
-0.065691
-0.045551
-0.011095
-0.032793
-0.103776
-0.078646
-0.007152
-0.040370
-0.039815
-0.079554
-0.092163
-0.064062
-0.091506
-0.078899
-0.104645
-0.109461
0.004241
0.001072
-0.102393
-0.048535
-0.038185
-0.105337
-0.000130
-0.080156
-0.091711
-0.046939
-0.081668
-0.041573
-0.065153
-0.089210
-0.092189
-0.072236
0.004945
-0.078903
-0.095330
-0.083171
-0.092690
-0.044398
-0.077413
0.005425
-0.097893
-0.101886
0.003830
-0.066964
-0.005874
0.002107
-0.067212
-0.065295
-0.035640
-0.075957
-0.111283
-0.034334
-0.057453
-0.108588
-0.086183
-0.013047
-0.086871
0.003795
-0.000431
-0.095234
-0.012454
-0.099735
-0.103870
-0.105405
-0.107815
-0.073572
-0.028992
-0.024868
-0.055638
-0.071464
-0.008345
-0.082732
-0.050746
-0.066990
-0.064486
-0.064544
-0.071972
-0.066877
0.001541
-0.051165
-0.077309
-0.071472
-0.070062
-0.079716
-0.074377
-0.077583
-0.081376
-0.042873
-0.043496
-0.081130
-0.075990
-0.074797
-0.052063
-0.063325
-0.060074
-0.072795
-0.081193
-0.080716
-0.041722
-0.080338
-0.079620
-0.018633
-0.078798
-0.041039
-0.071496
-0.070244
-0.043967
-0.104476
-0.088190
0.003597
-0.079108
-0.083368
-0.079561
-0.065073
-0.083866
-0.019182
-0.067529
-0.068669
-0.081223
-0.020762
-0.049820
-0.090746
-0.062483
-0.098613
-0.102530
-0.057286
-0.063881
-0.087576
-0.042518
-0.006130
-0.084045
-0.043737
-0.090975
-0.046070
-0.105268
-0.081569
-0.101740
-0.099360
-0.040731
-0.025954
-0.048974
0.000938
-0.076035
-0.044607
0.004091
-0.108204
-0.079255
-0.065858
-0.106704
-0.080345
-0.064273
-0.007816
-0.071929
-0.064269
-0.002230
0.000721
-0.082415
-0.079612
-0.063053
-0.089730
-0.072220
0.005000
-0.079766
-0.038848
-0.040059
-0.102067
-0.061685
-0.014286
-0.109220
-0.091270
-0.012909
-0.059753
-0.069198
-0.105947
-0.107053
-0.036812
-0.009483
-0.088119
0.002165
0.000984
-0.096855
-0.092274
-0.053309
-0.045098
-0.097002
-0.064812
-0.009394
-0.104326
-0.103178
-0.017566
-0.104667
-0.049322
-0.038153
-0.027726
0.002909
-0.077804
-0.078294
-0.078378
-0.103521
-0.064473
-0.072874
-0.085069
-0.086160
-0.072883
-0.004605
-0.044957
-0.002314
-0.048532
-0.100996
-0.078888
-0.065753
-0.053244
-0.063019
-0.068625
-0.066973
-0.016262
-0.032776
-0.078072
-0.084585
-0.062027
-0.022335
-0.076624
-0.073390
-0.042829
-0.080841
-0.075448
-0.081933
-0.074061
-0.038475
-0.042149
-0.063271
-0.081898
-0.042767
-0.044200
-0.080370
-0.046562
-0.080492
-0.093394
-0.081805
-0.055038
-0.065873
-0.065472
-0.064718
-0.072432
-0.043747
-0.063417
-0.039456
0.005406
-0.078302
-0.076254
-0.078691
-0.021460
-0.077665
-0.078755
-0.090576
-0.068652
-0.075234
-0.067541
-0.066606
-0.006499
-0.080668
-0.022023
-0.069615
-0.089931
-0.061245
-0.055286
-0.041209
-0.062618
-0.035559
-0.088389
-0.084355
0.000150
-0.050773
-0.044877
-0.096791
-0.046929
-0.030473
-0.101441
-0.088805
-0.077870
-0.064434
-0.099015
0.003784
-0.044889
-0.050968
-0.102705
-0.010190
-0.074142
-0.026808
-0.077137
-0.102835
-0.088480
-0.078030
-0.072703
-0.062782
-0.061328
0.003119
-0.093096
-0.040496
-0.061866
-0.083959
-0.080088
-0.082111
-0.101493
-0.046488
-0.089098
-0.059094
-0.042029
-0.101605
-0.007952
-0.015050
-0.000313
-0.106827
-0.104783
-0.082794
-0.099363
-0.077816
0.002434
-0.073255
-0.075727
-0.105012
-0.013963
-0.023537
-0.081336
-0.094299
-0.097419
-0.044985
-0.018604
-0.066122
-0.042136
-0.102738
0.001849
-0.032408
-0.062801
-0.042584
-0.000102
-0.000665
-0.009001
-0.103481
0.000551
-0.012023
-0.048203
-0.048169
-0.041534
-0.078600
-0.105816
-0.089375
-0.004512
-0.073796
-0.044962
-0.039364
-0.074596
-0.064079
-0.055518
-0.070086
-0.071086
-0.062913
-0.078885
-0.085814
-0.063379
-0.080241
-0.077306
-0.080860
-0.078974
-0.087016
-0.075043
-0.067666
-0.075979
-0.065727
-0.074823
-0.081359
-0.042476
-0.081804
-0.036032
-0.047953
-0.062054
-0.064685
-0.052488
-0.082394
-0.065449
-0.081768
-0.094831
-0.062821
-0.072572
-0.045473
-0.044165
-0.045871
-0.045134
-0.078805
0.006650
-0.077783
-0.065957
-0.064713
-0.077980
-0.077820
-0.047528
-0.010525
-0.050307
-0.068241
-0.101176
-0.056538
-0.037560
-0.043789
-0.086410
-0.044083
-0.096671
-0.054110
-0.010617
-0.001785
-0.103055
-0.080932
-0.048018
-0.048860
-0.079845
-0.043140
-0.046679
-0.099802
-0.100969
-0.087552
-0.100583
-0.041733
-0.000880
-0.006723
-0.047122
-0.000970
0.002416
-0.073564
-0.061395
-0.060677
-0.080026
-0.022338
-0.017197
-0.076229
-0.028075
-0.003676
-0.001387
-0.019063
-0.077660
-0.104189
-0.106412
-0.064551
-0.080750
-0.086832
-0.083112
-0.044091
-0.087804
-0.046373
-0.078411
-0.091748
-0.063064
-0.042367
-0.060476