# vtk DataFile Version 2.0
Test
ASCII
DATASET POLYDATA
POINTS 4677 float
0.000000 0.000000 0.000000
0.080000 0.000000 0.000000
0.080000 0.160000 0.000000
0.000000 0.160000 0.000000
0.036000 0.073072 0.000000
0.044000 0.086928 0.000000
0.024500 0.065566 0.000000
0.055500 0.093560 0.000000
0.001000 0.050000 0.000000
0.079000 0.110000 0.000000
0.002963 0.000000 0.000000
0.005926 0.000000 0.000000
0.008889 0.000000 0.000000
0.011852 0.000000 0.000000
0.014815 0.000000 0.000000
0.017778 0.000000 0.000000
0.020741 0.000000 0.000000
0.023704 0.000000 0.000000
0.026667 0.000000 0.000000
0.029630 0.000000 0.000000
0.032593 0.000000 0.000000
0.035556 0.000000 0.000000
0.038519 0.000000 0.000000
0.041481 0.000000 0.000000
0.044444 0.000000 0.000000
0.047407 0.000000 0.000000
0.050370 0.000000 0.000000
0.053333 0.000000 0.000000
0.056296 0.000000 0.000000
0.059259 0.000000 0.000000
0.062222 0.000000 0.000000
0.065185 0.000000 0.000000
0.068148 0.000000 0.000000
0.071111 0.000000 0.000000
0.074074 0.000000 0.000000
0.077037 0.000000 0.000000
0.080000 0.002963 0.000000
0.080000 0.005926 0.000000
0.080000 0.008889 0.000000
0.080000 0.011852 0.000000
0.080000 0.014815 0.000000
0.080000 0.017778 0.000000
0.080000 0.020741 0.000000
0.080000 0.023704 0.000000
0.080000 0.026667 0.000000
0.080000 0.029630 0.000000
0.080000 0.032593 0.000000
0.080000 0.035556 0.000000
0.080000 0.038519 0.000000
0.080000 0.041481 0.000000
0.080000 0.044444 0.000000
0.080000 0.047407 0.000000
0.080000 0.050370 0.000000
0.080000 0.053333 0.000000
0.080000 0.056296 0.000000
0.080000 0.059259 0.000000
0.080000 0.062222 0.000000
0.080000 0.065185 0.000000
0.080000 0.068148 0.000000
0.080000 0.071111 0.000000
0.080000 0.074074 0.000000
0.080000 0.077037 0.000000
0.080000 0.080000 0.000000
0.080000 0.082963 0.000000
0.080000 0.085926 0.000000
0.080000 0.088889 0.000000
0.080000 0.091852 0.000000
0.080000 0.094815 0.000000
0.080000 0.097778 0.000000
0.080000 0.100741 0.000000
0.080000 0.103704 0.000000
0.080000 0.106667 0.000000
0.080000 0.109630 0.000000
0.080000 0.112593 0.000000
0.080000 0.115556 0.000000
0.080000 0.118519 0.000000
0.080000 0.121481 0.000000
0.080000 0.124444 0.000000
0.080000 0.127407 0.000000
0.080000 0.130370 0.000000
0.080000 0.133333 0.000000
0.080000 0.136296 0.000000
0.080000 0.139259 0.000000
0.080000 0.142222 0.000000
0.080000 0.145185 0.000000
0.080000 0.148148 0.000000
0.080000 0.151111 0.000000
0.080000 0.154074 0.000000
0.080000 0.157037 0.000000
0.077037 0.160000 0.000000
0.074074 0.160000 0.000000
0.071111 0.160000 0.000000
0.068148 0.160000 0.000000
0.065185 0.160000 0.000000
0.062222 0.160000 0.000000
0.059259 0.160000 0.000000
0.056296 0.160000 0.000000
0.053333 0.160000 0.000000
0.050370 0.160000 0.000000
0.047407 0.160000 0.000000
0.044444 0.160000 0.000000
0.041481 0.160000 0.000000
0.038519 0.160000 0.000000
0.035556 0.160000 0.000000
0.032593 0.160000 0.000000
0.029630 0.160000 0.000000
0.026667 0.160000 0.000000
0.023704 0.160000 0.000000
0.020741 0.160000 0.000000
0.017778 0.160000 0.000000
0.014815 0.160000 0.000000
0.011852 0.160000 0.000000
0.008889 0.160000 0.000000
0.005926 0.160000 0.000000
0.002963 0.160000 0.000000
0.000000 0.157037 0.000000
0.000000 0.154074 0.000000
0.000000 0.151111 0.000000
0.000000 0.148148 0.000000
0.000000 0.145185 0.000000
0.000000 0.142222 0.000000
0.000000 0.139259 0.000000
0.000000 0.136296 0.000000
0.000000 0.133333 0.000000
0.000000 0.130370 0.000000
0.000000 0.127407 0.000000
0.000000 0.124444 0.000000
0.000000 0.121481 0.000000
0.000000 0.118519 0.000000
0.000000 0.115556 0.000000
0.000000 0.112593 0.000000
0.000000 0.109630 0.000000
0.000000 0.106667 0.000000
0.000000 0.103704 0.000000
0.000000 0.100741 0.000000
0.000000 0.097778 0.000000
0.000000 0.094815 0.000000
0.000000 0.091852 0.000000
0.000000 0.088889 0.000000
0.000000 0.085926 0.000000
0.000000 0.082963 0.000000
0.000000 0.080000 0.000000
0.000000 0.077037 0.000000
0.000000 0.074074 0.000000
0.000000 0.071111 0.000000
0.000000 0.068148 0.000000
0.000000 0.065185 0.000000
0.000000 0.062222 0.000000
0.000000 0.059259 0.000000
0.000000 0.056296 0.000000
0.000000 0.053333 0.000000
0.000000 0.050370 0.000000
0.000000 0.047407 0.000000
0.000000 0.044444 0.000000
0.000000 0.041481 0.000000
0.000000 0.038519 0.000000
0.000000 0.035556 0.000000
0.000000 0.032593 0.000000
0.000000 0.029630 0.000000
0.000000 0.026667 0.000000
0.000000 0.023704 0.000000
0.000000 0.020741 0.000000
0.000000 0.017778 0.000000
0.000000 0.014815 0.000000
0.000000 0.011852 0.000000
0.000000 0.008889 0.000000
0.000000 0.005926 0.000000
0.000000 0.002963 0.000000
0.035500 0.072746 0.000000
0.035000 0.072419 0.000000
0.034500 0.072093 0.000000
0.034000 0.071767 0.000000
0.033500 0.071440 0.000000
0.033000 0.071114 0.000000
0.032500 0.070788 0.000000
0.032000 0.070461 0.000000
0.031500 0.070135 0.000000
0.031000 0.069809 0.000000
0.030500 0.069482 0.000000
0.030000 0.069156 0.000000
0.029500 0.068829 0.000000
0.029000 0.068503 0.000000
0.028500 0.068177 0.000000
0.028000 0.067850 0.000000
0.027500 0.067524 0.000000
0.027000 0.067198 0.000000
0.026500 0.066871 0.000000
0.026000 0.066545 0.000000
0.025500 0.066219 0.000000
0.025000 0.065892 0.000000
0.044500 0.087216 0.000000
0.045000 0.087505 0.000000
0.045500 0.087793 0.000000
0.046000 0.088081 0.000000
0.046500 0.088370 0.000000
0.047000 0.088658 0.000000
0.047500 0.088946 0.000000
0.048000 0.089235 0.000000
0.048500 0.089523 0.000000
0.049000 0.089811 0.000000
0.049500 0.090100 0.000000
0.050000 0.090388 0.000000
0.050500 0.090677 0.000000
0.051000 0.090965 0.000000
0.051500 0.091253 0.000000
0.052000 0.091542 0.000000
0.052500 0.091830 0.000000
0.053000 0.092118 0.000000
0.053500 0.092407 0.000000
0.054000 0.092695 0.000000
0.054500 0.092983 0.000000
0.055000 0.093272 0.000000
0.043704 0.086415 0.000000
0.043407 0.085902 0.000000
0.043111 0.085388 0.000000
0.042815 0.084875 0.000000
0.042519 0.084362 0.000000
0.042222 0.083849 0.000000
0.041926 0.083336 0.000000
0.041630 0.082823 0.000000
0.041333 0.082309 0.000000
0.041037 0.081796 0.000000
0.040741 0.081283 0.000000
0.040444 0.080770 0.000000
0.040148 0.080257 0.000000
0.039852 0.079743 0.000000
0.039556 0.079230 0.000000
0.039259 0.078717 0.000000
0.038963 0.078204 0.000000
0.038667 0.077691 0.000000
0.038370 0.077177 0.000000
0.038074 0.076664 0.000000
0.037778 0.076151 0.000000
0.037481 0.075638 0.000000
0.037185 0.075125 0.000000
0.036889 0.074612 0.000000
0.036593 0.074098 0.000000
0.036296 0.073585 0.000000
0.024000 0.065235 0.000000
0.023500 0.064904 0.000000
0.023000 0.064572 0.000000
0.022500 0.064241 0.000000
0.022000 0.063910 0.000000
0.021500 0.063579 0.000000
0.021000 0.063248 0.000000
0.020500 0.062916 0.000000
0.020000 0.062585 0.000000
0.019500 0.062254 0.000000
0.019000 0.061923 0.000000
0.018500 0.061592 0.000000
0.018000 0.061261 0.000000
0.017500 0.060929 0.000000
0.017000 0.060598 0.000000
0.016500 0.060267 0.000000
0.016000 0.059936 0.000000
0.015500 0.059605 0.000000
0.015000 0.059273 0.000000
0.014500 0.058942 0.000000
0.014000 0.058611 0.000000
0.013500 0.058280 0.000000
0.013000 0.057949 0.000000
0.012500 0.057617 0.000000
0.012000 0.057286 0.000000
0.011500 0.056955 0.000000
0.011000 0.056624 0.000000
0.010500 0.056293 0.000000
0.010000 0.055961 0.000000
0.009500 0.055630 0.000000
0.009000 0.055299 0.000000
0.008500 0.054968 0.000000
0.008000 0.054637 0.000000
0.007500 0.054305 0.000000
0.007000 0.053974 0.000000
0.006500 0.053643 0.000000
0.006000 0.053312 0.000000
0.005500 0.052981 0.000000
0.005000 0.052650 0.000000
0.004500 0.052318 0.000000
0.004000 0.051987 0.000000
0.003500 0.051656 0.000000
0.003000 0.051325 0.000000
0.002500 0.050994 0.000000
0.002000 0.050662 0.000000
0.001500 0.050331 0.000000
0.055990 0.093902 0.000000
0.056479 0.094245 0.000000
0.056969 0.094587 0.000000
0.057458 0.094930 0.000000
0.057948 0.095272 0.000000
0.058437 0.095615 0.000000
0.058927 0.095957 0.000000
0.059417 0.096300 0.000000
0.059906 0.096642 0.000000
0.060396 0.096985 0.000000
0.060885 0.097327 0.000000
0.061375 0.097670 0.000000
0.061865 0.098012 0.000000
0.062354 0.098355 0.000000
0.062844 0.098697 0.000000
0.063333 0.099040 0.000000
0.063823 0.099382 0.000000
0.064312 0.099725 0.000000
0.064802 0.100067 0.000000
0.065292 0.100410 0.000000
0.065781 0.100752 0.000000
0.066271 0.101095 0.000000
0.066760 0.101437 0.000000
0.067250 0.101780 0.000000
0.067740 0.102122 0.000000
0.068229 0.102465 0.000000
0.068719 0.102807 0.000000
0.069208 0.103150 0.000000
0.069698 0.103492 0.000000
0.070187 0.103835 0.000000
0.070677 0.104177 0.000000
0.071167 0.104520 0.000000
0.071656 0.104862 0.000000
0.072146 0.105205 0.000000
0.072635 0.105547 0.000000
0.073125 0.105890 0.000000
0.073615 0.106232 0.000000
0.074104 0.106575 0.000000
0.074594 0.106917 0.000000
0.075083 0.107260 0.000000
0.075573 0.107602 0.000000
0.076062 0.107945 0.000000
0.076552 0.108287 0.000000
0.077042 0.108630 0.000000
0.077531 0.108972 0.000000
0.078021 0.109315 0.000000
0.078510 0.109658 0.000000
0.043942 0.087469 0.000000
0.035556 0.157037 0.000000
0.044420 0.002920 0.000000
0.077037 0.038519 0.000000
0.002963 0.121481 0.000000
0.077037 0.059259 0.000000
0.002963 0.109630 0.000000
0.002923 0.098139 0.000000
0.077153 0.126913 0.000000
0.002808 0.032596 0.000000
0.077140 0.071061 0.000000
0.002963 0.085926 0.000000
0.002963 0.136296 0.000000
0.077041 0.023701 0.000000
0.056296 0.157037 0.000000
0.032593 0.002963 0.000000
0.077037 0.080000 0.000000
0.002813 0.077135 0.000000
0.077037 0.142222 0.000000
0.017778 0.157037 0.000000
0.062222 0.002963 0.000000
0.076992 0.088722 0.000000
0.002945 0.020743 0.000000
0.017777 0.002962 0.000000
0.002801 0.068434 0.000000
0.002959 0.011851 0.000000
0.065186 0.157038 0.000000
0.002963 0.148148 0.000000
0.077037 0.011852 0.000000
0.076887 0.094740 0.000000
0.077092 0.115875 0.000000
0.002677 0.044265 0.000000
0.077038 0.148148 0.000000
0.002985 0.062165 0.000000
0.077037 0.047407 0.000000
0.011852 0.002963 0.000000
[...]
POINT_DATA 4677
SCALARS UX float 1
LOOKUP_TABLE default
-0.000001
0.000001
-0.087835
-0.190120
-0.080139
-0.111199
-0.102349
-0.082860
-0.097047
-0.082184
-0.000000
-0.000000
-0.000000
-0.000000
-0.000000
-0.000000
-0.000000
-0.000000
-0.000000
-0.000000
-0.000000
-0.000000
-0.000000
0.000000
0.000000
0.000000
0.000000
0.000000
0.000000
0.000000
0.000000
0.000000
0.000000
0.000000
0.000000
-0.000000
0.004137
0.006558
0.008293
0.009827
0.011219
0.012450
0.013372
0.013960
0.014229
0.014161
0.014147
0.013350
0.012388
0.011403
0.009562
0.008339
0.005530
0.001987
-0.001704
-0.006545
-0.011777
-0.014795
-0.018444
-0.023072
-0.028838
-0.029166
-0.032802
-0.042167
-0.047151
-0.052501
-0.058681
-0.063795
-0.069421
-0.073105
-0.077924
-0.079403
-0.081008
-0.082297
-0.083979
-0.081294
-0.079932
-0.079468
-0.075385
-0.074363
-0.070046
-0.065964
-0.070777
-0.076912
-0.082942
-0.087266
-0.086009
-0.086132
-0.087440
-0.088433
-0.089939
-0.093191
-0.097007
-0.101157
-0.104882
-0.108048
-0.110231
-0.114264
-0.119190
-0.124010
-0.127953
-0.133998
-0.139137
-0.146457
-0.159280
-0.165502
-0.168076
-0.170062
-0.172914
-0.175027
-0.177476
-0.180412
-0.183234
-0.185731
-0.187455
-0.191126
-0.191626
-0.192018
-0.191438
-0.191821
-0.191869
-0.190361
-0.188805
-0.187286
-0.185346
-0.184716
-0.182772
-0.180628
-0.177875
-0.175901
-0.173574
-0.170277
-0.166697
-0.162518
-0.158821
-0.155077
-0.154263
-0.151146
-0.150333
-0.148517
-0.148441
-0.145940
-0.141716
-0.136982
-0.133841
-0.127905
-0.121106
-0.115585
-0.110964
-0.106172
-0.101584
-0.097902
-0.095277
-0.092537
-0.088933
-0.084311
-0.080784
-0.076449
-0.071935
-0.067406
-0.060513
-0.056848
-0.053007
-0.047323
-0.041535
-0.042361
-0.033277
-0.021654
-0.080041
-0.075472
-0.077530
-0.080008
-0.082411
-0.081603
-0.085265
-0.088525
-0.089677
-0.081642
-0.084150
-0.086643
-0.085315
-0.091501
-0.092173
-0.093286
-0.097188
-0.100048
-0.099283
-0.100351
-0.100348
-0.100811
-0.109507
-0.109370
-0.108021
-0.106682
-0.105152
-0.102587
-0.103957
-0.102381
-0.101143
-0.099934
-0.099985
-0.100582
-0.102481
-0.092815
-0.095253
-0.092599
-0.090845
-0.089743
-0.090735
-0.085870
-0.085387
-0.082691
-0.109049
-0.107142
-0.105435
-0.103940
-0.102646
-0.101508
-0.100512
-0.099622
-0.098809
-0.098066
-0.097362
-0.096679
-0.096028
-0.095407
-0.094783
-0.094186
-0.093542
-0.092926
-0.092272
-0.091578
-0.090700
-0.089728
-0.088551
-0.087212
-0.085407
-0.083159
-0.102916
-0.102863
-0.102758
-0.102694
-0.102645
-0.102592
-0.102500
-0.102470
-0.102250
-0.102157
-0.102051
-0.101913
-0.101743
-0.101583
-0.101424
-0.101353
-0.101227
-0.100957
-0.100785
-0.100632
-0.100478
-0.100357
-0.100222
-0.100080
-0.099881
-0.099745
-0.099638
-0.099452
-0.099236
-0.099004
-0.098763
-0.098488
-0.098219
-0.097927
-0.097669
-0.097371
-0.097121
-0.096846
-0.096624
-0.096554
-0.096500
-0.096442
-0.096431
-0.096491
-0.096505
-0.096905
-0.082946
-0.083635
-0.083228
-0.083119
-0.083864
-0.084353
-0.084502
-0.084318
-0.084462
-0.084424
-0.084462
-0.084545
-0.084853
-0.085041
-0.085250
-0.085467
-0.085670
-0.085911
-0.086083
-0.086279
-0.086611
-0.086864
-0.087099
-0.087305
-0.087478
-0.087635
-0.087792
-0.087855
-0.087814
-0.087787
-0.087688
-0.087511
-0.087308
-0.087062
-0.086798
-0.086480
-0.086132
-0.085783
-0.085475
-0.085060
-0.084485
-0.084124
-0.083704
-0.083353
-0.083015
-0.082739
-0.082427
-0.110903
-0.153106
0.000230
0.011868
-0.177811
-0.008705
-0.167904
-0.153663
-0.083961
-0.071276
-0.026485
-0.144963
-0.186579
0.012841
-0.112569
0.000581
-0.037813
-0.137296
-0.084771
-0.175920
0.000347
-0.055504
-0.051479
-0.000380
-0.126247
-0.036224
-0.103779
-0.189665
0.007885
-0.066847
-0.089065
-0.089298
-0.094040
-0.113881
0.007459
-0.003028
-0.096457
-0.187026
0.001080
-0.108355
-0.076060
-0.075661
-0.139986
-0.126130
0.000290
-0.183784
0.013455
-0.170767
0.000227
-0.090858
-0.087751
-0.082737
-0.108684
-0.086468
-0.078179
-0.105716
-0.134925
-0.044744
-0.149275
-0.142502
-0.018997
-0.033171
0.001056
-0.160349
-0.081685
-0.173875
-0.066689
-0.061091
0.010469
-0.164167
-0.070931
0.000137
0.000323
-0.181962
0.013243
0.000450
-0.045858
-0.000448
-0.109548
-0.120906
-0.190245
0.010821
-0.027642
-0.004191
-0.016408
-0.181804
0.000641
-0.091922
-0.006723
-0.007811
-0.189530
0.003943
-0.189277
0.001467
-0.083769
-0.112208
-0.095426
-0.098609
-0.081716
-0.111633
0.000448
0.011023
-0.038039
-0.062296
-0.139311
-0.092469
-0.123513
-0.181156
-0.082487
-0.000321
-0.077440
-0.039682
-0.109369
-0.043596
-0.082735
-0.115779
-0.028175
-0.007053
-0.013439
-0.098999
-0.187592
0.002243
-0.085804
-0.093254
-0.070964
-0.120269
-0.060652
-0.131268
-0.097541
-0.049347
-0.084998
-0.075744
-0.081876
-0.141785
-0.034896
-0.146823
-0.151545
-0.022045
-0.013616
-0.156976
-0.163995
-0.003603
-0.171391
0.004822
-0.078570
0.008889
-0.175841
-0.145906
-0.180004
0.012631
-0.156852
0.000154
-0.132232
-0.056459
-0.168154
0.000174
0.000540
-0.077618
-0.185431
0.013338
-0.118134
0.000441
-0.173668
0.000277
-0.041542
-0.000821
-0.106857
-0.188329
0.012048
-0.001445
-0.190309
0.009439
-0.100086
-0.089876
-0.178677
0.000454
-0.093318
-0.092623
-0.184992
0.000852
-0.189791
0.006140
-0.095980
-0.083099
-0.083687
-0.104065
-0.095670
-0.109696
-0.110191
-0.081241
-0.101815
-0.093135
-0.075296
-0.109002
-0.104839
-0.104184
-0.014916
-0.148002
-0.161952
-0.097679
-0.074216
-0.156109
-0.174570
-0.129330
0.000464
0.012128
-0.062534
-0.186176
-0.179816
-0.073865
0.007587
-0.187806
0.001034
-0.084906
-0.094603
-0.089883
-0.005986
-0.168607
0.003127
-0.173131
-0.132835
-0.183006
-0.109440
-0.002341
-0.003481
-0.188131
-0.103232
-0.097892
-0.094918
-0.084610
-0.089689
-0.091998
-0.039785
-0.117150
-0.093131
-0.136197
-0.100599
-0.053930
-0.048038
-0.154705
-0.082838
-0.068184
-0.070725
-0.084154
-0.026427
-0.033477
-0.142623
0.011698
0.000685
0.000530
-0.056882
0.007422
0.009257
0.000383
0.000411
-0.141065
-0.085248
-0.127141
-0.168956
-0.120843
-0.177215
-0.178672
-0.095583
-0.100296
-0.084507
-0.145584
-0.050962
0.000539
-0.111991
-0.033786
-0.000800
0.010281
0.000606
-0.045537
-0.020587
-0.009563
-0.096750
-0.185712
0.001686
0.004045
-0.064761
-0.112506
-0.110639
-0.084580
-0.094973
-0.097282
-0.082671
-0.095992
-0.082599
-0.108640
-0.108168
-0.105052
-0.109278
-0.111116
0.000580
0.008507
-0.036426
-0.139643
-0.132783
-0.174927
-0.060364
-0.093560
-0.051299
-0.000224
-0.122622
-0.045157
-0.033688
-0.008032
-0.093356
-0.087017
-0.097393
-0.100002
-0.131798
0.012232
0.000524
-0.106979
-0.002778
-0.114745
-0.107558
-0.178616
-0.185624
0.002779
-0.102547
-0.125053
-0.067505
-0.063829
-0.113550
-0.159298
-0.134446
-0.145233
-0.149973
0.012568
-0.020186
-0.093031
-0.010412
-0.166086
-0.000509
-0.045885
-0.171174
-0.087085
-0.058012
-0.137556
-0.139559
0.000665
-0.163160
-0.184695
0.005519
0.000401
-0.172159
-0.053223
-0.128163
0.010844
-0.175709
0.000525
-0.177242
-0.100858
0.011392
-0.028302
-0.016796
0.009043
-0.102268
-0.106341
-0.002740
-0.187665
0.000762
-0.151595
-0.182765
-0.187899
-0.099475
0.005941
0.001333
-0.070344
-0.097712
-0.080183
-0.111277
-0.098541
-0.112076
-0.109059
-0.083158
-0.091396
-0.089504
-0.107058
-0.106747
-0.084576
-0.097195
-0.093061
-0.083111
-0.087018
-0.109162
-0.099827
-0.104691
-0.095486
-0.085967
-0.112421
-0.095919
-0.013882
-0.151844
-0.136446
-0.059337
-0.102081
-0.134960
-0.130141
-0.075052
-0.167162
-0.063674
-0.183798
0.000787
0.010629
-0.045252
-0.112874
-0.178115
-0.163659
0.001258
0.007272
-0.002429
0.000636
-0.092553
-0.144822
-0.168425
-0.173233
-0.110323
-0.028717
-0.006191
0.004223
-0.183100
-0.040964
-0.089290
-0.096720
-0.093468
-0.126177
-0.145058
-0.135562
-0.141808
0.000644
-0.026501
0.011177
-0.156638
0.006577
-0.137789
0.000538
-0.066380
-0.098395
-0.093766
-0.133361
-0.055803
-0.047528
-0.124778
0.000740
-0.110333
-0.058389
-0.180679
-0.171505
-0.001813
0.009758
-0.040560
-0.118562
-0.003710
-0.032321
0.000837
-0.155581
-0.112398
-0.106222
-0.176519
0.009748
-0.021440
-0.105723
-0.012230
0.000599
-0.184959
-0.185389
0.001648
0.002133
-0.069931
-0.110439
-0.101115
-0.102751
-0.093934
-0.095233
-0.086257
-0.085600
-0.109964
-0.097661
-0.112950
-0.084691
-0.120389
-0.108408
-0.094263
-0.053771
-0.095044
-0.043714
-0.082456
-0.091593
-0.102139
-0.107700
-0.089666
-0.105003
-0.105455
0.006719
-0.030291
-0.170542
0.000693
-0.050835
-0.072823
-0.102628
-0.100629
-0.058597
-0.125356
-0.176364
-0.167802
-0.001712
-0.087000
-0.117860
0.001088
0.009463
-0.091320
-0.117564
-0.181880
-0.183048
-0.095213
-0.052503
0.009659
-0.102272
-0.041088
-0.006088
0.001806
-0.035078
-0.015015
0.003125
-0.098720
-0.096471
-0.138357
-0.005718
-0.098838
-0.057858
0.000508
-0.148901
0.004137
-0.019469
-0.140816
-0.102268
-0.160825
-0.104105
-0.166438
0.000834
-0.171366
-0.119435
-0.129270
-0.130477
-0.060254
-0.102213
-0.123416
-0.047092
0.000698
-0.055715
-0.134368
-0.039884
-0.065331
-0.172370
0.009285
-0.023463
-0.150822
-0.109081
-0.174802
0.008564
-0.003109
-0.109579
0.000977
-0.182282
-0.131901
-0.008620
-0.115611
-0.162349
0.005815
-0.185028
-0.180567
0.011200
-0.086308
-0.095883
-0.111491
-0.116171
-0.089976
-0.109397
-0.097619
-0.108527
-0.106291
-0.112164
-0.113024
-0.078918
-0.099259
-0.107816
-0.107118
-0.141238
-0.127970
-0.133962
-0.098047
-0.100184
-0.009926
-0.085968
-0.051297
-0.038352
-0.092261
-0.097228
-0.085262
-0.105897
-0.088875
-0.094486
-0.061917
-0.083691
-0.085468
-0.106466
-0.112546
-0.092493
-0.158197
-0.133769
-0.105149
-0.140764
-0.168484
-0.128398
0.001153
-0.055946
0.007978
-0.076149
-0.100488
-0.003716
-0.060059
-0.042711
-0.126576
-0.131844
-0.088118
-0.111967
-0.175259
-0.089717
-0.018108
-0.105482
-0.001728
-0.150738
-0.095778
-0.121968
-0.164337
-0.028937
-0.161222
0.001082
-0.010576
-0.112738
0.006819
-0.124977
0.001388
-0.180307
0.004337
-0.182811
-0.109577
-0.107965
-0.147870
-0.129810
-0.132536
-0.061675
-0.009808
-0.024393
-0.136651
-0.066641
0.009885
-0.052876
0.000660
-0.120139
-0.035437
-0.168245
0.000957
-0.000196
-0.098702
-0.173933
-0.049768
-0.119161
-0.087535
-0.135130
-0.005168
-0.018946
-0.115073
-0.045851
0.004905
-0.121203
0.001146
-0.178378
0.008024
-0.112485
0.008223
-0.182635
-0.086701
-0.146049
-0.172283
0.002379
-0.011124
-0.084872
-0.180965
-0.096085
-0.065369
-0.087434
-0.094401
-0.103727
-0.105692
-0.090749
-0.094009
-0.101245
-0.082991
-0.110295
-0.062223
-0.093083
-0.097800
-0.111149
-0.101121
-0.113399
-0.113294
-0.145417
-0.108615
-0.087040
-0.095992
-0.100953
-0.083992
-0.099193
-0.058199
-0.095386
-0.086508
-0.097728
-0.095955
-0.105342
-0.055879
-0.103175
-0.113566
-0.108145
-0.090088
-0.021150
-0.040690
-0.132333
-0.063312
-0.053573
-0.079805
0.001493
-0.135437
-0.161264
-0.174033
0.006601
-0.096697
-0.092457
0.001470
-0.089960
-0.094782
-0.150119
-0.048423
0.007699
-0.053215
-0.166704
-0.124079
0.002560
-0.050118
-0.008212
-0.118158
-0.124560
-0.180402
-0.172926
-0.111754
-0.142705
-0.154919
-0.108691
-0.162421
-0.053205
0.000625
-0.001540
-0.083730
-0.006876
-0.118362
-0.122185
-0.057253
-0.097047
-0.100557
-0.145903
-0.091844
-0.069864
-0.032237
-0.114736
-0.154708
0.002351
-0.037261
-0.131206
-0.125977
-0.005502
-0.170333
-0.118936
-0.092463
-0.109901
-0.131830
-0.066551
-0.063432
-0.014258
-0.126708
-0.137837
-0.022888
-0.175981
-0.127197
0.004368
0.007184
-0.180910
-0.115975
0.003274
0.005684
-0.088093
-0.178505
-0.177807
0.001836
-0.166019
-0.108073
-0.068491
0.001388
-0.111259
-0.093347
-0.098758
-0.107222
-0.094472
-0.104019
-0.109528
-0.087722
-0.098984
-0.095543
-0.102593
-0.108331
-0.112744
-0.128508
-0.103850
-0.113847
-0.086500
-0.094329
-0.085605
-0.096641
-0.099372
-0.109445
-0.012894
-0.108213
-0.160308
-0.093365
0.000937
-0.087662
-0.098395
-0.086944
-0.101056
-0.096312
-0.111029
-0.164564
0.000144
-0.093593
-0.066192
-0.130373
0.001501
-0.126070
0.004945
-0.061272
-0.117776
-0.069925
-0.131063
-0.008620
-0.171715
-0.039173
-0.154223
-0.144134
-0.109281
-0.088677
-0.089039
-0.094877
-0.127637
-0.162515
-0.128175
0.001739
-0.090442
-0.155704
-0.134572
-0.121635
-0.130328
0.005587
-0.177673
-0.012050
-0.113322
-0.111458
-0.092078
-0.067655
-0.092130
-0.109350
0.007368
-0.058580
-0.077534
-0.047038
-0.132248
-0.164355
-0.001437
-0.054561
-0.151429
-0.123145
-0.031442
-0.014203
-0.036546
-0.000078
-0.051937
-0.166646
-0.027270
0.001547
0.004430
-0.120923
-0.023489
0.001387
-0.175461
-0.156671
-0.137653
0.002441
-0.167835
-0.099937
-0.018640
0.005877
-0.050934
-0.101679
-0.149105
-0.145618
-0.002589
-0.173917
-0.178435
-0.179216
-0.111353
-0.073945
-0.171688
-0.103728
-0.014805
-0.139644
-0.067857
-0.109356
-0.089600
-0.112367
-0.113838
-0.107777
-0.093308
-0.110541
-0.096934
-0.097802
-0.105416
-0.095876
-0.105832
-0.087798
-0.087811
-0.092043
-0.114319
-0.084333
0.001749
-0.114481
-0.101632
-0.102580
-0.093582
-0.102912
-0.152391
-0.082434
-0.090101
-0.161535
-0.110227
-0.099109
-0.111032
-0.051523
-0.106557
-0.096838
-0.096768
-0.101367
-0.084572
-0.089301
-0.086208
-0.113553
-0.114435
-0.087956
-0.089106
-0.027562
-0.153000
-0.128835
-0.054379
0.001829
-0.162943
-0.100433
-0.072899
-0.087140
-0.139820
-0.114408
-0.158068
-0.168992
-0.168098
-0.002420
-0.044097
-0.107129
-0.032695
-0.128266
-0.158993
-0.043186
-0.004983
-0.110185
-0.162634
0.005554
-0.093782
-0.140958
-0.019200
0.002021
0.004241
-0.175453
-0.176684
0.001597
-0.169384
-0.084112
-0.017573
-0.000512
-0.049902
-0.088938
-0.051198
-0.123982
-0.057015
-0.008120
-0.070280
-0.063472
0.005023
-0.091343
-0.139844
-0.038327
-0.126571
-0.109176
-0.011378
-0.070118
-0.120761
-0.086112
-0.137368
-0.107797
-0.128810
0.002091
-0.125275
-0.129008
0.002314
-0.129654
-0.097161
-0.175642
-0.124151
-0.071901
-0.144456
-0.090309
-0.147596
-0.168208
0.001595
0.004057
-0.137028
-0.130935
-0.005770
-0.060799
-0.049900
-0.111620
0.003248
-0.116112
-0.094122
-0.096061
-0.103967
-0.159210
-0.105588
-0.100324
-0.100313
-0.104698
-0.109743
-0.128986
-0.108434
-0.106601
-0.114569
0.000874
-0.091470
-0.096448
-0.104058
-0.093325
-0.094441
-0.112532
-0.110428
-0.087523
-0.152244
-0.114601
-0.088716
-0.093266
-0.109013
-0.111153
-0.082341
-0.087328
-0.095293
-0.081093
-0.087867
-0.100705
-0.101458
-0.075522
-0.105554
-0.100226
-0.085316
-0.054976
-0.160804
-0.114914
-0.114735
-0.057811
-0.087273
-0.085745
-0.127195
-0.072584
-0.123896
-0.141278
-0.102469
0.000779
-0.064691
-0.085410
-0.070876
-0.133993
-0.092740
-0.140391
-0.004719
-0.082637
-0.090509
-0.157614
-0.115298
-0.121529
-0.149599
-0.133433
-0.104739
-0.161115
-0.111217
0.001861
0.002532
0.003157
-0.036051
-0.102315
-0.147685
-0.087793
-0.005800
-0.129450
-0.155036
-0.085456
-0.015885
-0.126218
-0.117466
-0.090544
-0.090492
-0.033327
-0.056146
-0.064438
-0.127420
-0.150958
-0.127213
-0.024415
-0.051752
-0.127217
-0.105846
-0.107994
0.002543
0.004950
-0.174479
-0.002091
-0.093318
-0.048586
-0.172565
-0.167216
-0.071641
0.001699
-0.134292
-0.162807
-0.098384
-0.014360
0.002800
-0.047278
-0.009355
0.001023
-0.113904
-0.171426
-0.142395
-0.022549
-0.164364
-0.129438
-0.093293
-0.111553
-0.150823
0.000789
-0.106619
-0.103617
-0.109133
-0.090086
-0.107389
-0.105562
-0.115158
-0.095784
-0.100074
-0.113979
-0.080545
-0.156739
-0.112339
-0.102888
-0.079959
-0.107557
-0.086446
-0.111542
-0.086591
-0.126961
-0.047386
-0.096847
-0.090406
-0.072214
-0.053322
-0.003901
-0.089015
-0.096773
-0.084929
-0.096396
-0.087892
-0.016394
-0.137171
-0.098905
-0.159391
-0.135888
-0.107159
-0.108533
-0.072796
-0.099366
-0.099836
-0.055255
-0.034215
-0.082934
-0.084760
-0.114591
-0.158123
-0.138345
-0.059625
-0.052928
-0.103898
-0.083971
0.002821
-0.164913
-0.001239
-0.074533
-0.139239
-0.089318
-0.075106
-0.006477
-0.029613
-0.149118
-0.107395
-0.019878
-0.084040
-0.062963
-0.106742
-0.125502
-0.087352
-0.143544
-0.095598
-0.163420
-0.171484
0.000429
0.001771
-0.143083
-0.043554
-0.080952
-0.160689
-0.010881
-0.131297
-0.124212
-0.092483
-0.115994
-0.068735
-0.108121
-0.123281
-0.124894
-0.088631
0.002693
-0.112487
-0.146354
-0.104807
-0.125682
-0.073065
-0.092502
0.003846
-0.134639
-0.156932
0.001987
-0.109929
0.002622
-0.004115
-0.094745
-0.097938
-0.077349
-0.131675
-0.173431
-0.056845
-0.100289
-0.165746
-0.119723
-0.012840
-0.138698
-0.000839
0.002042
-0.129652
-0.029285
-0.153179
-0.151675
-0.155808
-0.166723
-0.136872
-0.027587
-0.046310
-0.068536
-0.119672
-0.001287
-0.132512
-0.047099
-0.093116
-0.085589
-0.087573
-0.129474
-0.090113
-0.008254
-0.095104
-0.109978
-0.102559
-0.101030
-0.113269
-0.106641
-0.110921
-0.101398
-0.088939
-0.088790
-0.115592
-0.108040
-0.106445
-0.061366
-0.084071
-0.078487
-0.104232
-0.115098
-0.128977
-0.086551
-0.105033
-0.113650
-0.019853
-0.094484
-0.067090
-0.101498
-0.099668
-0.090562
-0.156479
-0.122255
-0.005995
-0.097609
-0.115390
-0.099941
-0.091435
-0.101555
-0.038611
-0.095927
-0.098009
-0.115951
-0.039527
-0.058871
-0.123816
-0.082532
-0.136193
-0.155445
-0.075730
-0.106000
-0.121434
-0.066079
0.002306
-0.116617
-0.071848
-0.144873
-0.075221
-0.162528
-0.112876
-0.148054
-0.152662
-0.082474
-0.025750
-0.094284
0.001836
-0.142818
-0.090295
0.002491
-0.168560
-0.105027
-0.091716
-0.163399
-0.103649
-0.091638
0.000699
-0.103950
-0.085731
-0.013406
-0.008055
-0.135360
-0.101002
-0.085001
-0.122584
-0.101603
0.003443
-0.113887
-0.061201
-0.076391
-0.158643
-0.081895
-0.015785
-0.170404
-0.124094
-0.011257
-0.101854
-0.112223
-0.162060
-0.167069
-0.058518
-0.023740
-0.142059
-0.002328
-0.005841
-0.131905
-0.125691
-0.065899
-0.075363
-0.149308
-0.093965
-0.002542
-0.153994
-0.146041
-0.035392
-0.159294
-0.049582
-0.032594
-0.050042
-0.001061
-0.136055
-0.098169
-0.096375
-0.154750
-0.086728
-0.134377
-0.118147
-0.119663
-0.121854
-0.017237
-0.039822
0.002474
-0.043386
-0.141074
-0.112439
-0.090238
-0.097021
-0.083247
-0.099007
-0.104626
-0.019838
-0.055169
-0.111084
-0.136530
-0.082368
-0.042890
-0.108763
-0.105553
-0.086674
-0.114635
-0.107020
-0.116579
-0.105309
-0.077823
-0.075041
-0.085128
-0.116038
-0.069893
-0.090500
-0.101646
-0.092142
-0.115033
-0.145577
-0.103013
-0.071821
-0.092883
-0.087904
-0.095972
-0.102748
-0.088554
-0.088071
-0.066127
0.004087
-0.105670
-0.109345
-0.097850
-0.022436
-0.093590
-0.132886
-0.123029
-0.087169
-0.091523
-0.110202
-0.094511
-0.019057
-0.115358
-0.040341
-0.111939
-0.123011
-0.080897
-0.075098
-0.060931
-0.103716
-0.056447
-0.145644
-0.116778
-0.006482
-0.095434
-0.072912
-0.150055
-0.077255
-0.027482
-0.153606
-0.121539
-0.111426
-0.089633
-0.138794
0.002922
-0.077454
-0.063624
-0.152816
-0.002862
-0.107088
-0.047796
-0.105163
-0.157586
-0.121794
-0.104149
-0.118954
-0.083687
-0.080751
0.000814
-0.146648
-0.079612
-0.082968
-0.138530
-0.137948
-0.117084
-0.145552
-0.075466
-0.122117
-0.079396
-0.084390
-0.150419
0.001242
-0.016250
-0.010528
-0.166553
-0.163546
-0.114722
-0.154275
-0.145061
0.001777
-0.103528
-0.092982
-0.161408
-0.030137
-0.043462
-0.135763
-0.128423
-0.133459
-0.073662
-0.022630
-0.107951
-0.067890
-0.156416
-0.004345
-0.054341
-0.089559
-0.064503
-0.007752
0.002221
-0.021708
-0.158791
-0.004595
-0.007222
-0.045036
-0.053427
-0.085439
-0.141375
-0.164032
-0.122223
0.002414
-0.134061
-0.038293
-0.059750
-0.142447
-0.086950
-0.098420
-0.099644
-0.103367
-0.083380
-0.112405
-0.139775
-0.088884
-0.113942
-0.109713
-0.102949
-0.100829
-0.120757
-0.107941
-0.098167
-0.107619
-0.094447
-0.105913
-0.116368
-0.078115
-0.115775
-0.059065
-0.093209
-0.082878
-0.088994
-0.069078
-0.116845
-0.085982
-0.112508
-0.147267
-0.085203
-0.090342
-0.089920
-0.086947
-0.091459
-0.089160
-0.103253
0.005547
-0.098701
-0.093999
-0.098435
-0.096968
-0.094751
-0.077103
-0.024124
-0.066772
-0.109698
-0.155765
-0.078557
-0.057355
-0.062526
-0.119375
-0.069241
-0.152059
-0.096779
-0.003386
-0.010120
-0.158856
-0.112020
-0.077320
-0.079028
-0.147517
-0.081340
-0.090728
-0.146918
-0.151954
-0.120103
-0.153820
-0.063038
-0.010451
0.001485
-0.088984
0.002302
0.002537
-0.092234
-0.081294
-0.081003
-0.110380
-0.022093
-0.019306
-0.109683
-0.048134
-0.015394
-0.011397
-0.036549
-0.102710
-0.159755
-0.166042
-0.105521
-0.143365
-0.145085
-0.115430
-0.070892
-0.120705
-0.077749
-0.101796
-0.125056
-0.086612
-0.062312
-0.101774
-0.006669