# vtk DataFile Version 2.0
Test
ASCII
DATASET POLYDATA
POINTS 4677 float
0.000000 0.000000 0.000000
0.080000 0.000000 0.000000
0.080000 0.160000 0.000000
0.000000 0.160000 0.000000
0.036000 0.073072 0.000000
0.044000 0.086928 0.000000
0.024500 0.065566 0.000000
0.055500 0.093560 0.000000
0.001000 0.050000 0.000000
0.079000 0.110000 0.000000
0.002963 0.000000 0.000000
0.005926 0.000000 0.000000
0.008889 0.000000 0.000000
0.011852 0.000000 0.000000
0.014815 0.000000 0.000000
0.017778 0.000000 0.000000
0.020741 0.000000 0.000000
0.023704 0.000000 0.000000
0.026667 0.000000 0.000000
0.029630 0.000000 0.000000
0.032593 0.000000 0.000000
0.035556 0.000000 0.000000
0.038519 0.000000 0.000000
0.041481 0.000000 0.000000
0.044444 0.000000 0.000000
0.047407 0.000000 0.000000
0.050370 0.000000 0.000000
0.053333 0.000000 0.000000
0.056296 0.000000 0.000000
0.059259 0.000000 0.000000
0.062222 0.000000 0.000000
0.065185 0.000000 0.000000
0.068148 0.000000 0.000000
0.071111 0.000000 0.000000
0.074074 0.000000 0.000000
0.077037 0.000000 0.000000
0.080000 0.002963 0.000000
0.080000 0.005926 0.000000
0.080000 0.008889 0.000000
0.080000 0.011852 0.000000
0.080000 0.014815 0.000000
0.080000 0.017778 0.000000
0.080000 0.020741 0.000000
0.080000 0.023704 0.000000
0.080000 0.026667 0.000000
0.080000 0.029630 0.000000
0.080000 0.032593 0.000000
0.080000 0.035556 0.000000
0.080000 0.038519 0.000000
0.080000 0.041481 0.000000
0.080000 0.044444 0.000000
0.080000 0.047407 0.000000
0.080000 0.050370 0.000000
0.080000 0.053333 0.000000
0.080000 0.056296 0.000000
0.080000 0.059259 0.000000
0.080000 0.062222 0.000000
0.080000 0.065185 0.000000
0.080000 0.068148 0.000000
0.080000 0.071111 0.000000
0.080000 0.074074 0.000000
0.080000 0.077037 0.000000
0.080000 0.080000 0.000000
0.080000 0.082963 0.000000
0.080000 0.085926 0.000000
0.080000 0.088889 0.000000
0.080000 0.091852 0.000000
0.080000 0.094815 0.000000
0.080000 0.097778 0.000000
0.080000 0.100741 0.000000
0.080000 0.103704 0.000000
0.080000 0.106667 0.000000
0.080000 0.109630 0.000000
0.080000 0.112593 0.000000
0.080000 0.115556 0.000000
0.080000 0.118519 0.000000
0.080000 0.121481 0.000000
0.080000 0.124444 0.000000
0.080000 0.127407 0.000000
0.080000 0.130370 0.000000
0.080000 0.133333 0.000000
0.080000 0.136296 0.000000
0.080000 0.139259 0.000000
0.080000 0.142222 0.000000
0.080000 0.145185 0.000000
0.080000 0.148148 0.000000
0.080000 0.151111 0.000000
0.080000 0.154074 0.000000
0.080000 0.157037 0.000000
0.077037 0.160000 0.000000
0.074074 0.160000 0.000000
0.071111 0.160000 0.000000
0.068148 0.160000 0.000000
0.065185 0.160000 0.000000
0.062222 0.160000 0.000000
0.059259 0.160000 0.000000
0.056296 0.160000 0.000000
0.053333 0.160000 0.000000
0.050370 0.160000 0.000000
0.047407 0.160000 0.000000
0.044444 0.160000 0.000000
0.041481 0.160000 0.000000
0.038519 0.160000 0.000000
0.035556 0.160000 0.000000
0.032593 0.160000 0.000000
0.029630 0.160000 0.000000
0.026667 0.160000 0.000000
0.023704 0.160000 0.000000
0.020741 0.160000 0.000000
0.017778 0.160000 0.000000
0.014815 0.160000 0.000000
0.011852 0.160000 0.000000
0.008889 0.160000 0.000000
0.005926 0.160000 0.000000
0.002963 0.160000 0.000000
0.000000 0.157037 0.000000
0.000000 0.154074 0.000000
0.000000 0.151111 0.000000
0.000000 0.148148 0.000000
0.000000 0.145185 0.000000
0.000000 0.142222 0.000000
0.000000 0.139259 0.000000
0.000000 0.136296 0.000000
0.000000 0.133333 0.000000
0.000000 0.130370 0.000000
0.000000 0.127407 0.000000
0.000000 0.124444 0.000000
0.000000 0.121481 0.000000
0.000000 0.118519 0.000000
0.000000 0.115556 0.000000
0.000000 0.112593 0.000000
0.000000 0.109630 0.000000
0.000000 0.106667 0.000000
0.000000 0.103704 0.000000
0.000000 0.100741 0.000000
0.000000 0.097778 0.000000
0.000000 0.094815 0.000000
0.000000 0.091852 0.000000
0.000000 0.088889 0.000000
0.000000 0.085926 0.000000
0.000000 0.082963 0.000000
0.000000 0.080000 0.000000
0.000000 0.077037 0.000000
0.000000 0.074074 0.000000
0.000000 0.071111 0.000000
0.000000 0.068148 0.000000
0.000000 0.065185 0.000000
0.000000 0.062222 0.000000
0.000000 0.059259 0.000000
0.000000 0.056296 0.000000
0.000000 0.053333 0.000000
0.000000 0.050370 0.000000
0.000000 0.047407 0.000000
0.000000 0.044444 0.000000
0.000000 0.041481 0.000000
0.000000 0.038519 0.000000
0.000000 0.035556 0.000000
0.000000 0.032593 0.000000
0.000000 0.029630 0.000000
0.000000 0.026667 0.000000
0.000000 0.023704 0.000000
0.000000 0.020741 0.000000
0.000000 0.017778 0.000000
0.000000 0.014815 0.000000
0.000000 0.011852 0.000000
0.000000 0.008889 0.000000
0.000000 0.005926 0.000000
0.000000 0.002963 0.000000
0.035500 0.072746 0.000000
0.035000 0.072419 0.000000
0.034500 0.072093 0.000000
0.034000 0.071767 0.000000
0.033500 0.071440 0.000000
0.033000 0.071114 0.000000
0.032500 0.070788 0.000000
0.032000 0.070461 0.000000
0.031500 0.070135 0.000000
0.031000 0.069809 0.000000
0.030500 0.069482 0.000000
0.030000 0.069156 0.000000
0.029500 0.068829 0.000000
0.029000 0.068503 0.000000
0.028500 0.068177 0.000000
0.028000 0.067850 0.000000
0.027500 0.067524 0.000000
0.027000 0.067198 0.000000
0.026500 0.066871 0.000000
0.026000 0.066545 0.000000
0.025500 0.066219 0.000000
0.025000 0.065892 0.000000
0.044500 0.087216 0.000000
0.045000 0.087505 0.000000
0.045500 0.087793 0.000000
0.046000 0.088081 0.000000
0.046500 0.088370 0.000000
0.047000 0.088658 0.000000
0.047500 0.088946 0.000000
0.048000 0.089235 0.000000
0.048500 0.089523 0.000000
0.049000 0.089811 0.000000
0.049500 0.090100 0.000000
0.050000 0.090388 0.000000
0.050500 0.090677 0.000000
0.051000 0.090965 0.000000
0.051500 0.091253 0.000000
0.052000 0.091542 0.000000
0.052500 0.091830 0.000000
0.053000 0.092118 0.000000
0.053500 0.092407 0.000000
0.054000 0.092695 0.000000
0.054500 0.092983 0.000000
0.055000 0.093272 0.000000
0.043704 0.086415 0.000000
0.043407 0.085902 0.000000
0.043111 0.085388 0.000000
0.042815 0.084875 0.000000
0.042519 0.084362 0.000000
0.042222 0.083849 0.000000
0.041926 0.083336 0.000000
0.041630 0.082823 0.000000
0.041333 0.082309 0.000000
0.041037 0.081796 0.000000
0.040741 0.081283 0.000000
0.040444 0.080770 0.000000
0.040148 0.080257 0.000000
0.039852 0.079743 0.000000
0.039556 0.079230 0.000000
0.039259 0.078717 0.000000
0.038963 0.078204 0.000000
0.038667 0.077691 0.000000
0.038370 0.077177 0.000000
0.038074 0.076664 0.000000
0.037778 0.076151 0.000000
0.037481 0.075638 0.000000
0.037185 0.075125 0.000000
0.036889 0.074612 0.000000
0.036593 0.074098 0.000000
0.036296 0.073585 0.000000
0.024000 0.065235 0.000000
0.023500 0.064904 0.000000
0.023000 0.064572 0.000000
0.022500 0.064241 0.000000
0.022000 0.063910 0.000000
0.021500 0.063579 0.000000
0.021000 0.063248 0.000000
0.020500 0.062916 0.000000
0.020000 0.062585 0.000000
0.019500 0.062254 0.000000
0.019000 0.061923 0.000000
0.018500 0.061592 0.000000
0.018000 0.061261 0.000000
0.017500 0.060929 0.000000
0.017000 0.060598 0.000000
0.016500 0.060267 0.000000
0.016000 0.059936 0.000000
0.015500 0.059605 0.000000
0.015000 0.059273 0.000000
0.014500 0.058942 0.000000
0.014000 0.058611 0.000000
0.013500 0.058280 0.000000
0.013000 0.057949 0.000000
0.012500 0.057617 0.000000
0.012000 0.057286 0.000000
0.011500 0.056955 0.000000
0.011000 0.056624 0.000000
0.010500 0.056293 0.000000
0.010000 0.055961 0.000000
0.009500 0.055630 0.000000
0.009000 0.055299 0.000000
0.008500 0.054968 0.000000
0.008000 0.054637 0.000000
0.007500 0.054305 0.000000
0.007000 0.053974 0.000000
0.006500 0.053643 0.000000
0.006000 0.053312 0.000000
0.005500 0.052981 0.000000
0.005000 0.052650 0.000000
0.004500 0.052318 0.000000
0.004000 0.051987 0.000000
0.003500 0.051656 0.000000
0.003000 0.051325 0.000000
0.002500 0.050994 0.000000
0.002000 0.050662 0.000000
0.001500 0.050331 0.000000
0.055990 0.093902 0.000000
0.056479 0.094245 0.000000
0.056969 0.094587 0.000000
0.057458 0.094930 0.000000
0.057948 0.095272 0.000000
0.058437 0.095615 0.000000
0.058927 0.095957 0.000000
0.059417 0.096300 0.000000
0.059906 0.096642 0.000000
0.060396 0.096985 0.000000
0.060885 0.097327 0.000000
0.061375 0.097670 0.000000
0.061865 0.098012 0.000000
0.062354 0.098355 0.000000
0.062844 0.098697 0.000000
0.063333 0.099040 0.000000
0.063823 0.099382 0.000000
0.064312 0.099725 0.000000
0.064802 0.100067 0.000000
0.065292 0.100410 0.000000
0.065781 0.100752 0.000000
0.066271 0.101095 0.000000
0.066760 0.101437 0.000000
0.067250 0.101780 0.000000
0.067740 0.102122 0.000000
0.068229 0.102465 0.000000
0.068719 0.102807 0.000000
0.069208 0.103150 0.000000
0.069698 0.103492 0.000000
0.070187 0.103835 0.000000
0.070677 0.104177 0.000000
0.071167 0.104520 0.000000
0.071656 0.104862 0.000000
0.072146 0.105205 0.000000
0.072635 0.105547 0.000000
0.073125 0.105890 0.000000
0.073615 0.106232 0.000000
0.074104 0.106575 0.000000
0.074594 0.106917 0.000000
0.075083 0.107260 0.000000
0.075573 0.107602 0.000000
0.076062 0.107945 0.000000
0.076552 0.108287 0.000000
0.077042 0.108630 0.000000
0.077531 0.108972 0.000000
0.078021 0.109315 0.000000
0.078510 0.109658 0.000000
0.043942 0.087469 0.000000
0.035556 0.157037 0.000000
0.044420 0.002920 0.000000
0.077037 0.038519 0.000000
0.002963 0.121481 0.000000
0.077037 0.059259 0.000000
0.002963 0.109630 0.000000
0.002923 0.098139 0.000000
0.077153 0.126913 0.000000
0.002808 0.032596 0.000000
0.077140 0.071061 0.000000
0.002963 0.085926 0.000000
0.002963 0.136296 0.000000
0.077041 0.023701 0.000000
0.056296 0.157037 0.000000
0.032593 0.002963 0.000000
0.077037 0.080000 0.000000
0.002813 0.077135 0.000000
0.077037 0.142222 0.000000
0.017778 0.157037 0.000000
0.062222 0.002963 0.000000
0.076992 0.088722 0.000000
0.002945 0.020743 0.000000
0.017777 0.002962 0.000000
0.002801 0.068434 0.000000
0.002959 0.011851 0.000000
0.065186 0.157038 0.000000
0.002963 0.148148 0.000000
0.077037 0.011852 0.000000
0.076887 0.094740 0.000000
0.077092 0.115875 0.000000
0.002677 0.044265 0.000000
0.077038 0.148148 0.000000
0.002985 0.062165 0.000000
0.077037 0.047407 0.000000
0.011852 0.002963 0.000000
[...]
POINT_DATA 4677
SCALARS UX float 1
LOOKUP_TABLE default
-0.000000
0.000000
0.001972
-0.002496
-0.000279
-0.000328
-0.001764
0.001029
-0.002715
0.002150
-0.000000
-0.000000
-0.000000
-0.000000
-0.000000
-0.000000
-0.000000
-0.000000
-0.000000
-0.000000
-0.000000
-0.000000
-0.000000
0.000000
0.000000
0.000000
0.000000
0.000000
0.000000
0.000000
0.000000
0.000000
0.000000
0.000000
0.000000
-0.000000
0.000498
0.000769
0.000969
0.001134
0.001274
0.001395
0.001500
0.001592
0.001675
0.001749
0.001822
0.001878
0.001924
0.001963
0.001965
0.001983
0.001994
0.002001
0.002009
0.002019
0.002033
0.002052
0.002078
0.002109
0.002142
0.002176
0.002213
0.002280
0.002322
0.002365
0.002397
0.002404
0.002393
0.002364
0.002320
0.002271
0.002218
0.002169
0.002127
0.002092
0.002063
0.002043
0.002026
0.002014
0.002004
0.001996
0.001990
0.001985
0.001981
0.001978
0.001975
0.001974
0.001973
0.001801
0.001630
0.001460
0.001290
0.001120
0.000952
0.000783
0.000616
0.000449
0.000283
0.000118
-0.000047
-0.000212
-0.000376
-0.000540
-0.000703
-0.000866
-0.001029
-0.001192
-0.001355
-0.001518
-0.001681
-0.001844
-0.002007
-0.002170
-0.002333
-0.002496
-0.002494
-0.002492
-0.002489
-0.002486
-0.002482
-0.002478
-0.002475
-0.002471
-0.002468
-0.002465
-0.002463
-0.002460
-0.002458
-0.002456
-0.002456
-0.002459
-0.002467
-0.002480
-0.002499
-0.002523
-0.002554
-0.002591
-0.002633
-0.002678
-0.002721
-0.002782
-0.002848
-0.002937
-0.002972
-0.003026
-0.003041
-0.003033
-0.003007
-0.002947
-0.002869
-0.002778
-0.002688
-0.002614
-0.002555
-0.002488
-0.002413
-0.002340
-0.002250
-0.002150
-0.002041
-0.001922
-0.001795
-0.001636
-0.001455
-0.001251
-0.000991
-0.000661
-0.000303
-0.000461
-0.000390
-0.000539
-0.000519
-0.000716
-0.000746
-0.000794
-0.000854
-0.000919
-0.001044
-0.001165
-0.001173
-0.001237
-0.001316
-0.001344
-0.001384
-0.001455
-0.001511
-0.001407
-0.001648
-0.001760
-0.000335
-0.000316
-0.000112
-0.000001
0.000034
0.000118
0.000089
0.000231
0.000184
0.000354
0.000300
0.000334
0.000318
0.000527
0.000485
0.000668
0.000629
0.000676
0.000689
0.000758
0.001165
0.001082
-0.000347
-0.000361
-0.000338
-0.000316
-0.000297
-0.000286
-0.000285
-0.000277
-0.000275
-0.000270
-0.000274
-0.000278
-0.000289
-0.000295
-0.000301
-0.000305
-0.000313
-0.000319
-0.000321
-0.000322
-0.000316
-0.000306
-0.000292
-0.000272
-0.000251
-0.000250
-0.001887
-0.001921
-0.001946
-0.001953
-0.001968
-0.001981
-0.001986
-0.001994
-0.002005
-0.002017
-0.002031
-0.002048
-0.002065
-0.002083
-0.002103
-0.002123
-0.002143
-0.002164
-0.002184
-0.002205
-0.002226
-0.002247
-0.002268
-0.002290
-0.002311
-0.002332
-0.002354
-0.002374
-0.002395
-0.002416
-0.002436
-0.002456
-0.002475
-0.002494
-0.002513
-0.002531
-0.002549
-0.002567
-0.002585
-0.002602
-0.002619
-0.002636
-0.002652
-0.002668
-0.002684
-0.002700
0.001128
0.001173
0.001201
0.001225
0.001227
0.001236
0.001244
0.001256
0.001269
0.001284
0.001301
0.001319
0.001337
0.001357
0.001377
0.001398
0.001419
0.001441
0.001463
0.001486
0.001509
0.001533
0.001557
0.001580
0.001604
0.001629
0.001653
0.001677
0.001701
0.001725
0.001749
0.001773
0.001797
0.001821
0.001844
0.001868
0.001892
0.001915
0.001939
0.001962
0.001985
0.002009
0.002032
0.002056
0.002079
0.002103
0.002127
-0.000373
-0.000539
0.000008
0.001775
-0.002294
0.001847
-0.002291
-0.002353
0.001858
-0.002211
0.001939
-0.002512
-0.002310
0.001447
0.000616
-0.000056
0.002049
-0.002708
0.001812
-0.001518
0.000093
0.002206
-0.001787
-0.000141
-0.002891
-0.001314
0.001120
-0.002326
0.000977
0.002241
0.001942
-0.002483
0.001806
-0.002897
0.001822
-0.000208
0.001460
-0.002170
0.000202
-0.002832
0.002206
0.001828
-0.000211
0.000118
-0.000089
-0.002302
0.001605
-0.001191
0.000063
0.001801
0.001910
-0.002407
-0.000290
0.001884
-0.002348
-0.002848
-0.002781
0.002124
-0.002420
-0.002556
0.001878
0.001971
0.001834
-0.002319
0.002150
-0.002291
-0.002103
-0.002003
0.001792
-0.000864
0.001823
0.000037
-0.000006
-0.002299
0.001672
-0.000023
-0.001649
-0.000111
0.000784
0.000283
-0.002318
0.001247
-0.001091
-0.000253
-0.000735
-0.001844
0.000137
0.001804
-0.000359
-0.000361
-0.002331
0.000573
-0.002333
0.000277
0.002066
-0.000376
-0.002640
-0.002731
0.002125
-0.000365
-0.000020
0.001620
0.001807
-0.001975
-0.002399
0.001781
0.000282
-0.002139
0.001653
-0.000185
-0.002298
-0.001506
-0.002778
0.001914
0.002014
0.000603
-0.001159
-0.000441
-0.000662
0.001635
-0.002168
0.000421
0.002024
-0.002567
0.002252
-0.002910
0.002247
-0.002839
-0.002727
0.002176
0.001884
-0.002299
0.002147
-0.002635
0.002014
-0.002460
-0.002384
0.001914
0.001864
-0.002342
-0.002303
0.001843
-0.002293
0.001832
0.001842
0.001810
-0.002294
-0.000374
-0.002298
0.001730
-0.000700
0.000023
-0.000046
-0.001902
-0.001027
0.000049
-0.000038
0.001818
-0.002306
0.001530
0.000450
-0.000072
-0.001354
0.000077
-0.001493
-0.000130
0.000952
-0.002314
0.001355
-0.000173
-0.002322
0.001123
0.001290
0.001808
-0.001681
0.000112
0.001630
0.001802
-0.002007
0.000167
-0.002329
0.000800
-0.002669
0.002104
0.002054
-0.002692
-0.002640
-0.000246
-0.000407
0.002155
-0.002785
0.001783
-0.002281
-0.000261
-0.000246
-0.000180
0.001702
-0.002255
-0.002145
0.001665
-0.002212
-0.000697
-0.001352
-0.002706
0.000095
0.001380
0.002114
-0.002150
-0.001679
0.002125
0.000968
-0.002159
0.000230
0.002016
-0.002596
0.001726
0.001682
-0.002134
0.001673
-0.002134
-0.000049
-0.002143
0.000952
-0.000278
-0.000373
-0.002166
0.001291
0.001632
-0.002613
0.002049
-0.002435
0.001885
0.001909
-0.002789
0.001731
-0.002508
-0.002692
0.002070
0.001963
-0.002181
0.002059
-0.002158
-0.002213
-0.002360
0.001749
0.001776
-0.002319
0.001587
-0.000080
-0.000048
-0.001886
0.001656
0.001638
0.000041
0.000012
-0.002352
0.001673
0.000121
-0.001024
0.000445
-0.002136
-0.002136
0.001646
0.001636
0.001660
-0.000379
-0.001769
-0.000144
0.000783
-0.001349
-0.000235
0.001200
0.000154
-0.001640
-0.000945
-0.000531
0.001631
-0.002005
0.000332
0.000637
-0.002048
-0.000430
-0.000312
0.002009
-0.002602
-0.002691
0.002133
-0.002678
0.002096
-0.000404
-0.000232
-0.000255
-0.000163
-0.000341
-0.000074
0.001494
0.001618
-0.002174
-0.000028
-0.001977
-0.001892
0.001513
0.001816
-0.000220
0.000465
-0.001616
-0.001360
-0.000569
-0.002543
0.001955
0.001585
-0.000108
-0.002642
0.001542
0.000007
0.001488
-0.000350
0.000789
0.001466
-0.001977
-0.002003
0.000508
-0.000233
-0.002736
0.002114
-0.002031
-0.002789
-0.002171
-0.002562
-0.002268
-0.002217
0.001466
0.001717
0.001790
0.001693
-0.002139
0.001679
0.001728
-0.002134
0.001691
0.002070
-0.002213
-0.000223
-0.000109
-0.000856
-0.002145
0.001665
0.000068
-0.001185
-0.001725
0.000124
0.001440
-0.002134
0.000123
-0.001514
0.001641
0.001296
-0.001201
-0.000789
0.001093
0.001462
0.001121
-0.000319
-0.002154
0.000188
-0.000537
-0.001842
-0.002163
0.001460
0.000820
0.000277
-0.002186
0.001659
-0.002272
-0.000458
-0.002672
-0.000416
-0.000244
0.002048
-0.002476
0.001924
-0.000388
-0.000081
0.002000
-0.002667
-0.002545
0.002060
0.001976
-0.000085
-0.000069
-0.000079
-0.002603
-0.002340
-0.000389
-0.000007
0.001543
-0.002005
-0.002040
-0.001876
0.001545
-0.000034
-0.002502
-0.002175
-0.001012
0.001982
-0.001987
0.000139
0.001227
-0.001578
-0.002708
-0.001514
-0.001988
0.000283
0.000941
0.001506
-0.000111
0.001846
-0.000362
-0.001974
-0.001986
0.001472
-0.001221
-0.000487
0.000673
-0.001840
0.001633
-0.002394
0.001688
0.001537
-0.002611
-0.002108
-0.002244
-0.002131
-0.000170
0.001573
0.001381
-0.002015
0.001509
-0.000178
-0.000036
-0.002102
0.001604
0.001503
-0.002395
0.001956
0.001752
0.000310
0.001517
0.001482
-0.001821
-0.001981
-0.001188
-0.000285
0.001462
-0.001500
0.000624
-0.000414
0.001592
0.000182
-0.000694
0.000955
0.001292
-0.001976
0.001142
-0.001015
0.001465
-0.000670
0.000053
-0.001992
-0.002000
0.000343
0.000415
-0.002096
-0.000287
-0.000178
0.000023
-0.002554
-0.002580
0.001959
0.001965
-0.000469
-0.002611
-0.000482
0.001968
-0.002776
-0.000143
0.001776
0.001879
0.001561
0.001715
-0.002251
-0.002474
-0.000262
0.000051
0.001903
-0.000365
0.000053
0.001344
0.001431
-0.001836
-0.000051
0.001632
-0.002070
0.001377
0.001586
0.001813
0.000460
-0.001818
-0.001028
-0.000306
-0.002320
0.001319
0.000180
0.001107
0.001831
0.000793
-0.001824
-0.001837
-0.000033
-0.001648
0.001252
0.001478
0.001479
-0.000555
0.000374
-0.001366
-0.000879
0.000552
-0.000169
0.001695
-0.001997
0.001557
-0.000210
-0.001778
-0.000174
-0.002057
0.001515
0.001550
-0.000228
0.001513
-0.002001
0.000054
-0.001990
0.000008
-0.001985
0.001349
0.000269
-0.002404
0.001927
0.001446
-0.002630
0.001572
0.000094
0.001744
-0.002072
-0.001483
-0.002041
-0.001820
0.001291
-0.001065
-0.000533
0.001296
-0.001349
0.001048
-0.000393
0.001124
0.000229
-0.001983
0.000122
-0.000650
0.001309
-0.000852
0.000817
-0.001996
-0.001677
0.001305
0.001917
-0.002552
-0.000316
-0.002686
-0.002408
-0.000183
0.000018
-0.000453
-0.000409
-0.000504
-0.000468
-0.002167
-0.000202
-0.000047
-0.000014
-0.001954
-0.002555
-0.002305
-0.002582
0.001413
0.001542
0.001960
0.002014
0.001861
-0.002486
-0.002622
0.001941
0.000041
0.001899
-0.002566
-0.001961
0.002008
0.001946
-0.000010
-0.000355
0.000040
-0.001859
-0.001903
0.001427
-0.000170
-0.001675
-0.002350
-0.000051
-0.001745
0.001113
-0.002071
0.001591
-0.000398
0.001684
-0.001477
0.001218
0.000320
-0.002337
-0.002630
-0.001348
0.001835
0.001397
0.001352
0.001363
-0.000535
-0.000129
0.001161
-0.001850
-0.001223
-0.000862
0.000120
-0.000688
0.001130
0.000890
-0.002509
0.000304
-0.001821
0.000680
-0.001834
-0.000492
-0.000081
-0.001915
-0.002273
-0.002108
-0.001920
0.001404
0.001400
-0.001845
-0.001992
0.001205
0.001690
-0.000113
-0.002681
0.001453
-0.001840
0.000062
-0.000245
-0.002563
-0.001818
0.001579
0.001334
0.001916
0.000128
-0.000477
-0.000931
0.000959
0.001490
0.001379
0.000633
0.000238
-0.001820
0.000986
0.001303
0.001317
-0.001830
0.001873
-0.000386
-0.001186
0.000454
-0.000756
0.001947
-0.001675
-0.002502
0.001881
0.001890
0.001761
-0.000352
0.000163
-0.002418
-0.002533
0.001400
-0.002225
-0.000221
0.001850
0.000077
-0.000124
-0.000507
0.000052
-0.000435
-0.000516
-0.001945
-0.000127
0.001925
-0.000118
0.000147
0.001989
-0.002637
-0.001839
-0.002561
0.001891
0.000098
-0.002527
0.001387
-0.001734
0.000144
-0.000402
0.001264
0.000114
0.001244
0.001335
-0.001767
-0.001872
0.001487
-0.002129
0.000145
0.000282
-0.000867
-0.001662
0.000854
0.000216
-0.000035
0.000295
-0.002369
-0.002478
-0.001897
-0.001512
0.001014
-0.001716
-0.001685
0.000636
0.001239
0.001406
-0.000582
0.000979
0.001182
-0.001669
-0.001185
-0.000548
-0.001835
-0.001873
-0.000123
-0.001849
-0.001661
-0.000163
-0.000312
0.002011
0.001361
-0.002585
-0.002517
0.001584
-0.000188
-0.002651
-0.000372
0.000014
-0.001960
0.001296
-0.002605
-0.000690
0.001370
-0.001378
-0.002176
0.001201
-0.000495
-0.001666
0.001149
-0.002458
-0.002670
-0.001937
0.001767
0.001722
-0.000808
-0.002416
-0.000023
-0.001087
-0.001662
0.000483
0.001197
0.001148
-0.001672
0.001138
0.000563
0.000797
0.001869
-0.001511
-0.001662
0.000373
-0.001832
0.001308
0.001907
0.000009
-0.000264
0.001757
0.001612
0.000052
-0.002514
0.001485
0.001279
0.001859
-0.002534
0.000196
-0.000347
-0.000477
-0.000538
-0.002277
0.000260
-0.000506
-0.002274
-0.000053
0.001905
0.001682
-0.002608
-0.000164
0.001427
0.001299
-0.001857
0.000129
-0.000112
0.001843
0.000222
0.001853
0.000174
-0.002483
0.001179
-0.001536
0.001078
0.000270
-0.001849
-0.001805
-0.000112
-0.002247
0.000983
0.001551
-0.002476
0.001803
0.001073
-0.000593
-0.001505
-0.001344
-0.001760
-0.000218
-0.002596
-0.002310
0.001801
-0.002453
0.001033
-0.001707
-0.002090
0.000347
0.000024
-0.000724
-0.001736
0.000993
-0.001977
0.000769
-0.001510
0.001247
-0.000572
-0.002545
0.001758
0.001686
-0.002417
-0.000139
0.000934
-0.001802
-0.002035
0.001349
0.000426
-0.001691
0.001229
0.001552
-0.000561
-0.002385
-0.001227
-0.000832
0.001326
-0.000239
0.001448
-0.001527
0.001259
0.000071
0.000675
0.000812
-0.001091
0.000218
-0.001344
-0.001714
0.000135
0.000460
-0.001022
-0.002593
-0.000953
0.001173
-0.001618
0.001528
-0.001773
-0.001800
-0.000374
-0.001505
-0.001511
-0.001663
0.001268
-0.001974
-0.001663
0.001481
0.001291
-0.001836
0.001998
0.001229
0.000080
-0.000310
-0.000553
-0.000031
-0.000090
-0.000534
-0.000205
0.001607
0.000144
0.001684
-0.000415
0.001828
0.001814
0.000200
-0.000478
0.001966
-0.000053
-0.002511
-0.000340
0.000124
-0.002463
-0.002728
-0.001888
0.002061
0.000162
-0.001743
-0.000205
-0.002506
-0.002756
-0.001616
0.001372
0.000229
-0.002468
0.000212
-0.002203
0.001813
0.001869
-0.000360
-0.000582
0.000095
0.000224
0.001145
-0.001613
-0.001685
0.001356
-0.000155
-0.001388
0.001521
0.001813
-0.002242
0.000141
-0.002439
-0.000710
-0.001351
-0.001024
0.001085
0.001217
-0.002575
-0.001182
0.000546
-0.001595
-0.001378
0.001196
-0.000169
-0.001538
0.000786
0.000341
-0.001729
-0.000968
0.000093
0.000641
-0.001352
-0.001505
0.000259
-0.001510
0.001940
0.001127
-0.000291
-0.001554
0.001783
0.001272
0.000838
0.001455
0.001242
0.001722
0.001612
0.000901
-0.002365
-0.000017
0.001203
-0.002141
-0.002533
-0.000718
-0.001867
-0.002425
0.001859
-0.001731
-0.002672
-0.001848
0.000015
0.001010
-0.002033
0.000439
0.001058
-0.002445
-0.001505
-0.002284
0.001995
-0.001682
0.000270
-0.000367
-0.001517
0.001053
0.001008
0.000292
-0.001654
-0.000474
-0.001764
-0.001602
0.001150
0.000549
0.001183
-0.000139
-0.000206
0.001428
-0.001727
0.001386
-0.002563
-0.002519
-0.000402
-0.000535
0.001145
-0.000079
0.000051
-0.000544
-0.000189
0.001751
0.001612
0.000194
-0.002425
0.001687
-0.000582
-0.002456
0.000147
-0.001786
-0.000441
0.001801
0.000314
0.001258
-0.000230
-0.002116
0.000190
-0.002436
0.002102
0.001798
-0.000333
0.000321
-0.001937
-0.002767
0.000349
0.001902
-0.001683
-0.001566
0.001064
-0.000400
-0.001651
0.000292
0.000157
-0.001575
-0.001832
-0.002089
0.000154
0.001425
0.000867
0.001508
-0.002170
0.001633
0.000937
-0.000128
-0.001587
-0.000437
0.001967
0.000394
-0.001445
-0.000577
-0.002279
-0.000362
-0.001626
-0.002560
-0.001398
-0.000207
0.000298
0.000024
0.000532
-0.001260
-0.002587
-0.001660
0.000062
0.001079
0.000879
-0.001587
0.001862
-0.000759
-0.001951
-0.002375
0.001749
-0.002305
0.001168
0.001359
-0.001753
-0.001895
-0.000514
0.000857
-0.001076
-0.001567
-0.001727
0.001334
0.001284
-0.000072
0.000699
-0.001349
0.000938
0.001691
0.001222
-0.001179
-0.001362
0.001900
0.000173
0.000451
-0.000871
0.001539
0.001110
0.001030
-0.001511
-0.000552
0.000851
0.001111
-0.001338
-0.000042
0.001120
-0.001380
0.001139
-0.002389
-0.000580
-0.001672
-0.000241
-0.002728
-0.000397
-0.000098
0.000344
-0.000016
0.000105
-0.000519
-0.002426
-0.002479
-0.000605
0.002061
-0.001577
-0.000274
0.000262
-0.002034
-0.000477
0.000246
0.001138
0.001822
0.000682
-0.001494
-0.002410
-0.000047
0.002078
0.001314
0.001369
0.001768
0.000332
0.000211
-0.000232
0.001782
-0.000833
-0.001609
0.000259
-0.001425
0.001001
-0.002518
-0.002464
0.001734
-0.000327
0.000405
-0.001539
0.001048
0.000218
0.000310
0.001029
-0.001288
-0.001489
0.001291
0.001157
0.001341
-0.002080
-0.000066
-0.001214
0.000722
0.001877
0.000858
-0.000038
0.001733
-0.000491
-0.001124
-0.001529
-0.002397
0.000990
0.001882
0.001453
-0.002456
-0.001615
0.000405
0.000014
-0.002391
-0.000843
-0.001194
0.000888
0.000206
-0.001536
-0.001430
0.001976
-0.001242
0.001109
0.000719
-0.001810
0.001688
-0.000558
0.001598
0.001228
-0.002162
-0.002000
-0.002230
0.000783
-0.000253
-0.000218
-0.002635
-0.001767
0.001657
-0.002342
0.000608
-0.001496
-0.000654
0.000400
0.001184
-0.000172
0.000947
-0.000211
0.000250
0.002107
0.000917
-0.001362
0.001226
0.001459
-0.001372
-0.002331
-0.000652
0.000310
0.000912
0.000114
-0.001550
0.001025
-0.000508
-0.001504
-0.001429
-0.001203
0.001008
-0.001054
0.001114
-0.001771
0.001036
-0.000334
0.000592
-0.001502
-0.000153
0.000118
0.000343
0.001060
-0.000011
0.001089
0.001623
-0.000132
-0.000391
-0.000384
-0.000612
-0.000474
-0.000583
-0.002524
0.001756
0.001742
-0.000490
-0.000041
0.000044
-0.001632
0.000266
-0.001942
0.000177
-0.000613
0.000719
0.001799
-0.002497
-0.000323
-0.000905
-0.002390
0.001555
0.000318
0.000320
0.001732
-0.001312
-0.002208
0.001229
-0.002412
-0.002397
-0.002445
0.000421
-0.002637
0.001075
0.000382
0.000269
-0.000452
0.000962
-0.001520
-0.001512
0.000257
-0.001385
-0.001179
-0.001841
0.001251
-0.002037
0.001418
-0.000161
-0.002293
0.001569
0.000020
0.001673
-0.001064
-0.002379
-0.001386
-0.000510
0.001881
-0.001010
0.001623
0.000233
0.000879
0.001708
0.000472
-0.001189
-0.002443
-0.000145
-0.001227
-0.002493
0.000442
-0.000281
-0.000457
0.000078
0.000980
0.000929
0.000579
-0.002451
0.000409
-0.001668
0.000254
0.000658
-0.000294
0.001406
0.002008
-0.000698
-0.001988
-0.000736
-0.001216
-0.001656
-0.000628
0.001379
0.001075
-0.001234
-0.001019
0.001244
0.001002
0.000203
0.000746
0.000804
-0.001525
-0.001477
-0.001665
0.001809
-0.000348
0.000380
-0.000381
-0.001468
-0.001535
0.000934
-0.001251
-0.001465
-0.001186
0.001117
0.000698
0.000806
-0.002374
-0.002373
-0.001298
0.000025
0.000992
-0.002240
-0.002184
0.000954
0.000983
-0.001336
0.000033
-0.001389
-0.001464
-0.000622
-0.000089
0.001547
0.000179
-0.000345
0.000445
-0.000843
0.001191
-0.000170
0.000450
0.000328
0.001093
-0.000064
-0.000471
0.001767
-0.000638
0.000015
-0.000533
0.000101
0.002031
0.001963
0.000363
-0.000610
0.001527
0.001719
-0.002492
0.001676
-0.000375
-0.000110
-0.002554
-0.001748
-0.000192
0.000024
0.000437
0.000227
0.001733
0.000452
0.001636
0.000743
-0.002392
-0.000549
-0.002393
-0.000970
-0.002342
0.000778
-0.001855
-0.002154
-0.002287
0.001125
0.000354
0.000855
-0.000343
0.000858
0.001027
-0.001426
0.000313
-0.001757
0.001171
0.001286
0.001081
0.000156
-0.002164
0.000605
0.001559
0.001502
-0.000366
0.001726
-0.001090
-0.001163
-0.001728
-0.000621
-0.000126
-0.001344
0.000537
0.001861
-0.001564
-0.001334
-0.000417
-0.000530
0.001014
-0.002340
-0.001112
-0.001964
-0.002385
0.000921
0.000099
0.000235
0.000641
-0.000119
0.001946
0.000421
0.000459
0.000665
-0.000503
-0.001410
0.001618
-0.001553
-0.001902
0.001823
-0.001361
-0.000266
-0.000773
0.000948
-0.001037
-0.000888
-0.002330
-0.000542
0.000755
0.000337
0.000178
-0.002295
-0.001094
0.000912
0.000988
0.000619
-0.001453
-0.001405
0.001602
-0.000910
0.001157
0.001471
-0.001154
0.000777
0.001049
0.000504
0.001355
0.000816
0.000130
0.000869
-0.001101
0.000582
-0.000549
-0.001387
-0.001435
0.001821
0.000734
-0.001055
-0.001900
-0.000064
0.000923
-0.001313
0.001122
0.000939
-0.000010
0.001481
0.000385
-0.000473
0.000143
-0.000212
0.000345
0.000474
-0.000652
-0.000095
-0.002517
-0.002420
-0.002122
-0.000529
-0.000350
-0.000003
0.000538
0.000074
-0.000422
0.001918
-0.000647
0.001483
0.001626
0.000374
-0.000084
-0.001642
-0.000596
-0.002082
-0.002433
-0.000209
0.000459
-0.002230
0.001700
0.001730
0.001679
0.001700
-0.002424
0.000855
-0.002357
-0.000240
0.000477
-0.002358
-0.002344
0.001667
0.000732
-0.001539
0.001067
-0.000981
-0.001808
0.000979
0.001060
-0.001923
0.001384
-0.000392
0.001497
-0.000420
0.000464
-0.000949
-0.002318
0.001614
0.001651
0.000622
0.001849
0.001658
-0.001281
-0.001204
-0.001751
-0.001060
0.001301
0.000658
-0.000167
0.001657
0.000150
0.000405
-0.002244
0.000165
0.000430
-0.002387
-0.000931
-0.000856
-0.000593
0.000906
0.000838
0.000792
0.000830
-0.002372
-0.001087
-0.001049
0.001195
0.000599
0.000253
-0.002219
0.001453
-0.001571
0.001783
-0.002400
-0.001391
-0.000052
0.001196
0.001317
0.000636
0.000889
0.001311
-0.001296
0.001728
-0.001437
0.001404
0.000037
0.001615
0.000993
0.001556
-0.000671
0.000131
-0.001666
0.000518
-0.001349
-0.000919
-0.001284
-0.001107
0.000569
-0.001467
-0.002317
0.000842
0.000874
-0.001424
-0.000665
0.001121
0.000889
0.001815
0.000022
0.000373
0.000052
-0.000166
0.001824
0.000973
0.000396
-0.000660
-0.000424
-0.000217
-0.000259
0.000455
-0.002097
0.000279
-0.000131
-0.002010
0.000197
0.001534
0.000612
0.000273
-0.000674
-0.000520
0.001566
-0.001374
-0.002473
-0.000027
0.000500
-0.000235
0.000059
-0.001227
0.001772
-0.000646
-0.001186
-0.002167
-0.000574
-0.001442
-0.000357
0.000384
-0.002338
0.000463
-0.002318
-0.002386
0.001664
0.001680
0.000517
-0.002019