# vtk DataFile Version 2.0
Test
ASCII
DATASET POLYDATA
POINTS 4677 float
0.000000 0.000000 0.000000
0.080000 0.000000 0.000000
0.080000 0.160000 0.000000
0.000000 0.160000 0.000000
0.036000 0.073072 0.000000
0.044000 0.086928 0.000000
0.024500 0.065566 0.000000
0.055500 0.093560 0.000000
0.001000 0.050000 0.000000
0.079000 0.110000 0.000000
0.002963 0.000000 0.000000
0.005926 0.000000 0.000000
0.008889 0.000000 0.000000
0.011852 0.000000 0.000000
0.014815 0.000000 0.000000
0.017778 0.000000 0.000000
0.020741 0.000000 0.000000
0.023704 0.000000 0.000000
0.026667 0.000000 0.000000
0.029630 0.000000 0.000000
0.032593 0.000000 0.000000
0.035556 0.000000 0.000000
0.038519 0.000000 0.000000
0.041481 0.000000 0.000000
0.044444 0.000000 0.000000
0.047407 0.000000 0.000000
0.050370 0.000000 0.000000
0.053333 0.000000 0.000000
0.056296 0.000000 0.000000
0.059259 0.000000 0.000000
0.062222 0.000000 0.000000
0.065185 0.000000 0.000000
0.068148 0.000000 0.000000
0.071111 0.000000 0.000000
0.074074 0.000000 0.000000
0.077037 0.000000 0.000000
0.080000 0.002963 0.000000
0.080000 0.005926 0.000000
0.080000 0.008889 0.000000
0.080000 0.011852 0.000000
0.080000 0.014815 0.000000
0.080000 0.017778 0.000000
0.080000 0.020741 0.000000
0.080000 0.023704 0.000000
0.080000 0.026667 0.000000
0.080000 0.029630 0.000000
0.080000 0.032593 0.000000
0.080000 0.035556 0.000000
0.080000 0.038519 0.000000
0.080000 0.041481 0.000000
0.080000 0.044444 0.000000
0.080000 0.047407 0.000000
0.080000 0.050370 0.000000
0.080000 0.053333 0.000000
0.080000 0.056296 0.000000
0.080000 0.059259 0.000000
0.080000 0.062222 0.000000
0.080000 0.065185 0.000000
0.080000 0.068148 0.000000
0.080000 0.071111 0.000000
0.080000 0.074074 0.000000
0.080000 0.077037 0.000000
0.080000 0.080000 0.000000
0.080000 0.082963 0.000000
0.080000 0.085926 0.000000
0.080000 0.088889 0.000000
0.080000 0.091852 0.000000
0.080000 0.094815 0.000000
0.080000 0.097778 0.000000
0.080000 0.100741 0.000000
0.080000 0.103704 0.000000
0.080000 0.106667 0.000000
0.080000 0.109630 0.000000
0.080000 0.112593 0.000000
0.080000 0.115556 0.000000
0.080000 0.118519 0.000000
0.080000 0.121481 0.000000
0.080000 0.124444 0.000000
0.080000 0.127407 0.000000
0.080000 0.130370 0.000000
0.080000 0.133333 0.000000
0.080000 0.136296 0.000000
0.080000 0.139259 0.000000
0.080000 0.142222 0.000000
0.080000 0.145185 0.000000
0.080000 0.148148 0.000000
0.080000 0.151111 0.000000
0.080000 0.154074 0.000000
0.080000 0.157037 0.000000
0.077037 0.160000 0.000000
0.074074 0.160000 0.000000
0.071111 0.160000 0.000000
0.068148 0.160000 0.000000
0.065185 0.160000 0.000000
0.062222 0.160000 0.000000
0.059259 0.160000 0.000000
0.056296 0.160000 0.000000
0.053333 0.160000 0.000000
0.050370 0.160000 0.000000
0.047407 0.160000 0.000000
0.044444 0.160000 0.000000
0.041481 0.160000 0.000000
0.038519 0.160000 0.000000
0.035556 0.160000 0.000000
0.032593 0.160000 0.000000
0.029630 0.160000 0.000000
0.026667 0.160000 0.000000
0.023704 0.160000 0.000000
0.020741 0.160000 0.000000
0.017778 0.160000 0.000000
0.014815 0.160000 0.000000
0.011852 0.160000 0.000000
0.008889 0.160000 0.000000
0.005926 0.160000 0.000000
0.002963 0.160000 0.000000
0.000000 0.157037 0.000000
0.000000 0.154074 0.000000
0.000000 0.151111 0.000000
0.000000 0.148148 0.000000
0.000000 0.145185 0.000000
0.000000 0.142222 0.000000
0.000000 0.139259 0.000000
0.000000 0.136296 0.000000
0.000000 0.133333 0.000000
0.000000 0.130370 0.000000
0.000000 0.127407 0.000000
0.000000 0.124444 0.000000
0.000000 0.121481 0.000000
0.000000 0.118519 0.000000
0.000000 0.115556 0.000000
0.000000 0.112593 0.000000
0.000000 0.109630 0.000000
0.000000 0.106667 0.000000
0.000000 0.103704 0.000000
0.000000 0.100741 0.000000
0.000000 0.097778 0.000000
0.000000 0.094815 0.000000
0.000000 0.091852 0.000000
0.000000 0.088889 0.000000
0.000000 0.085926 0.000000
0.000000 0.082963 0.000000
0.000000 0.080000 0.000000
0.000000 0.077037 0.000000
0.000000 0.074074 0.000000
0.000000 0.071111 0.000000
0.000000 0.068148 0.000000
0.000000 0.065185 0.000000
0.000000 0.062222 0.000000
0.000000 0.059259 0.000000
0.000000 0.056296 0.000000
0.000000 0.053333 0.000000
0.000000 0.050370 0.000000
0.000000 0.047407 0.000000
0.000000 0.044444 0.000000
0.000000 0.041481 0.000000
0.000000 0.038519 0.000000
0.000000 0.035556 0.000000
0.000000 0.032593 0.000000
0.000000 0.029630 0.000000
0.000000 0.026667 0.000000
0.000000 0.023704 0.000000
0.000000 0.020741 0.000000
0.000000 0.017778 0.000000
0.000000 0.014815 0.000000
0.000000 0.011852 0.000000
0.000000 0.008889 0.000000
0.000000 0.005926 0.000000
0.000000 0.002963 0.000000
0.035500 0.072746 0.000000
0.035000 0.072419 0.000000
0.034500 0.072093 0.000000
0.034000 0.071767 0.000000
0.033500 0.071440 0.000000
0.033000 0.071114 0.000000
0.032500 0.070788 0.000000
0.032000 0.070461 0.000000
0.031500 0.070135 0.000000
0.031000 0.069809 0.000000
0.030500 0.069482 0.000000
0.030000 0.069156 0.000000
0.029500 0.068829 0.000000
0.029000 0.068503 0.000000
0.028500 0.068177 0.000000
0.028000 0.067850 0.000000
0.027500 0.067524 0.000000
0.027000 0.067198 0.000000
0.026500 0.066871 0.000000
0.026000 0.066545 0.000000
0.025500 0.066219 0.000000
0.025000 0.065892 0.000000
0.044500 0.087216 0.000000
0.045000 0.087505 0.000000
0.045500 0.087793 0.000000
0.046000 0.088081 0.000000
0.046500 0.088370 0.000000
0.047000 0.088658 0.000000
0.047500 0.088946 0.000000
0.048000 0.089235 0.000000
0.048500 0.089523 0.000000
0.049000 0.089811 0.000000
0.049500 0.090100 0.000000
0.050000 0.090388 0.000000
0.050500 0.090677 0.000000
0.051000 0.090965 0.000000
0.051500 0.091253 0.000000
0.052000 0.091542 0.000000
0.052500 0.091830 0.000000
0.053000 0.092118 0.000000
0.053500 0.092407 0.000000
0.054000 0.092695 0.000000
0.054500 0.092983 0.000000
0.055000 0.093272 0.000000
0.043704 0.086415 0.000000
0.043407 0.085902 0.000000
0.043111 0.085388 0.000000
0.042815 0.084875 0.000000
0.042519 0.084362 0.000000
0.042222 0.083849 0.000000
0.041926 0.083336 0.000000
0.041630 0.082823 0.000000
0.041333 0.082309 0.000000
0.041037 0.081796 0.000000
0.040741 0.081283 0.000000
0.040444 0.080770 0.000000
0.040148 0.080257 0.000000
0.039852 0.079743 0.000000
0.039556 0.079230 0.000000
0.039259 0.078717 0.000000
0.038963 0.078204 0.000000
0.038667 0.077691 0.000000
0.038370 0.077177 0.000000
0.038074 0.076664 0.000000
0.037778 0.076151 0.000000
0.037481 0.075638 0.000000
0.037185 0.075125 0.000000
0.036889 0.074612 0.000000
0.036593 0.074098 0.000000
0.036296 0.073585 0.000000
0.024000 0.065235 0.000000
0.023500 0.064904 0.000000
0.023000 0.064572 0.000000
0.022500 0.064241 0.000000
0.022000 0.063910 0.000000
0.021500 0.063579 0.000000
0.021000 0.063248 0.000000
0.020500 0.062916 0.000000
0.020000 0.062585 0.000000
0.019500 0.062254 0.000000
0.019000 0.061923 0.000000
0.018500 0.061592 0.000000
0.018000 0.061261 0.000000
0.017500 0.060929 0.000000
0.017000 0.060598 0.000000
0.016500 0.060267 0.000000
0.016000 0.059936 0.000000
0.015500 0.059605 0.000000
0.015000 0.059273 0.000000
0.014500 0.058942 0.000000
0.014000 0.058611 0.000000
0.013500 0.058280 0.000000
0.013000 0.057949 0.000000
0.012500 0.057617 0.000000
0.012000 0.057286 0.000000
0.011500 0.056955 0.000000
0.011000 0.056624 0.000000
0.010500 0.056293 0.000000
0.010000 0.055961 0.000000
0.009500 0.055630 0.000000
0.009000 0.055299 0.000000
0.008500 0.054968 0.000000
0.008000 0.054637 0.000000
0.007500 0.054305 0.000000
0.007000 0.053974 0.000000
0.006500 0.053643 0.000000
0.006000 0.053312 0.000000
0.005500 0.052981 0.000000
0.005000 0.052650 0.000000
0.004500 0.052318 0.000000
0.004000 0.051987 0.000000
0.003500 0.051656 0.000000
0.003000 0.051325 0.000000
0.002500 0.050994 0.000000
0.002000 0.050662 0.000000
0.001500 0.050331 0.000000
0.055990 0.093902 0.000000
0.056479 0.094245 0.000000
0.056969 0.094587 0.000000
0.057458 0.094930 0.000000
0.057948 0.095272 0.000000
0.058437 0.095615 0.000000
0.058927 0.095957 0.000000
0.059417 0.096300 0.000000
0.059906 0.096642 0.000000
0.060396 0.096985 0.000000
0.060885 0.097327 0.000000
0.061375 0.097670 0.000000
0.061865 0.098012 0.000000
0.062354 0.098355 0.000000
0.062844 0.098697 0.000000
0.063333 0.099040 0.000000
0.063823 0.099382 0.000000
0.064312 0.099725 0.000000
0.064802 0.100067 0.000000
0.065292 0.100410 0.000000
0.065781 0.100752 0.000000
0.066271 0.101095 0.000000
0.066760 0.101437 0.000000
0.067250 0.101780 0.000000
0.067740 0.102122 0.000000
0.068229 0.102465 0.000000
0.068719 0.102807 0.000000
0.069208 0.103150 0.000000
0.069698 0.103492 0.000000
0.070187 0.103835 0.000000
0.070677 0.104177 0.000000
0.071167 0.104520 0.000000
0.071656 0.104862 0.000000
0.072146 0.105205 0.000000
0.072635 0.105547 0.000000
0.073125 0.105890 0.000000
0.073615 0.106232 0.000000
0.074104 0.106575 0.000000
0.074594 0.106917 0.000000
0.075083 0.107260 0.000000
0.075573 0.107602 0.000000
0.076062 0.107945 0.000000
0.076552 0.108287 0.000000
0.077042 0.108630 0.000000
0.077531 0.108972 0.000000
0.078021 0.109315 0.000000
0.078510 0.109658 0.000000
0.043942 0.087469 0.000000
0.035556 0.157037 0.000000
0.044420 0.002920 0.000000
0.077037 0.038519 0.000000
0.002963 0.121481 0.000000
0.077037 0.059259 0.000000
0.002963 0.109630 0.000000
0.002923 0.098139 0.000000
0.077153 0.126913 0.000000
0.002808 0.032596 0.000000
0.077140 0.071061 0.000000
0.002963 0.085926 0.000000
0.002963 0.136296 0.000000
0.077041 0.023701 0.000000
0.056296 0.157037 0.000000
0.032593 0.002963 0.000000
0.077037 0.080000 0.000000
0.002813 0.077135 0.000000
0.077037 0.142222 0.000000
0.017778 0.157037 0.000000
0.062222 0.002963 0.000000
0.076992 0.088722 0.000000
0.002945 0.020743 0.000000
0.017777 0.002962 0.000000
0.002801 0.068434 0.000000
0.002959 0.011851 0.000000
0.065186 0.157038 0.000000
0.002963 0.148148 0.000000
0.077037 0.011852 0.000000
0.076887 0.094740 0.000000
0.077092 0.115875 0.000000
0.002677 0.044265 0.000000
0.077038 0.148148 0.000000
0.002985 0.062165 0.000000
0.077037 0.047407 0.000000
0.011852 0.002963 0.000000
[...]
POINT_DATA 4677
SCALARS UX float 1
LOOKUP_TABLE default
-0.000001
0.000001
-0.023576
-0.168566
-0.054072
-0.076573
-0.072544
-0.059590
-0.080809
-0.049072
-0.000000
-0.000000
-0.000000
-0.000000
-0.000000
-0.000000
-0.000000
-0.000000
-0.000000
-0.000000
-0.000000
-0.000000
-0.000000
0.000000
0.000000
0.000000
0.000000
0.000000
0.000000
0.000000
0.000000
0.000000
0.000000
0.000000
0.000000
-0.000000
0.005966
0.009538
0.012352
0.014700
0.016720
0.018482
0.020016
0.021298
0.022358
0.023158
0.023938
0.024215
0.024157
0.023936
0.023049
0.021832
0.020010
0.017490
0.014364
0.010706
0.006499
0.002311
-0.001673
-0.004686
-0.005153
-0.008725
-0.013653
-0.016602
-0.019290
-0.024018
-0.029500
-0.033232
-0.037445
-0.040594
-0.043706
-0.046308
-0.047446
-0.048245
-0.050095
-0.048488
-0.054130
-0.061768
-0.063588
-0.062206
-0.058738
-0.054980
-0.051339
-0.046069
-0.045665
-0.043721
-0.039305
-0.033890
-0.028814
-0.028505
-0.033635
-0.038521
-0.042938
-0.049893
-0.050473
-0.061699
-0.073993
-0.083529
-0.091691
-0.096831
-0.103614
-0.110693
-0.118005
-0.123191
-0.129189
-0.134434
-0.139689
-0.146350
-0.150216
-0.153401
-0.156447
-0.159147
-0.161663
-0.164016
-0.166352
-0.168400
-0.168070
-0.167547
-0.166812
-0.165867
-0.164733
-0.163441
-0.162003
-0.160463
-0.158738
-0.156958
-0.154892
-0.152674
-0.150146
-0.147276
-0.144119
-0.140574
-0.136864
-0.133199
-0.129684
-0.126389
-0.123398
-0.120606
-0.118133
-0.115913
-0.113087
-0.109998
-0.107550
-0.105291
-0.103304
-0.099929
-0.097424
-0.093159
-0.089760
-0.087059
-0.084449
-0.081982
-0.079617
-0.077851
-0.076323
-0.074496
-0.071122
-0.066732
-0.065778
-0.064838
-0.062380
-0.054190
-0.051708
-0.047359
-0.040752
-0.033459
-0.025401
-0.015606
-0.055080
-0.050743
-0.054819
-0.057287
-0.059941
-0.062664
-0.066022
-0.065605
-0.067454
-0.069206
-0.071117
-0.071057
-0.068779
-0.070063
-0.071416
-0.056722
-0.059289
-0.061873
-0.059367
-0.060767
-0.067029
-0.071055
-0.075132
-0.076014
-0.079103
-0.076629
-0.071725
-0.068937
-0.068039
-0.067761
-0.068001
-0.067530
-0.068501
-0.068625
-0.066675
-0.067296
-0.065021
-0.063660
-0.064721
-0.063094
-0.063555
-0.062109
-0.060025
-0.059210
-0.077285
-0.076462
-0.075632
-0.074594
-0.073619
-0.072627
-0.071637
-0.070652
-0.069657
-0.068640
-0.067598
-0.066546
-0.065498
-0.064470
-0.063551
-0.062670
-0.061788
-0.060870
-0.059773
-0.058839
-0.057941
-0.057046
-0.056179
-0.055341
-0.054558
-0.053793
-0.073088
-0.073740
-0.073299
-0.073424
-0.073507
-0.073771
-0.074038
-0.074322
-0.074660
-0.074965
-0.075239
-0.075490
-0.075747
-0.075994
-0.076237
-0.076467
-0.076691
-0.076905
-0.077106
-0.077310
-0.077511
-0.077719
-0.077927
-0.078137
-0.078352
-0.078576
-0.078796
-0.078995
-0.079205
-0.079354
-0.079448
-0.079551
-0.079629
-0.079697
-0.079759
-0.079812
-0.079862
-0.079918
-0.079975
-0.080040
-0.080113
-0.080193
-0.080295
-0.080416
-0.080535
-0.080675
-0.058212
-0.057718
-0.057328
-0.056967
-0.056707
-0.056422
-0.056453
-0.056443
-0.056496
-0.056565
-0.056649
-0.056739
-0.056829
-0.056914
-0.057000
-0.057092
-0.057184
-0.057272
-0.057358
-0.057449
-0.057547
-0.057512
-0.057520
-0.057444
-0.057225
-0.056936
-0.056653
-0.056309
-0.056016
-0.055655
-0.055433
-0.055109
-0.054878
-0.054701
-0.054238
-0.054102
-0.053825
-0.053600
-0.053505
-0.053162
-0.052837
-0.052366
-0.051830
-0.051280
-0.050811
-0.050219
-0.049639
-0.077223
-0.125918
0.000163
0.023021
-0.150519
0.008673
-0.138439
-0.124271
-0.068020
-0.060497
-0.007751
-0.113108
-0.159872
0.019692
-0.083154
-0.000421
-0.018028
-0.104943
-0.050413
-0.154302
0.001605
-0.027128
-0.047573
-0.001572
-0.096605
-0.034219
-0.054642
-0.164729
0.012997
-0.036209
-0.060215
-0.075128
-0.047946
-0.090102
0.020409
-0.003938
-0.043649
-0.164046
0.002937
-0.086930
-0.043141
-0.065224
-0.115615
-0.102290
-0.000231
-0.156649
0.021737
-0.147903
0.001108
-0.032923
-0.063710
-0.073268
-0.076602
-0.061820
-0.070176
-0.085985
-0.101775
-0.020340
-0.118225
-0.110085
0.000010
-0.010721
0.015892
-0.131055
-0.046658
-0.145227
-0.056691
-0.054695
0.022552
-0.138962
-0.063552
0.000614
-0.000090
-0.154755
0.022443
-0.000295
-0.044547
-0.000821
-0.070280
-0.095507
-0.162630
0.016829
-0.027132
-0.005304
-0.017639
-0.159252
0.002175
-0.044167
-0.008399
-0.009089
-0.165961
0.007556
-0.166267
0.003780
-0.051457
-0.077946
-0.079483
-0.081989
-0.048912
-0.078065
0.000058
0.021703
-0.015201
-0.050229
-0.107936
-0.067350
-0.099807
-0.154441
-0.070025
-0.001883
-0.070189
-0.040648
-0.086821
-0.023479
-0.048446
-0.087611
-0.029860
-0.009416
-0.015612
-0.052923
-0.163779
0.006029
-0.053549
-0.077305
-0.039289
-0.094480
-0.032029
-0.099348
-0.081372
-0.022621
-0.065388
-0.067631
-0.048971
-0.107879
-0.012486
-0.116035
-0.121246
-0.003641
0.004593
-0.127708
-0.134790
0.012725
-0.142161
0.018596
-0.067656
0.021741
-0.148103
-0.121722
-0.152758
0.022886
-0.133555
0.000371
-0.108025
-0.053145
-0.143187
0.000850
-0.000366
-0.056897
-0.158338
0.020819
-0.087799
-0.000380
-0.151812
0.001348
-0.041051
-0.001628
-0.059413
-0.161332
0.018377
-0.002720
-0.163776
0.015060
-0.047856
-0.049751
-0.156778
0.001868
-0.038269
-0.038373
-0.161684
0.002527
-0.165456
0.010558
-0.079942
-0.050353
-0.051636
-0.083989
-0.079722
-0.075393
-0.078164
-0.047812
-0.083853
-0.068121
-0.068938
-0.075781
-0.075149
-0.074989
0.003617
-0.118104
-0.132728
-0.071531
-0.066277
-0.135801
-0.152500
-0.096227
0.001821
0.019183
-0.034272
-0.159164
-0.156900
-0.041448
0.013403
-0.161626
0.003806
-0.053051
-0.078683
-0.070316
0.010974
-0.140227
0.017063
-0.145962
-0.111257
-0.156125
-0.070075
-0.003963
-0.007203
-0.163307
-0.054124
-0.048434
-0.078759
-0.052177
-0.074620
-0.060486
-0.018373
-0.090088
-0.068348
-0.104902
-0.082538
-0.027309
-0.025688
-0.125289
-0.049650
-0.058419
-0.063934
-0.072263
-0.006482
-0.011377
-0.112141
0.021552
-0.000564
-0.000316
-0.047643
0.020182
0.021200
0.000912
0.000447
-0.109977
-0.073141
-0.104905
-0.146587
-0.093954
-0.150480
-0.152423
-0.064580
-0.055698
-0.072240
-0.124615
-0.046290
-0.000947
-0.078030
-0.036052
-0.001387
0.016670
0.002762
-0.043976
-0.023458
-0.012045
-0.043737
-0.161541
0.005039
0.008891
-0.052410
-0.079136
-0.077282
-0.052978
-0.079114
-0.081027
-0.049452
-0.079913
-0.050141
-0.077503
-0.074301
-0.075221
-0.075922
-0.078321
-0.000193
0.019821
-0.013380
-0.109060
-0.113793
-0.148396
-0.047478
-0.079875
-0.029127
-0.001121
-0.096982
-0.040233
-0.035360
-0.012179
-0.077771
-0.055233
-0.073494
-0.073384
-0.098407
0.021161
0.000849
-0.077900
-0.004829
-0.078717
-0.061823
-0.152271
-0.161125
0.007542
-0.074147
-0.093187
-0.037371
-0.053141
-0.088503
-0.129611
-0.101551
-0.115125
-0.120564
0.020313
-0.000129
-0.065462
0.007451
-0.136918
0.014589
-0.023118
-0.143431
-0.073247
-0.030497
-0.107131
-0.118603
-0.000722
-0.142363
-0.157737
0.018800
0.001357
-0.148525
-0.042420
-0.109263
0.020184
-0.148251
0.002294
-0.154576
-0.056853
0.018014
-0.031482
-0.019017
0.015158
-0.054023
-0.062034
-0.005259
-0.160462
0.003252
-0.129919
-0.159273
-0.162590
-0.049026
0.011338
0.004384
-0.064519
-0.071214
-0.069561
-0.079030
-0.081526
-0.079376
-0.075592
-0.050926
-0.075981
-0.057206
-0.076494
-0.073933
-0.052922
-0.080868
-0.077470
-0.050914
-0.054742
-0.076328
-0.073433
-0.074909
-0.079489
-0.072575
-0.079515
-0.071441
0.004349
-0.122019
-0.106473
-0.048175
-0.073599
-0.117580
-0.096754
-0.065812
-0.146452
-0.036648
-0.156937
0.002901
0.017485
-0.038052
-0.087077
-0.154586
-0.134831
0.004919
0.013540
0.012733
-0.000515
-0.060363
-0.126830
-0.141408
-0.146450
-0.064102
-0.031375
-0.009294
0.009815
-0.158933
-0.017887
-0.074362
-0.068706
-0.076895
-0.092777
-0.115541
-0.105400
-0.111729
-0.000905
-0.004804
0.019473
-0.127145
0.018950
-0.119696
0.000275
-0.057888
-0.072173
-0.078325
-0.101622
-0.030394
-0.026529
-0.102692
0.015574
-0.070867
-0.044605
-0.153966
-0.149208
-0.002197
0.020180
-0.037795
-0.089943
-0.006860
-0.009306
0.003548
-0.138130
-0.071138
-0.059921
-0.150429
0.016335
-0.025760
-0.058557
-0.015354
0.001535
-0.158232
-0.160421
0.005668
0.006511
-0.060087
-0.077463
-0.073716
-0.073601
-0.078344
-0.079317
-0.054544
-0.053684
-0.078372
-0.080673
-0.080010
-0.052500
-0.091030
-0.074243
-0.064432
-0.030358
-0.076271
-0.018971
-0.070532
-0.076210
-0.073724
-0.075647
-0.057337
-0.074970
-0.073588
0.018230
-0.007893
-0.143994
0.000440
-0.028928
-0.060871
-0.082777
-0.072487
-0.034422
-0.100743
-0.150098
-0.145986
-0.002342
-0.073041
-0.075391
0.004011
0.016209
-0.060244
-0.081309
-0.154598
-0.158239
-0.070959
-0.039435
0.018075
-0.076346
-0.017910
-0.010983
0.006506
-0.034493
-0.021717
0.008527
-0.072235
-0.066211
-0.108510
0.010968
-0.071473
-0.044476
-0.000787
-0.119267
0.017554
-0.000016
-0.123572
-0.075400
-0.131751
-0.070256
-0.138791
0.001369
-0.144402
-0.082341
-0.107696
-0.098254
-0.034316
-0.078243
-0.090682
-0.024273
0.002199
-0.034295
-0.104466
-0.036716
-0.056827
-0.146268
0.018487
-0.027612
-0.133305
-0.064872
-0.152423
0.015027
-0.003147
-0.065113
0.004204
-0.155494
-0.113199
-0.014735
-0.069608
-0.144153
0.011812
-0.159430
-0.156740
0.018558
-0.054463
-0.079370
-0.078739
-0.087912
-0.075058
-0.076272
-0.072207
-0.077302
-0.075409
-0.079774
-0.080467
-0.067825
-0.072081
-0.073878
-0.072218
-0.111165
-0.094248
-0.103304
-0.080566
-0.081920
0.007773
-0.054135
-0.026294
-0.015520
-0.076878
-0.080493
-0.052945
-0.073856
-0.056756
-0.078813
-0.052680
-0.051594
-0.053727
-0.073508
-0.079837
-0.069463
-0.128653
-0.104188
-0.076702
-0.121808
-0.141913
-0.094755
0.001027
-0.045069
0.016297
-0.063544
-0.070419
-0.001835
-0.036899
-0.035031
-0.086146
-0.108990
-0.074014
-0.085575
-0.151194
-0.058721
0.000946
-0.079409
0.014278
-0.132861
-0.070117
-0.080604
-0.136611
-0.030919
-0.143177
0.003113
-0.013695
-0.070168
0.013346
-0.091033
0.005644
-0.153178
0.010370
-0.157196
-0.077760
-0.075376
-0.117693
-0.098923
-0.102917
-0.052221
0.007812
-0.003535
-0.106694
-0.055334
0.017525
-0.031906
-0.000341
-0.089681
-0.012399
-0.141322
0.002221
-0.001446
-0.080668
-0.148399
-0.026697
-0.081293
-0.055572
-0.115137
-0.007606
-0.023512
-0.075184
-0.022386
0.017658
-0.091600
0.004796
-0.151693
0.014637
-0.068457
0.018502
-0.155901
-0.054923
-0.128308
-0.148402
0.007442
-0.017595
-0.052128
-0.156033
-0.078989
-0.038420
-0.055460
-0.063314
-0.073601
-0.070903
-0.075749
-0.078316
-0.080939
-0.071178
-0.078024
-0.036567
-0.069793
-0.072056
-0.079108
-0.071187
-0.080696
-0.080720
-0.114936
-0.075826
-0.054830
-0.070708
-0.069212
-0.051488
-0.081558
-0.049421
-0.079244
-0.054747
-0.071376
-0.079144
-0.078422
-0.042145
-0.072241
-0.080962
-0.080867
-0.067955
-0.002380
-0.017785
-0.102419
-0.051678
-0.032512
-0.068000
0.004098
-0.111202
-0.140787
-0.147869
0.013253
-0.069798
-0.068503
0.006065
-0.075297
-0.078239
-0.120014
-0.036330
0.015249
-0.046231
-0.139435
-0.093675
0.015832
-0.026902
-0.009492
-0.079102
-0.084886
-0.153536
-0.147100
-0.079483
-0.112198
-0.125041
-0.076939
-0.134287
-0.041728
-0.000384
-0.001728
-0.050297
0.009648
-0.087578
-0.088925
-0.036728
-0.070121
-0.082250
-0.125955
-0.068828
-0.056198
-0.009973
-0.086234
-0.137112
0.016438
-0.033487
-0.101263
-0.085579
-0.005404
-0.144282
-0.076761
-0.076982
-0.085689
-0.102220
-0.040001
-0.038542
-0.019407
-0.092640
-0.118812
-0.028106
-0.149377
-0.102154
0.016405
0.016549
-0.154925
-0.074147
0.009109
0.012003
-0.056580
-0.153687
-0.150781
0.006994
-0.138656
-0.081573
-0.039976
0.001983
-0.079142
-0.062265
-0.068059
-0.074806
-0.078432
-0.074670
-0.085820
-0.056376
-0.080501
-0.070154
-0.072468
-0.076484
-0.080345
-0.095780
-0.067728
-0.081360
-0.072886
-0.070125
-0.052915
-0.065856
-0.081378
-0.077487
0.004668
-0.079059
-0.131500
-0.069736
0.000154
-0.055964
-0.070675
-0.054666
-0.067949
-0.078914
-0.081532
-0.137050
0.013973
-0.068067
-0.052624
-0.100468
0.000807
-0.092562
0.014457
-0.039624
-0.085796
-0.041483
-0.089974
-0.007670
-0.145453
-0.032262
-0.123947
-0.122723
-0.084544
-0.074266
-0.058280
-0.078010
-0.089827
-0.134772
-0.097047
0.007213
-0.067533
-0.136581
-0.104436
-0.082146
-0.100853
0.012133
-0.151155
0.005321
-0.080916
-0.084138
-0.061407
-0.041583
-0.076563
-0.078143
0.014230
-0.048918
-0.064363
-0.023594
-0.106245
-0.136684
0.014189
-0.034060
-0.131334
-0.088984
-0.029573
-0.018457
-0.013552
-0.001168
-0.029052
-0.139840
-0.006682
0.002966
0.010768
-0.085018
-0.027740
0.005094
-0.149783
-0.126950
-0.114823
0.007989
-0.144398
-0.081476
-0.024047
0.016704
-0.042223
-0.071085
-0.118191
-0.114799
-0.002243
-0.146973
-0.152535
-0.152090
-0.084168
-0.059180
-0.146181
-0.072980
0.002584
-0.109323
-0.038748
-0.082097
-0.067527
-0.080278
-0.081402
-0.076503
-0.068342
-0.078319
-0.069399
-0.067098
-0.073175
-0.064625
-0.074612
-0.055987
-0.055903
-0.068577
-0.081788
-0.050722
0.001615
-0.084731
-0.071411
-0.069135
-0.077614
-0.083772
-0.122298
-0.048149
-0.067885
-0.133408
-0.078645
-0.080298
-0.087129
-0.039612
-0.076817
-0.067322
-0.078957
-0.067562
-0.071586
-0.058474
-0.053418
-0.081358
-0.082057
-0.066191
-0.066986
-0.007926
-0.122289
-0.098652
-0.032724
0.000807
-0.134893
-0.069861
-0.043262
-0.073054
-0.115582
-0.083898
-0.133283
-0.142838
-0.143293
0.012769
-0.021723
-0.083678
-0.028380
-0.100725
-0.130417
-0.034002
0.012051
-0.079228
-0.134193
0.012624
-0.065814
-0.110087
-0.022617
0.003908
0.010714
-0.148640
-0.149651
0.006178
-0.143883
-0.050341
-0.000469
-0.001361
-0.039065
-0.057401
-0.028628
-0.087034
-0.036939
0.008491
-0.042585
-0.040039
0.013639
-0.075889
-0.118653
-0.016517
-0.094194
-0.083537
-0.012958
-0.054833
-0.087277
-0.053009
-0.106932
-0.085081
-0.099060
0.002705
-0.085664
-0.099240
0.008231
-0.090680
-0.078910
-0.148251
-0.089987
-0.040849
-0.113236
-0.067146
-0.125049
-0.141960
0.014619
0.014591
-0.111682
-0.100522
-0.003646
-0.049117
-0.043306
-0.083374
0.009403
-0.084426
-0.068197
-0.068345
-0.072886
-0.130487
-0.074741
-0.081351
-0.080922
-0.073448
-0.077362
-0.088834
-0.077620
-0.075911
-0.082160
-0.000165
-0.060490
-0.065440
-0.072548
-0.077117
-0.063439
-0.080154
-0.082529
-0.066135
-0.121740
-0.082111
-0.057504
-0.066716
-0.078691
-0.079679
-0.069065
-0.065992
-0.078061
-0.046235
-0.055832
-0.070315
-0.068145
-0.060187
-0.085197
-0.066835
-0.052090
-0.046144
-0.132283
-0.083652
-0.082444
-0.046687
-0.065342
-0.064786
-0.096820
-0.055737
-0.090754
-0.116173
-0.071381
0.012749
-0.041889
-0.071529
-0.043790
-0.094218
-0.066887
-0.108831
-0.001609
-0.048796
-0.064425
-0.128286
-0.082959
-0.087485
-0.125089
-0.102692
-0.082901
-0.132006
-0.080243
0.007091
0.003517
0.009620
-0.031121
-0.082288
-0.116304
-0.065630
0.011117
-0.094851
-0.124870
-0.052181
-0.012852
-0.095183
-0.084896
-0.059278
-0.074954
-0.012207
-0.035265
-0.050326
-0.097390
-0.128112
-0.089478
-0.024915
-0.043450
-0.097205
-0.074193
-0.076734
0.001933
0.011589
-0.147274
0.012320
-0.062122
-0.025916
-0.145744
-0.141335
-0.041788
0.005058
-0.106057
-0.137761
-0.067970
0.003134
0.014806
-0.039554
-0.005169
0.012564
-0.084650
-0.144461
-0.119470
-0.004350
-0.137280
-0.087263
-0.076816
-0.079107
-0.119772
0.000211
-0.085262
-0.072274
-0.078589
-0.065587
-0.077070
-0.074968
-0.082719
-0.078155
-0.080400
-0.081576
-0.046411
-0.127209
-0.080757
-0.071251
-0.065554
-0.075550
-0.065173
-0.080795
-0.053871
-0.093294
-0.036995
-0.078469
-0.066372
-0.040463
-0.030997
0.012068
-0.056953
-0.065991
-0.064155
-0.067787
-0.055588
-0.017797
-0.106007
-0.069404
-0.130155
-0.092477
-0.082873
-0.082303
-0.043906
-0.068848
-0.068067
-0.044390
-0.014093
-0.062543
-0.063532
-0.082869
-0.127375
-0.106699
-0.039033
-0.030307
-0.072551
-0.069201
0.002522
-0.138372
0.010918
-0.043623
-0.096039
-0.065146
-0.045463
-0.002165
-0.027862
-0.117440
-0.081003
-0.002613
-0.050834
-0.041469
-0.081846
-0.095299
-0.063307
-0.118684
-0.077744
-0.137011
-0.144896
0.012976
0.005946
-0.111294
-0.036104
-0.047472
-0.131900
0.006548
-0.097317
-0.093762
-0.061375
-0.083638
-0.043115
-0.076161
-0.089529
-0.093293
-0.073574
0.012174
-0.081290
-0.122521
-0.083714
-0.095567
-0.044831
-0.076133
0.010711
-0.103241
-0.131361
0.008223
-0.078403
0.001129
0.011219
-0.066173
-0.067857
-0.043835
-0.095264
-0.146251
-0.034782
-0.069528
-0.139431
-0.086047
-0.009761
-0.112051
0.012827
0.004761
-0.098947
-0.010342
-0.127863
-0.120469
-0.125756
-0.140104
-0.090481
-0.024583
-0.024465
-0.052152
-0.085805
-0.001669
-0.099509
-0.040735
-0.066187
-0.064371
-0.064765
-0.087458
-0.066794
0.008930
-0.063712
-0.079585
-0.071042
-0.069283
-0.080783
-0.074490
-0.078280
-0.081360
-0.056777
-0.056571
-0.083174
-0.077809
-0.075869
-0.047538
-0.063306
-0.062114
-0.073603
-0.082779
-0.094430
-0.053937
-0.082071
-0.081878
-0.020161
-0.077317
-0.042707
-0.069232
-0.068624
-0.058895
-0.125700
-0.088325
0.010508
-0.078784
-0.083892
-0.080007
-0.064012
-0.082545
-0.017829
-0.065486
-0.071199
-0.083597
-0.019509
-0.045378
-0.093595
-0.062125
-0.104484
-0.123210
-0.057391
-0.074301
-0.088333
-0.043824
0.001449
-0.083819
-0.045416
-0.118993
-0.046130
-0.135112
-0.082304
-0.115993
-0.127211
-0.049671
-0.023353
-0.062935
0.006645
-0.093563
-0.058340
0.009291
-0.141440
-0.081299
-0.064747
-0.136695
-0.081682
-0.063511
-0.000729
-0.071486
-0.063956
0.004292
0.009340
-0.101082
-0.080441
-0.062184
-0.092095
-0.070902
0.011189
-0.082356
-0.040747
-0.043703
-0.131631
-0.065982
-0.011900
-0.143768
-0.094123
-0.005642
-0.070816
-0.080403
-0.134375
-0.141965
-0.037163
-0.006227
-0.115468
0.011040
0.010572
-0.100867
-0.095248
-0.049558
-0.044863
-0.124828
-0.064585
-0.001703
-0.123395
-0.114193
-0.016012
-0.128933
-0.041281
-0.030072
-0.027740
0.010894
-0.097717
-0.078572
-0.077884
-0.123628
-0.063993
-0.088214
-0.084776
-0.086079
-0.086226
0.000889
-0.033520
0.004092
-0.036572
-0.108978
-0.079820
-0.064973
-0.066230
-0.062726
-0.067539
-0.067363
-0.016832
-0.032613
-0.080571
-0.105908
-0.061657
-0.021584
-0.078830
-0.073282
-0.054422
-0.082263
-0.076891
-0.084166
-0.074681
-0.044621
-0.043090
-0.063172
-0.083765
-0.044803
-0.058679
-0.081064
-0.060689
-0.082978
-0.121220
-0.082226
-0.053293
-0.064504
-0.065195
-0.065601
-0.072748
-0.056330
-0.062456
-0.041091
0.012093
-0.080668
-0.076698
-0.078673
-0.023040
-0.076593
-0.097892
-0.092073
-0.072098
-0.075226
-0.077993
-0.065826
-0.001235
-0.083459
-0.020916
-0.079512
-0.092433
-0.060600
-0.055028
-0.040491
-0.072331
-0.034393
-0.115305
-0.083680
0.009150
-0.064645
-0.046947
-0.124710
-0.046983
-0.026195
-0.120710
-0.090607
-0.078597
-0.062999
-0.106756
0.009970
-0.045748
-0.047235
-0.121685
-0.001770
-0.074100
-0.026433
-0.079758
-0.125708
-0.089174
-0.080289
-0.084991
-0.062152
-0.060680
0.010867
-0.121141
-0.046846
-0.061098
-0.105537
-0.101037
-0.084629
-0.113208
-0.047013
-0.091721
-0.061491
-0.051753
-0.118707
-0.000147
-0.011957
0.007144
-0.140699
-0.137377
-0.082808
-0.127219
-0.096710
0.007852
-0.072832
-0.075884
-0.134054
-0.011948
-0.022873
-0.101172
-0.097522
-0.101878
-0.046119
-0.020189
-0.076078
-0.044322
-0.124434
0.010974
-0.032072
-0.062922
-0.043550
0.009404
0.005376
-0.004832
-0.128800
0.009413
-0.005137
-0.038439
-0.042263
-0.052619
-0.099397
-0.136866
-0.090382
0.002780
-0.088661
-0.033138
-0.038570
-0.090553
-0.063225
-0.067653
-0.069287
-0.070409
-0.062499
-0.081562
-0.110133
-0.062284
-0.081492
-0.079798
-0.081832
-0.080006
-0.087263
-0.075229
-0.066312
-0.077916
-0.065614
-0.075460
-0.084055
-0.045763
-0.083525
-0.038794
-0.061894
-0.061667
-0.063584
-0.050380
-0.084535
-0.070426
-0.082973
-0.122401
-0.061244
-0.074230
-0.057878
-0.055022
-0.059880
-0.057058
-0.080636
0.013341
-0.078596
-0.064430
-0.066632
-0.078016
-0.077040
-0.047441
-0.006631
-0.048118
-0.077427
-0.122501
-0.058142
-0.036033
-0.042091
-0.086994
-0.046139
-0.123474
-0.066265
-0.003153
0.007535
-0.130599
-0.081139
-0.048205
-0.049052
-0.100034
-0.048991
-0.059213
-0.114192
-0.119601
-0.088888
-0.119622
-0.042569
0.008281
0.001789
-0.057502
0.005852
0.008702
-0.075109
-0.060648
-0.059987
-0.081375
-0.019350
-0.015056
-0.076586
-0.027457
0.002785
0.007071
-0.017590
-0.079786
-0.131772
-0.139061
-0.074156
-0.102693
-0.112324
-0.082673
-0.046395
-0.090160
-0.046668
-0.079959
-0.094284
-0.061579
-0.042065
-0.070765
0.008926
-0.024108
-0.045707
-0.103471
-0.054503