# vtk DataFile Version 2.0
Test
ASCII
DATASET POLYDATA
POINTS 4677 float
0.000000 0.000000 0.000000
0.080000 0.000000 0.000000
0.080000 0.160000 0.000000
0.000000 0.160000 0.000000
0.036000 0.073072 0.000000
0.044000 0.086928 0.000000
0.024500 0.065566 0.000000
0.055500 0.093560 0.000000
0.001000 0.050000 0.000000
0.079000 0.110000 0.000000
0.002963 0.000000 0.000000
0.005926 0.000000 0.000000
0.008889 0.000000 0.000000
0.011852 0.000000 0.000000
0.014815 0.000000 0.000000
0.017778 0.000000 0.000000
0.020741 0.000000 0.000000
0.023704 0.000000 0.000000
0.026667 0.000000 0.000000
0.029630 0.000000 0.000000
0.032593 0.000000 0.000000
0.035556 0.000000 0.000000
0.038519 0.000000 0.000000
0.041481 0.000000 0.000000
0.044444 0.000000 0.000000
0.047407 0.000000 0.000000
0.050370 0.000000 0.000000
0.053333 0.000000 0.000000
0.056296 0.000000 0.000000
0.059259 0.000000 0.000000
0.062222 0.000000 0.000000
0.065185 0.000000 0.000000
0.068148 0.000000 0.000000
0.071111 0.000000 0.000000
0.074074 0.000000 0.000000
0.077037 0.000000 0.000000
0.080000 0.002963 0.000000
0.080000 0.005926 0.000000
0.080000 0.008889 0.000000
0.080000 0.011852 0.000000
0.080000 0.014815 0.000000
0.080000 0.017778 0.000000
0.080000 0.020741 0.000000
0.080000 0.023704 0.000000
0.080000 0.026667 0.000000
0.080000 0.029630 0.000000
0.080000 0.032593 0.000000
0.080000 0.035556 0.000000
0.080000 0.038519 0.000000
0.080000 0.041481 0.000000
0.080000 0.044444 0.000000
0.080000 0.047407 0.000000
0.080000 0.050370 0.000000
0.080000 0.053333 0.000000
0.080000 0.056296 0.000000
0.080000 0.059259 0.000000
0.080000 0.062222 0.000000
0.080000 0.065185 0.000000
0.080000 0.068148 0.000000
0.080000 0.071111 0.000000
0.080000 0.074074 0.000000
0.080000 0.077037 0.000000
0.080000 0.080000 0.000000
0.080000 0.082963 0.000000
0.080000 0.085926 0.000000
0.080000 0.088889 0.000000
0.080000 0.091852 0.000000
0.080000 0.094815 0.000000
0.080000 0.097778 0.000000
0.080000 0.100741 0.000000
0.080000 0.103704 0.000000
0.080000 0.106667 0.000000
0.080000 0.109630 0.000000
0.080000 0.112593 0.000000
0.080000 0.115556 0.000000
0.080000 0.118519 0.000000
0.080000 0.121481 0.000000
0.080000 0.124444 0.000000
0.080000 0.127407 0.000000
0.080000 0.130370 0.000000
0.080000 0.133333 0.000000
0.080000 0.136296 0.000000
0.080000 0.139259 0.000000
0.080000 0.142222 0.000000
0.080000 0.145185 0.000000
0.080000 0.148148 0.000000
0.080000 0.151111 0.000000
0.080000 0.154074 0.000000
0.080000 0.157037 0.000000
0.077037 0.160000 0.000000
0.074074 0.160000 0.000000
0.071111 0.160000 0.000000
0.068148 0.160000 0.000000
0.065185 0.160000 0.000000
0.062222 0.160000 0.000000
0.059259 0.160000 0.000000
0.056296 0.160000 0.000000
0.053333 0.160000 0.000000
0.050370 0.160000 0.000000
0.047407 0.160000 0.000000
0.044444 0.160000 0.000000
0.041481 0.160000 0.000000
0.038519 0.160000 0.000000
0.035556 0.160000 0.000000
0.032593 0.160000 0.000000
0.029630 0.160000 0.000000
0.026667 0.160000 0.000000
0.023704 0.160000 0.000000
0.020741 0.160000 0.000000
0.017778 0.160000 0.000000
0.014815 0.160000 0.000000
0.011852 0.160000 0.000000
0.008889 0.160000 0.000000
0.005926 0.160000 0.000000
0.002963 0.160000 0.000000
0.000000 0.157037 0.000000
0.000000 0.154074 0.000000
0.000000 0.151111 0.000000
0.000000 0.148148 0.000000
0.000000 0.145185 0.000000
0.000000 0.142222 0.000000
0.000000 0.139259 0.000000
0.000000 0.136296 0.000000
0.000000 0.133333 0.000000
0.000000 0.130370 0.000000
0.000000 0.127407 0.000000
0.000000 0.124444 0.000000
0.000000 0.121481 0.000000
0.000000 0.118519 0.000000
0.000000 0.115556 0.000000
0.000000 0.112593 0.000000
0.000000 0.109630 0.000000
0.000000 0.106667 0.000000
0.000000 0.103704 0.000000
0.000000 0.100741 0.000000
0.000000 0.097778 0.000000
0.000000 0.094815 0.000000
0.000000 0.091852 0.000000
0.000000 0.088889 0.000000
0.000000 0.085926 0.000000
0.000000 0.082963 0.000000
0.000000 0.080000 0.000000
0.000000 0.077037 0.000000
0.000000 0.074074 0.000000
0.000000 0.071111 0.000000
0.000000 0.068148 0.000000
0.000000 0.065185 0.000000
0.000000 0.062222 0.000000
0.000000 0.059259 0.000000
0.000000 0.056296 0.000000
0.000000 0.053333 0.000000
0.000000 0.050370 0.000000
0.000000 0.047407 0.000000
0.000000 0.044444 0.000000
0.000000 0.041481 0.000000
0.000000 0.038519 0.000000
0.000000 0.035556 0.000000
0.000000 0.032593 0.000000
0.000000 0.029630 0.000000
0.000000 0.026667 0.000000
0.000000 0.023704 0.000000
0.000000 0.020741 0.000000
0.000000 0.017778 0.000000
0.000000 0.014815 0.000000
0.000000 0.011852 0.000000
0.000000 0.008889 0.000000
0.000000 0.005926 0.000000
0.000000 0.002963 0.000000
0.035500 0.072746 0.000000
0.035000 0.072419 0.000000
0.034500 0.072093 0.000000
0.034000 0.071767 0.000000
0.033500 0.071440 0.000000
0.033000 0.071114 0.000000
0.032500 0.070788 0.000000
0.032000 0.070461 0.000000
0.031500 0.070135 0.000000
0.031000 0.069809 0.000000
0.030500 0.069482 0.000000
0.030000 0.069156 0.000000
0.029500 0.068829 0.000000
0.029000 0.068503 0.000000
0.028500 0.068177 0.000000
0.028000 0.067850 0.000000
0.027500 0.067524 0.000000
0.027000 0.067198 0.000000
0.026500 0.066871 0.000000
0.026000 0.066545 0.000000
0.025500 0.066219 0.000000
0.025000 0.065892 0.000000
0.044500 0.087216 0.000000
0.045000 0.087505 0.000000
0.045500 0.087793 0.000000
0.046000 0.088081 0.000000
0.046500 0.088370 0.000000
0.047000 0.088658 0.000000
0.047500 0.088946 0.000000
0.048000 0.089235 0.000000
0.048500 0.089523 0.000000
0.049000 0.089811 0.000000
0.049500 0.090100 0.000000
0.050000 0.090388 0.000000
0.050500 0.090677 0.000000
0.051000 0.090965 0.000000
0.051500 0.091253 0.000000
0.052000 0.091542 0.000000
0.052500 0.091830 0.000000
0.053000 0.092118 0.000000
0.053500 0.092407 0.000000
0.054000 0.092695 0.000000
0.054500 0.092983 0.000000
0.055000 0.093272 0.000000
0.043704 0.086415 0.000000
0.043407 0.085902 0.000000
0.043111 0.085388 0.000000
0.042815 0.084875 0.000000
0.042519 0.084362 0.000000
0.042222 0.083849 0.000000
0.041926 0.083336 0.000000
0.041630 0.082823 0.000000
0.041333 0.082309 0.000000
0.041037 0.081796 0.000000
0.040741 0.081283 0.000000
0.040444 0.080770 0.000000
0.040148 0.080257 0.000000
0.039852 0.079743 0.000000
0.039556 0.079230 0.000000
0.039259 0.078717 0.000000
0.038963 0.078204 0.000000
0.038667 0.077691 0.000000
0.038370 0.077177 0.000000
0.038074 0.076664 0.000000
0.037778 0.076151 0.000000
0.037481 0.075638 0.000000
0.037185 0.075125 0.000000
0.036889 0.074612 0.000000
0.036593 0.074098 0.000000
0.036296 0.073585 0.000000
0.024000 0.065235 0.000000
0.023500 0.064904 0.000000
0.023000 0.064572 0.000000
0.022500 0.064241 0.000000
0.022000 0.063910 0.000000
0.021500 0.063579 0.000000
0.021000 0.063248 0.000000
0.020500 0.062916 0.000000
0.020000 0.062585 0.000000
0.019500 0.062254 0.000000
0.019000 0.061923 0.000000
0.018500 0.061592 0.000000
0.018000 0.061261 0.000000
0.017500 0.060929 0.000000
0.017000 0.060598 0.000000
0.016500 0.060267 0.000000
0.016000 0.059936 0.000000
0.015500 0.059605 0.000000
0.015000 0.059273 0.000000
0.014500 0.058942 0.000000
0.014000 0.058611 0.000000
0.013500 0.058280 0.000000
0.013000 0.057949 0.000000
0.012500 0.057617 0.000000
0.012000 0.057286 0.000000
0.011500 0.056955 0.000000
0.011000 0.056624 0.000000
0.010500 0.056293 0.000000
0.010000 0.055961 0.000000
0.009500 0.055630 0.000000
0.009000 0.055299 0.000000
0.008500 0.054968 0.000000
0.008000 0.054637 0.000000
0.007500 0.054305 0.000000
0.007000 0.053974 0.000000
0.006500 0.053643 0.000000
0.006000 0.053312 0.000000
0.005500 0.052981 0.000000
0.005000 0.052650 0.000000
0.004500 0.052318 0.000000
0.004000 0.051987 0.000000
0.003500 0.051656 0.000000
0.003000 0.051325 0.000000
0.002500 0.050994 0.000000
0.002000 0.050662 0.000000
0.001500 0.050331 0.000000
0.055990 0.093902 0.000000
0.056479 0.094245 0.000000
0.056969 0.094587 0.000000
0.057458 0.094930 0.000000
0.057948 0.095272 0.000000
0.058437 0.095615 0.000000
0.058927 0.095957 0.000000
0.059417 0.096300 0.000000
0.059906 0.096642 0.000000
0.060396 0.096985 0.000000
0.060885 0.097327 0.000000
0.061375 0.097670 0.000000
0.061865 0.098012 0.000000
0.062354 0.098355 0.000000
0.062844 0.098697 0.000000
0.063333 0.099040 0.000000
0.063823 0.099382 0.000000
0.064312 0.099725 0.000000
0.064802 0.100067 0.000000
0.065292 0.100410 0.000000
0.065781 0.100752 0.000000
0.066271 0.101095 0.000000
0.066760 0.101437 0.000000
0.067250 0.101780 0.000000
0.067740 0.102122 0.000000
0.068229 0.102465 0.000000
0.068719 0.102807 0.000000
0.069208 0.103150 0.000000
0.069698 0.103492 0.000000
0.070187 0.103835 0.000000
0.070677 0.104177 0.000000
0.071167 0.104520 0.000000
0.071656 0.104862 0.000000
0.072146 0.105205 0.000000
0.072635 0.105547 0.000000
0.073125 0.105890 0.000000
0.073615 0.106232 0.000000
0.074104 0.106575 0.000000
0.074594 0.106917 0.000000
0.075083 0.107260 0.000000
0.075573 0.107602 0.000000
0.076062 0.107945 0.000000
0.076552 0.108287 0.000000
0.077042 0.108630 0.000000
0.077531 0.108972 0.000000
0.078021 0.109315 0.000000
0.078510 0.109658 0.000000
0.043942 0.087469 0.000000
0.035556 0.157037 0.000000
0.044420 0.002920 0.000000
0.077037 0.038519 0.000000
0.002963 0.121481 0.000000
0.077037 0.059259 0.000000
0.002963 0.109630 0.000000
0.002923 0.098139 0.000000
0.077153 0.126913 0.000000
0.002808 0.032596 0.000000
0.077140 0.071061 0.000000
0.002963 0.085926 0.000000
0.002963 0.136296 0.000000
0.077041 0.023701 0.000000
0.056296 0.157037 0.000000
0.032593 0.002963 0.000000
0.077037 0.080000 0.000000
0.002813 0.077135 0.000000
0.077037 0.142222 0.000000
0.017778 0.157037 0.000000
0.062222 0.002963 0.000000
0.076992 0.088722 0.000000
0.002945 0.020743 0.000000
0.017777 0.002962 0.000000
0.002801 0.068434 0.000000
0.002959 0.011851 0.000000
0.065186 0.157038 0.000000
0.002963 0.148148 0.000000
0.077037 0.011852 0.000000
0.076887 0.094740 0.000000
0.077092 0.115875 0.000000
0.002677 0.044265 0.000000
0.077038 0.148148 0.000000
0.002985 0.062165 0.000000
0.077037 0.047407 0.000000
0.011852 0.002963 0.000000
[...]
POINT_DATA 4677
SCALARS UX float 1
LOOKUP_TABLE default
-0.000000
0.000001
0.017503
-0.011939
0.007106
0.000816
-0.029039
0.037980
-0.047077
0.054592
-0.000000
-0.000000
-0.000000
-0.000000
-0.000000
-0.000000
-0.000000
-0.000000
-0.000000
-0.000000
-0.000000
-0.000000
-0.000000
0.000000
0.000000
0.000000
0.000000
0.000000
0.000000
0.000000
0.000000
0.000000
0.000000
0.000000
0.000000
-0.000000
0.003181
0.004858
0.006147
0.007341
0.008504
0.009708
0.010961
0.012275
0.013655
0.015134
0.016652
0.018355
0.020212
0.022217
0.024174
0.026277
0.028013
0.029400
0.030548
0.032066
0.033369
0.035627
0.038211
0.041396
0.044740
0.046690
0.047840
0.049380
0.049482
0.049319
0.049878
0.050735
0.051378
0.051784
0.052642
0.053487
0.054828
0.056347
0.057972
0.059486
0.061243
0.060791
0.056169
0.049923
0.038043
0.035292
0.031700
0.027872
0.024210
0.019657
0.017893
0.017418
0.017582
0.016462
0.014794
0.013707
0.012711
0.011513
0.010531
0.009794
0.008803
0.008076
0.006989
0.006614
0.005368
0.004200
0.002988
0.001860
0.001014
0.000306
-0.000760
-0.002313
-0.003360
-0.004626
-0.005286
-0.006687
-0.008166
-0.009538
-0.010404
-0.012616
-0.013218
-0.013701
-0.014440
-0.015736
-0.016517
-0.017730
-0.019099
-0.021633
-0.024326
-0.026924
-0.029233
-0.031646
-0.033022
-0.033560
-0.033708
-0.033601
-0.033114
-0.032653
-0.032165
-0.031774
-0.032890
-0.034193
-0.037390
-0.038799
-0.039797
-0.040296
-0.039968
-0.040641
-0.040314
-0.039572
-0.040291
-0.041166
-0.042732
-0.044258
-0.045622
-0.047102
-0.048934
-0.051125
-0.053772
-0.056306
-0.057329
-0.042996
-0.037974
-0.031082
-0.020923
-0.015279
-0.012231
-0.010687
-0.008946
-0.006745
-0.005244
-0.003858
0.006348
0.014860
0.008798
0.007484
0.005987
0.004474
0.005536
0.000460
-0.005427
-0.004300
-0.004291
-0.018500
-0.029442
-0.021411
-0.021911
-0.023346
-0.023986
-0.024133
-0.025612
-0.026544
-0.025370
-0.027591
0.002378
0.001960
0.009715
0.010046
0.013122
0.005797
0.012520
0.015827
0.013754
0.017245
0.013073
0.020876
0.024237
0.025967
0.028659
0.032038
0.033875
0.033457
0.034140
0.033878
0.036034
0.038665
0.001610
0.002350
0.002974
0.003478
0.003892
0.004251
0.004471
0.004645
0.004800
0.004980
0.005148
0.005265
0.005255
0.005237
0.005148
0.005176
0.005260
0.005417
0.005475
0.005564
0.005464
0.005315
0.004940
0.004451
0.004066
0.005849
-0.029934
-0.030458
-0.030618
-0.031011
-0.031379
-0.031752
-0.032109
-0.032477
-0.032863
-0.033246
-0.033631
-0.034015
-0.034402
-0.034786
-0.035167
-0.035541
-0.035914
-0.036278
-0.036629
-0.036982
-0.037337
-0.037703
-0.038084
-0.038472
-0.038860
-0.039251
-0.039630
-0.040044
-0.040448
-0.040845
-0.041211
-0.041575
-0.041952
-0.042326
-0.042695
-0.043071
-0.043440
-0.043807
-0.044173
-0.044542
-0.044916
-0.045284
-0.045655
-0.045960
-0.046304
-0.046693
0.040406
0.041051
0.041497
0.041975
0.042361
0.042729
0.043023
0.043312
0.043698
0.043993
0.044285
0.044584
0.044951
0.045247
0.045584
0.045881
0.046136
0.046362
0.046577
0.046794
0.047014
0.047244
0.047481
0.047721
0.047964
0.048209
0.048447
0.048697
0.048944
0.049178
0.049403
0.049668
0.049950
0.050186
0.050441
0.050705
0.050977
0.051261
0.051554
0.051857
0.052163
0.052472
0.052791
0.053107
0.053435
0.053792
0.054193
-0.001259
0.001299
0.000053
0.019237
-0.029844
0.030345
-0.032305
-0.030336
0.054358
-0.037666
0.039051
-0.035833
-0.017389
0.010813
0.008155
-0.000258
0.046090
-0.038487
0.019939
-0.005220
0.000248
0.048084
-0.011514
-0.000620
-0.038137
-0.006685
0.010974
-0.013407
0.005877
0.049190
0.056476
-0.050231
0.015805
-0.039953
0.025454
-0.000243
0.013366
-0.010212
0.000808
-0.041413
0.050565
0.032710
0.003596
0.005815
-0.000280
-0.022137
0.013745
-0.003024
0.000185
0.016036
0.057510
-0.052000
0.004752
0.056801
-0.053079
-0.043034
-0.038206
0.046775
-0.031890
-0.037847
0.033977
0.042049
0.028316
-0.031418
0.051478
-0.032423
-0.029769
-0.022809
0.021270
-0.000227
0.027458
0.000141
0.000001
-0.024874
0.015409
-0.000083
-0.009937
-0.000394
0.009255
0.006220
-0.014964
0.008251
-0.005113
-0.000107
-0.002107
-0.007535
0.000430
0.016089
-0.000251
-0.001152
-0.011911
0.003079
-0.011266
0.001286
0.054078
-0.001704
-0.046753
-0.045314
0.053005
-0.004236
-0.000038
0.018287
0.038502
-0.024154
-0.034700
0.055459
0.005741
-0.019680
0.019262
-0.000563
-0.049106
-0.007874
-0.040145
0.043707
0.050262
0.007500
-0.004936
-0.001118
-0.001546
0.014844
-0.010933
0.001806
0.055354
-0.048483
0.050037
-0.039062
0.048620
-0.038436
-0.046319
0.047911
0.056598
-0.053429
0.053922
-0.038643
0.044480
-0.034110
-0.031282
0.036100
0.031854
-0.030910
-0.031788
0.029098
-0.032532
0.027103
0.043501
0.023319
-0.031675
0.002317
-0.027191
0.017220
0.000533
0.000105
0.004650
-0.015474
-0.001548
0.000163
-0.000162
0.023038
-0.019755
0.012234
0.007377
-0.000265
-0.004161
0.000209
-0.008283
-0.000497
0.010136
-0.016244
0.009479
-0.000391
-0.014576
0.007059
0.012154
0.018283
-0.006154
0.000305
0.014463
0.015664
-0.009026
0.000604
-0.012525
0.004589
-0.047041
0.054416
0.053593
-0.041691
-0.046243
-0.001817
-0.000994
0.052364
-0.044132
0.055056
-0.049963
0.005543
0.007276
0.008629
0.029989
-0.029395
-0.030802
0.052901
-0.046720
-0.000193
-0.004968
-0.036832
0.000351
0.010821
0.047399
-0.014900
-0.007279
0.049143
0.005629
-0.013235
0.000764
0.053740
-0.046582
0.052291
0.027885
-0.031209
0.025628
-0.029899
0.004068
-0.017764
0.009719
-0.000920
-0.001118
-0.011568
0.011666
0.014553
-0.047274
0.054430
-0.048371
0.054705
0.042765
-0.037876
0.054950
-0.035831
-0.043578
0.046797
0.045083
-0.029506
0.051721
-0.040979
-0.049443
-0.049396
0.033693
0.036290
-0.031607
0.016290
-0.000326
-0.000172
-0.018139
0.022500
0.020563
0.000210
0.000104
-0.033557
0.030463
0.005125
-0.002366
0.006861
-0.025019
-0.022527
0.016908
0.015426
0.024469
0.001731
-0.011733
-0.000467
0.008720
-0.006143
-0.000761
0.008051
0.000487
-0.009512
-0.003442
-0.001226
0.014249
-0.009654
0.001238
0.003122
-0.027930
-0.004547
-0.003312
0.053256
-0.045963
-0.045664
0.054915
-0.047616
0.053222
-0.000254
0.006303
0.005652
0.005445
-0.006032
-0.000240
0.019119
0.033208
-0.028957
0.003594
-0.022525
-0.019030
0.022215
0.043647
-0.000785
0.006266
-0.009759
-0.006141
-0.001879
-0.046208
0.053315
0.044152
0.011788
-0.036390
0.014599
0.000124
0.015638
-0.001120
0.008251
0.013354
-0.017229
-0.010283
0.002135
0.006961
-0.036842
0.047910
-0.033099
-0.038766
-0.030322
-0.035868
-0.030359
-0.029393
0.012509
0.030964
0.054700
0.029004
-0.031214
0.026713
0.039636
-0.030808
0.040691
0.046903
-0.030119
0.002911
-0.000487
-0.001075
-0.015770
0.024090
0.000287
-0.003637
-0.012095
0.004198
0.015023
-0.027766
0.000413
-0.005994
0.016045
0.009366
-0.004836
-0.002357
0.006816
0.012770
0.010650
-0.001152
-0.013528
0.000592
0.000736
-0.008198
-0.012297
0.012877
0.004406
0.000962
-0.046940
0.052134
-0.047828
-0.003915
-0.044290
-0.007489
0.002050
0.052266
-0.047394
0.054084
0.000401
0.006875
0.052787
-0.045158
-0.047035
0.052756
0.053946
0.006267
0.012772
0.009740
-0.045378
-0.047671
-0.008516
0.016436
0.027562
-0.027915
-0.026140
-0.020917
0.048960
0.002844
-0.034911
-0.045069
-0.003022
0.046473
-0.013559
0.000578
0.009424
-0.010141
-0.037964
-0.006995
-0.029897
0.001011
0.005474
0.025265
-0.000409
0.053682
0.001286
-0.028510
-0.024877
0.013539
-0.005010
-0.001689
0.003190
-0.008969
0.034404
-0.047056
0.053395
0.027185
-0.035719
-0.028114
-0.030974
-0.028077
-0.000646
0.030047
0.012804
-0.028943
0.020860
0.002579
-0.000066
-0.042644
0.047312
0.018043
-0.034221
0.045813
0.041878
0.005518
0.024044
0.014047
-0.015333
-0.015776
-0.004432
-0.000967
0.017112
-0.007983
0.007398
-0.001411
0.031760
0.000693
-0.000984
0.009407
0.011478
-0.019808
0.007956
-0.003391
0.012858
-0.002072
0.000307
-0.012438
-0.010950
0.001253
0.001591
-0.043528
-0.003524
0.009846
0.013101
-0.045633
-0.044964
0.052901
0.052343
-0.003030
-0.043922
-0.007437
0.051573
-0.037307
0.002692
0.053813
0.044742
0.036261
0.037309
-0.046514
-0.046589
0.005951
0.010957
0.053450
0.001465
0.010063
0.017545
0.028454
-0.022688
-0.000099
0.039747
-0.042190
0.016595
0.051661
0.044500
0.005860
-0.015521
-0.003961
-0.001130
-0.046460
0.012039
0.000844
0.008458
0.052945
0.008035
-0.012444
-0.009796
0.015808
-0.011650
0.012054
0.041516
0.031072
-0.002112
0.001494
-0.006962
-0.002728
0.002368
0.009286
0.052928
-0.025761
0.026572
0.008061
-0.015624
-0.000655
-0.027806
0.022442
0.028553
0.001582
0.042547
-0.029651
0.018168
-0.029779
0.000181
-0.027255
0.014515
0.004785
-0.033754
0.045745
0.030340
-0.035777
0.035453
0.000449
0.043182
-0.027761
-0.008507
-0.038761
-0.020341
0.013706
-0.003895
-0.000010
0.011551
-0.005725
0.006655
-0.001419
0.010583
0.000827
-0.014350
0.003584
-0.002389
0.011615
-0.001994
0.004329
-0.011926
-0.007986
0.011031
0.051717
-0.044132
-0.006897
-0.036969
-0.046218
-0.001580
0.016070
-0.002298
-0.001072
-0.006654
-0.008874
-0.044516
0.008459
0.006372
0.010168
-0.026355
-0.035274
-0.032319
-0.043346
0.020227
0.027015
0.052602
0.046078
0.040842
-0.045757
-0.044437
0.051283
0.014503
0.052889
-0.045292
-0.029246
0.051846
0.051890
0.015989
-0.009008
0.018705
-0.028172
-0.024872
0.041323
0.001220
-0.019485
-0.033267
-0.000065
-0.015297
0.010617
-0.041947
0.051944
-0.001432
0.043167
-0.008886
0.013708
0.004574
-0.045549
-0.037560
-0.006641
0.052302
0.026426
0.024089
0.022435
-0.000786
0.011578
0.010875
-0.027938
-0.005896
-0.002931
0.000638
-0.002713
0.010473
0.005321
-0.034712
0.001235
-0.013173
0.003281
-0.010863
-0.004989
0.004908
-0.027144
-0.032026
-0.028768
-0.026484
0.025060
0.027287
-0.024747
-0.035584
0.010724
0.041668
-0.000389
-0.036343
0.029649
-0.024860
0.000414
-0.000824
-0.042769
-0.017736
0.037444
0.013465
0.052422
0.003230
-0.001580
-0.003560
0.009170
0.032643
0.019419
0.007163
0.001023
-0.014337
0.006561
0.011641
0.015631
-0.011540
0.051127
0.000422
-0.005308
0.001845
-0.002644
0.051011
-0.008945
-0.043372
0.045708
0.051840
0.052966
0.001082
0.012416
-0.045507
-0.045068
0.021222
-0.045160
-0.005165
0.045151
0.019119
0.011538
-0.005989
0.016529
-0.009807
-0.008729
-0.027131
0.000670
0.052084
0.012178
0.013656
0.051420
-0.043441
-0.020166
-0.044543
0.051404
0.019148
-0.043806
0.037300
-0.014132
0.016398
-0.010219
0.020894
0.020492
0.024988
0.028766
-0.023854
-0.024315
0.037268
-0.043261
0.000853
0.003793
-0.003921
-0.013973
0.005602
0.019027
0.016018
0.001420
-0.044733
-0.043738
-0.027216
-0.009912
0.008637
-0.014829
-0.021638
0.006817
0.018244
0.032220
-0.002184
0.009322
0.011839
-0.010692
-0.006086
-0.007584
-0.025860
-0.027798
-0.000725
-0.028245
-0.012731
-0.000639
-0.001103
0.051131
0.023929
-0.035769
-0.034972
0.041296
0.009353
-0.042907
-0.000197
0.017730
-0.035852
0.026596
-0.036655
-0.001792
0.020649
-0.007579
-0.030307
0.012766
-0.001988
-0.017307
0.010356
-0.044852
-0.038622
-0.025727
0.044835
0.043991
-0.003176
-0.033822
0.002200
-0.004644
-0.013221
0.005785
0.015747
0.012180
-0.009945
0.010206
0.002560
0.004327
0.052013
-0.007972
-0.012195
0.001703
-0.026408
0.018951
0.046173
0.000243
-0.007772
0.052317
0.051375
0.008414
-0.044387
0.049056
0.015525
0.051573
-0.042305
0.021598
0.001460
-0.004835
-0.008298
-0.032300
0.010597
-0.009794
-0.044753
0.014755
0.050712
0.052240
-0.042950
-0.003883
0.026012
0.035651
-0.028253
0.018919
-0.000358
0.051224
0.018918
0.050739
0.014977
-0.043005
0.016066
-0.018718
0.015981
0.020044
-0.026015
-0.024040
-0.000333
-0.032203
0.008912
0.041495
-0.035060
0.045506
0.011781
-0.002468
-0.012444
-0.007847
-0.026916
-0.000032
-0.038182
-0.044273
0.051315
-0.043322
0.010307
-0.025565
-0.029465
0.001870
0.018474
-0.002846
-0.024093
0.009342
-0.026550
0.004488
-0.009511
0.023492
-0.009402
-0.036806
0.051800
0.044076
-0.044317
-0.004958
0.006832
-0.019239
-0.040858
0.030106
0.004696
-0.023624
0.019751
0.039591
-0.001724
-0.033881
-0.006399
-0.003572
0.027692
-0.000875
0.034589
-0.016291
0.025884
0.000529
0.003456
0.008010
-0.005235
0.001143
-0.007414
-0.026822
0.002674
0.002058
-0.004994
-0.042506
-0.004103
0.014053
-0.012152
0.050376
-0.026423
-0.026034
-0.001478
-0.012019
-0.008738
-0.011503
0.016333
-0.037371
-0.015471
0.050250
0.024776
-0.025374
0.046933
0.017090
0.019544
-0.009577
-0.009817
0.002921
0.014222
-0.006929
0.008240
0.051096
0.006016
0.051719
-0.002136
0.050880
0.050552
0.021385
-0.010558
0.050671
-0.000044
-0.035954
0.001709
0.013334
-0.044211
-0.042784
-0.027408
0.050839
0.021057
-0.026775
-0.006641
-0.041905
-0.039148
-0.011231
0.044465
0.013184
-0.042566
0.015488
-0.043859
0.051734
0.050445
-0.010485
-0.010672
0.021163
0.021775
0.024811
-0.025770
-0.022975
0.033586
-0.000693
-0.015616
0.050189
0.046008
-0.043388
0.002011
-0.035288
-0.003621
-0.011180
-0.005951
0.017346
0.027555
-0.038845
-0.006730
0.005731
-0.025126
-0.008830
0.020452
-0.007382
-0.021003
0.005614
0.016843
-0.024765
-0.004508
0.000711
0.003569
-0.008361
-0.010355
0.001502
-0.013285
0.050071
0.023234
-0.001052
-0.011074
0.050679
0.029477
0.007919
0.038219
0.022542
0.044676
0.042817
0.007887
-0.043759
0.001540
0.026540
-0.030713
-0.037488
-0.003105
-0.028260
-0.034373
0.050175
-0.024419
-0.039665
-0.024476
0.000307
0.009521
-0.027959
0.002243
0.011129
-0.042098
-0.011119
-0.032995
0.047380
-0.025021
0.023778
-0.001079
-0.014588
0.014354
0.010182
0.003205
-0.023037
-0.001889
-0.018309
-0.011966
0.014423
0.002733
0.015653
0.012290
0.008368
0.048284
-0.026874
0.046064
-0.041959
-0.041447
-0.001845
-0.007016
0.013174
-0.002413
0.007588
-0.010805
-0.000777
0.051320
0.050720
0.008275
-0.043754
0.051290
-0.008872
-0.036115
0.021610
-0.026917
-0.011127
0.050972
0.021808
0.038942
-0.008465
-0.042322
0.022436
-0.042885
0.050671
0.050262
0.002008
0.011833
-0.037405
-0.041893
0.017749
0.050333
-0.014093
-0.023233
0.012437
-0.011503
-0.013349
0.020077
0.022358
-0.022022
-0.028563
-0.030825
0.001521
0.048169
0.008804
0.041826
-0.042562
0.044047
0.010281
0.012710
-0.023776
-0.001906
0.049774
0.020426
-0.022566
-0.011629
-0.033257
-0.001962
-0.023183
-0.039711
-0.018020
-0.008880
0.001908
0.000379
0.003000
-0.007675
-0.041317
-0.025384
0.020091
0.018959
0.008771
-0.025616
0.049875
-0.003520
-0.027234
-0.034337
0.050802
-0.043225
0.025519
0.034953
-0.018773
-0.025430
-0.002120
0.008031
-0.005547
-0.011244
-0.022952
0.044552
0.041154
-0.000197
0.004316
-0.009145
0.013792
0.050925
0.028221
-0.006940
-0.011695
0.046536
0.001112
0.004443
-0.004785
0.049994
0.022197
0.012076
-0.010459
-0.002350
0.007426
0.014287
-0.010561
0.000723
0.023830
-0.013765
0.013869
-0.043256
-0.008392
-0.025906
-0.001029
-0.040794
-0.001455
-0.006193
0.021835
0.002061
0.007612
-0.011473
-0.042523
-0.041108
-0.010344
0.050034
-0.025439
-0.009759
0.010215
-0.040481
-0.005233
0.023424
0.017642
0.049917
0.006796
-0.009628
-0.041832
0.016694
0.048255
0.031415
0.023376
0.050356
0.017823
0.023532
0.007019
0.049980
-0.003892
-0.023497
0.019415
-0.020636
0.011454
-0.038127
-0.036969
0.045306
0.002828
0.009959
-0.010652
0.024448
0.023864
0.024791
0.011851
-0.017626
-0.022963
0.035770
0.028212
0.045294
-0.041242
-0.000154
-0.010563
0.007411
0.046874
0.009755
0.016647
0.045789
-0.002523
-0.006857
-0.024661
-0.036550
0.021785
0.049462
0.040751
-0.037598
-0.021900
0.022936
0.000321
-0.042169
-0.005584
-0.008012
0.010800
0.001415
-0.023961
-0.009654
0.049307
-0.013153
0.021260
0.006774
-0.024489
0.050510
-0.012187
0.043428
0.039351
-0.031960
-0.028602
-0.042498
0.006560
-0.010128
-0.000916
-0.040616
-0.023297
0.044677
-0.042853
0.003929
-0.022507
-0.004176
0.002391
0.035060
-0.000828
0.015516
0.007943
0.020623
0.049553
0.009394
-0.009852
0.031874
0.048771
-0.012505
-0.033811
-0.002932
0.002872
0.012276
0.000896
-0.022240
0.023677
-0.003010
-0.024626
-0.023619
-0.010174
0.012317
-0.005963
0.026413
-0.021405
0.012273
-0.001432
0.005591
-0.010636
0.010923
0.021371
0.021852
0.013693
0.017666
0.020287
0.050493
-0.007758
-0.000896
0.000084
-0.009879
-0.005255
-0.008336
-0.041004
0.050044
0.049767
-0.011932
-0.002666
0.008687
-0.013421
0.024566
-0.037841
0.009807
-0.011435
0.006841
0.049574
-0.038877
-0.010934
-0.004489
-0.042683
0.042804
0.012581
0.015829
0.050439
-0.019911
-0.032579
0.021569
-0.041466
-0.034736
-0.040748
0.020842
-0.042202
0.025146
0.020322
0.022042
-0.012287
0.024151
-0.010528
-0.021277
0.024704
-0.022058
-0.017148
-0.032060
0.041857
-0.030885
0.040930
-0.000701
-0.033681
0.043584
0.000072
0.045221
-0.009637
-0.034911
-0.023599
-0.003685
0.048897
-0.006064
0.050094
0.001725
0.010699
0.049858
0.003061
-0.009738
-0.038176
0.012299
-0.010991
-0.039559
0.023260
-0.001322
-0.003567
0.020259
0.019958
0.016500
0.005246
-0.040330
0.025593
-0.022146
0.013604
0.004707
-0.011225
0.039397
0.048389
-0.005387
-0.039517
-0.003631
-0.009130
-0.022050
-0.003051
0.047093
0.017348
-0.011808
-0.006866
0.033480
0.022608
0.001555
0.009430
0.012363
-0.022309
-0.021300
-0.016063
0.046413
-0.002459
0.023427
-0.001875
-0.024362
-0.024376
0.023535
-0.015012
-0.009861
-0.007614
0.027066
0.006034
0.008653
-0.040680
-0.041526
-0.021372
0.018878
0.012314
-0.033159
-0.032627
0.010724
0.020847
-0.008458
0.000488
-0.009395
-0.023131
-0.009512
0.015161
0.049663
0.022774
0.001931
0.021354
-0.004351
0.029978
-0.009046
0.004032
0.025752
0.025709
-0.006266
-0.004843
0.049255
-0.011151
-0.000291
-0.012600
0.009093
0.048894
0.047682
0.023564
-0.012295
0.042991
0.050144
-0.040548
0.050127
-0.011960
-0.000634
-0.040563
-0.023104
0.009417
0.019218
0.022612
0.011514
0.049544
0.024120
0.043460
0.005656
-0.037220
-0.007426
-0.041121
-0.005093
-0.042341
0.007730
-0.026286
-0.041625
-0.042368
0.032712
0.021692
0.019522
-0.012156
0.023290
0.016845
-0.020648
0.025510
-0.025901
0.033934
0.044259
0.028670
0.001432
-0.032676
0.007718
0.049491
0.043171
-0.003345
0.046228
-0.006981
-0.019166
-0.023823
-0.009166
0.014024
-0.022194
0.003806
0.047381
-0.011897
-0.022799
-0.002165
-0.006689
0.025395
-0.036773
-0.012436
-0.029244
-0.037806
0.010074
0.020958
0.023950
0.005375
-0.001154
0.048606
0.026557
0.003979
0.006735
-0.012879
-0.023493
0.044682
-0.021067
-0.036712
0.049017
-0.023414
-0.001254
-0.004081
0.018093
-0.007910
-0.006930
-0.034189
-0.004748
0.009104
0.002348
0.010885
-0.041842
-0.009951
0.022644
0.024668
0.005760
-0.021439
-0.021708
0.044145
-0.005104
0.036743
0.042016
-0.015055
0.010688
0.027167
0.026428
0.039755
0.013785
0.001088
0.020557
-0.011088
0.006011
-0.002936
-0.009470
-0.009295
0.049346
0.008306
-0.009449
-0.028119
-0.000204
0.010705
-0.008634
0.031603
0.011995
0.018615
0.048853
0.016016
-0.003724
0.021951
-0.010139
0.003021
0.024728
-0.010715
-0.007741
-0.040096
-0.039984
-0.031968
-0.006850
0.002170
-0.003870
0.023865
0.002671
-0.012754
0.047992
-0.012044
0.040167
0.049775
0.026459
0.016100
-0.016103
-0.012795
-0.040612
-0.035506
-0.001700
0.026136
-0.041821
0.049590
0.048983
0.049923
0.049309
-0.038791
0.006732
-0.040168
0.008480
0.023431
-0.041011
-0.041826
0.045693
0.019376
-0.011762
0.030678
-0.010239
-0.032712
0.027536
0.032479
-0.029677
0.041393
-0.003587
0.048795
-0.002313
0.006187
-0.008857
-0.034411
0.045212
0.046103
0.007282
0.048260
0.049360
-0.022481
-0.020720
-0.025343
-0.015291
0.038424
0.010468
-0.000744
0.048784
0.001308
0.003003
-0.041264
0.022190
0.027507
-0.035505
-0.005941
-0.004988
-0.008424
0.024358
0.017911
0.014761
0.022607
-0.038332
-0.010117
-0.008889
0.040515
0.006296
0.002385
-0.033206
0.042475
-0.021328
0.046810
-0.039196
-0.020644
0.017246
0.035793
0.046203
0.008877
0.023788
0.040197
-0.021322
0.048726
-0.021566
0.047940
0.000548
0.049390
0.026035
0.044316
-0.006046
0.005991
-0.019520
0.026511
-0.008769
-0.008514
-0.008410
-0.007302
0.004924
-0.009633
-0.041278
0.009260
0.010614
-0.009070
-0.003482
0.030358
0.021544
0.048606
0.000213
0.026405
0.020051
0.011579
0.047724
0.011924
0.026946
-0.010337
-0.001267
0.008666
-0.011114
0.017727
-0.032053
0.013975
-0.008818
-0.039468
0.023047
0.043772
0.004707
0.024765
-0.011844
-0.005927
0.049269
-0.022742
-0.039961
-0.005755
0.027347
-0.002338
-0.000465
-0.021791
0.049027
-0.012869
-0.007896
-0.041106
-0.013261
-0.020354
0.002211
0.027142
-0.037408
0.027419
-0.039940
-0.039605
0.049635
0.049035
0.004895
-0.029619
-0.012888
-0.013293
0.024965
0.018553
0.026686
-0.023551
0.038178
0.010273
-0.040570
-0.008193
0.022514
-0.013657
-0.023386
0.035721