# vtk DataFile Version 2.0
Test
ASCII
DATASET POLYDATA
POINTS 4677 float
0.000000 0.000000 0.000000
0.080000 0.000000 0.000000
0.080000 0.160000 0.000000
0.000000 0.160000 0.000000
0.036000 0.073072 0.000000
0.044000 0.086928 0.000000
0.024500 0.065566 0.000000
0.055500 0.093560 0.000000
0.001000 0.050000 0.000000
0.079000 0.110000 0.000000
0.002963 0.000000 0.000000
0.005926 0.000000 0.000000
0.008889 0.000000 0.000000
0.011852 0.000000 0.000000
0.014815 0.000000 0.000000
0.017778 0.000000 0.000000
0.020741 0.000000 0.000000
0.023704 0.000000 0.000000
0.026667 0.000000 0.000000
0.029630 0.000000 0.000000
0.032593 0.000000 0.000000
0.035556 0.000000 0.000000
0.038519 0.000000 0.000000
0.041481 0.000000 0.000000
0.044444 0.000000 0.000000
0.047407 0.000000 0.000000
0.050370 0.000000 0.000000
0.053333 0.000000 0.000000
0.056296 0.000000 0.000000
0.059259 0.000000 0.000000
0.062222 0.000000 0.000000
0.065185 0.000000 0.000000
0.068148 0.000000 0.000000
0.071111 0.000000 0.000000
0.074074 0.000000 0.000000
0.077037 0.000000 0.000000
0.080000 0.002963 0.000000
0.080000 0.005926 0.000000
0.080000 0.008889 0.000000
0.080000 0.011852 0.000000
0.080000 0.014815 0.000000
0.080000 0.017778 0.000000
0.080000 0.020741 0.000000
0.080000 0.023704 0.000000
0.080000 0.026667 0.000000
0.080000 0.029630 0.000000
0.080000 0.032593 0.000000
0.080000 0.035556 0.000000
0.080000 0.038519 0.000000
0.080000 0.041481 0.000000
0.080000 0.044444 0.000000
0.080000 0.047407 0.000000
0.080000 0.050370 0.000000
0.080000 0.053333 0.000000
0.080000 0.056296 0.000000
0.080000 0.059259 0.000000
0.080000 0.062222 0.000000
0.080000 0.065185 0.000000
0.080000 0.068148 0.000000
0.080000 0.071111 0.000000
0.080000 0.074074 0.000000
0.080000 0.077037 0.000000
0.080000 0.080000 0.000000
0.080000 0.082963 0.000000
0.080000 0.085926 0.000000
0.080000 0.088889 0.000000
0.080000 0.091852 0.000000
0.080000 0.094815 0.000000
0.080000 0.097778 0.000000
0.080000 0.100741 0.000000
0.080000 0.103704 0.000000
0.080000 0.106667 0.000000
0.080000 0.109630 0.000000
0.080000 0.112593 0.000000
0.080000 0.115556 0.000000
0.080000 0.118519 0.000000
0.080000 0.121481 0.000000
0.080000 0.124444 0.000000
0.080000 0.127407 0.000000
0.080000 0.130370 0.000000
0.080000 0.133333 0.000000
0.080000 0.136296 0.000000
0.080000 0.139259 0.000000
0.080000 0.142222 0.000000
0.080000 0.145185 0.000000
0.080000 0.148148 0.000000
0.080000 0.151111 0.000000
0.080000 0.154074 0.000000
0.080000 0.157037 0.000000
0.077037 0.160000 0.000000
0.074074 0.160000 0.000000
0.071111 0.160000 0.000000
0.068148 0.160000 0.000000
0.065185 0.160000 0.000000
0.062222 0.160000 0.000000
0.059259 0.160000 0.000000
0.056296 0.160000 0.000000
0.053333 0.160000 0.000000
0.050370 0.160000 0.000000
0.047407 0.160000 0.000000
0.044444 0.160000 0.000000
0.041481 0.160000 0.000000
0.038519 0.160000 0.000000
0.035556 0.160000 0.000000
0.032593 0.160000 0.000000
0.029630 0.160000 0.000000
0.026667 0.160000 0.000000
0.023704 0.160000 0.000000
0.020741 0.160000 0.000000
0.017778 0.160000 0.000000
0.014815 0.160000 0.000000
0.011852 0.160000 0.000000
0.008889 0.160000 0.000000
0.005926 0.160000 0.000000
0.002963 0.160000 0.000000
0.000000 0.157037 0.000000
0.000000 0.154074 0.000000
0.000000 0.151111 0.000000
0.000000 0.148148 0.000000
0.000000 0.145185 0.000000
0.000000 0.142222 0.000000
0.000000 0.139259 0.000000
0.000000 0.136296 0.000000
0.000000 0.133333 0.000000
0.000000 0.130370 0.000000
0.000000 0.127407 0.000000
0.000000 0.124444 0.000000
0.000000 0.121481 0.000000
0.000000 0.118519 0.000000
0.000000 0.115556 0.000000
0.000000 0.112593 0.000000
0.000000 0.109630 0.000000
0.000000 0.106667 0.000000
0.000000 0.103704 0.000000
0.000000 0.100741 0.000000
0.000000 0.097778 0.000000
0.000000 0.094815 0.000000
0.000000 0.091852 0.000000
0.000000 0.088889 0.000000
0.000000 0.085926 0.000000
0.000000 0.082963 0.000000
0.000000 0.080000 0.000000
0.000000 0.077037 0.000000
0.000000 0.074074 0.000000
0.000000 0.071111 0.000000
0.000000 0.068148 0.000000
0.000000 0.065185 0.000000
0.000000 0.062222 0.000000
0.000000 0.059259 0.000000
0.000000 0.056296 0.000000
0.000000 0.053333 0.000000
0.000000 0.050370 0.000000
0.000000 0.047407 0.000000
0.000000 0.044444 0.000000
0.000000 0.041481 0.000000
0.000000 0.038519 0.000000
0.000000 0.035556 0.000000
0.000000 0.032593 0.000000
0.000000 0.029630 0.000000
0.000000 0.026667 0.000000
0.000000 0.023704 0.000000
0.000000 0.020741 0.000000
0.000000 0.017778 0.000000
0.000000 0.014815 0.000000
0.000000 0.011852 0.000000
0.000000 0.008889 0.000000
0.000000 0.005926 0.000000
0.000000 0.002963 0.000000
0.035500 0.072746 0.000000
0.035000 0.072419 0.000000
0.034500 0.072093 0.000000
0.034000 0.071767 0.000000
0.033500 0.071440 0.000000
0.033000 0.071114 0.000000
0.032500 0.070788 0.000000
0.032000 0.070461 0.000000
0.031500 0.070135 0.000000
0.031000 0.069809 0.000000
0.030500 0.069482 0.000000
0.030000 0.069156 0.000000
0.029500 0.068829 0.000000
0.029000 0.068503 0.000000
0.028500 0.068177 0.000000
0.028000 0.067850 0.000000
0.027500 0.067524 0.000000
0.027000 0.067198 0.000000
0.026500 0.066871 0.000000
0.026000 0.066545 0.000000
0.025500 0.066219 0.000000
0.025000 0.065892 0.000000
0.044500 0.087216 0.000000
0.045000 0.087505 0.000000
0.045500 0.087793 0.000000
0.046000 0.088081 0.000000
0.046500 0.088370 0.000000
0.047000 0.088658 0.000000
0.047500 0.088946 0.000000
0.048000 0.089235 0.000000
0.048500 0.089523 0.000000
0.049000 0.089811 0.000000
0.049500 0.090100 0.000000
0.050000 0.090388 0.000000
0.050500 0.090677 0.000000
0.051000 0.090965 0.000000
0.051500 0.091253 0.000000
0.052000 0.091542 0.000000
0.052500 0.091830 0.000000
0.053000 0.092118 0.000000
0.053500 0.092407 0.000000
0.054000 0.092695 0.000000
0.054500 0.092983 0.000000
0.055000 0.093272 0.000000
0.043704 0.086415 0.000000
0.043407 0.085902 0.000000
0.043111 0.085388 0.000000
0.042815 0.084875 0.000000
0.042519 0.084362 0.000000
0.042222 0.083849 0.000000
0.041926 0.083336 0.000000
0.041630 0.082823 0.000000
0.041333 0.082309 0.000000
0.041037 0.081796 0.000000
0.040741 0.081283 0.000000
0.040444 0.080770 0.000000
0.040148 0.080257 0.000000
0.039852 0.079743 0.000000
0.039556 0.079230 0.000000
0.039259 0.078717 0.000000
0.038963 0.078204 0.000000
0.038667 0.077691 0.000000
0.038370 0.077177 0.000000
0.038074 0.076664 0.000000
0.037778 0.076151 0.000000
0.037481 0.075638 0.000000
0.037185 0.075125 0.000000
0.036889 0.074612 0.000000
0.036593 0.074098 0.000000
0.036296 0.073585 0.000000
0.024000 0.065235 0.000000
0.023500 0.064904 0.000000
0.023000 0.064572 0.000000
0.022500 0.064241 0.000000
0.022000 0.063910 0.000000
0.021500 0.063579 0.000000
0.021000 0.063248 0.000000
0.020500 0.062916 0.000000
0.020000 0.062585 0.000000
0.019500 0.062254 0.000000
0.019000 0.061923 0.000000
0.018500 0.061592 0.000000
0.018000 0.061261 0.000000
0.017500 0.060929 0.000000
0.017000 0.060598 0.000000
0.016500 0.060267 0.000000
0.016000 0.059936 0.000000
0.015500 0.059605 0.000000
0.015000 0.059273 0.000000
0.014500 0.058942 0.000000
0.014000 0.058611 0.000000
0.013500 0.058280 0.000000
0.013000 0.057949 0.000000
0.012500 0.057617 0.000000
0.012000 0.057286 0.000000
0.011500 0.056955 0.000000
0.011000 0.056624 0.000000
0.010500 0.056293 0.000000
0.010000 0.055961 0.000000
0.009500 0.055630 0.000000
0.009000 0.055299 0.000000
0.008500 0.054968 0.000000
0.008000 0.054637 0.000000
0.007500 0.054305 0.000000
0.007000 0.053974 0.000000
0.006500 0.053643 0.000000
0.006000 0.053312 0.000000
0.005500 0.052981 0.000000
0.005000 0.052650 0.000000
0.004500 0.052318 0.000000
0.004000 0.051987 0.000000
0.003500 0.051656 0.000000
0.003000 0.051325 0.000000
0.002500 0.050994 0.000000
0.002000 0.050662 0.000000
0.001500 0.050331 0.000000
0.055990 0.093902 0.000000
0.056479 0.094245 0.000000
0.056969 0.094587 0.000000
0.057458 0.094930 0.000000
0.057948 0.095272 0.000000
0.058437 0.095615 0.000000
0.058927 0.095957 0.000000
0.059417 0.096300 0.000000
0.059906 0.096642 0.000000
0.060396 0.096985 0.000000
0.060885 0.097327 0.000000
0.061375 0.097670 0.000000
0.061865 0.098012 0.000000
0.062354 0.098355 0.000000
0.062844 0.098697 0.000000
0.063333 0.099040 0.000000
0.063823 0.099382 0.000000
0.064312 0.099725 0.000000
0.064802 0.100067 0.000000
0.065292 0.100410 0.000000
0.065781 0.100752 0.000000
0.066271 0.101095 0.000000
0.066760 0.101437 0.000000
0.067250 0.101780 0.000000
0.067740 0.102122 0.000000
0.068229 0.102465 0.000000
0.068719 0.102807 0.000000
0.069208 0.103150 0.000000
0.069698 0.103492 0.000000
0.070187 0.103835 0.000000
0.070677 0.104177 0.000000
0.071167 0.104520 0.000000
0.071656 0.104862 0.000000
0.072146 0.105205 0.000000
0.072635 0.105547 0.000000
0.073125 0.105890 0.000000
0.073615 0.106232 0.000000
0.074104 0.106575 0.000000
0.074594 0.106917 0.000000
0.075083 0.107260 0.000000
0.075573 0.107602 0.000000
0.076062 0.107945 0.000000
0.076552 0.108287 0.000000
0.077042 0.108630 0.000000
0.077531 0.108972 0.000000
0.078021 0.109315 0.000000
0.078510 0.109658 0.000000
0.043942 0.087469 0.000000
0.035556 0.157037 0.000000
0.044420 0.002920 0.000000
0.077037 0.038519 0.000000
0.002963 0.121481 0.000000
0.077037 0.059259 0.000000
0.002963 0.109630 0.000000
0.002923 0.098139 0.000000
0.077153 0.126913 0.000000
0.002808 0.032596 0.000000
0.077140 0.071061 0.000000
0.002963 0.085926 0.000000
0.002963 0.136296 0.000000
0.077041 0.023701 0.000000
0.056296 0.157037 0.000000
0.032593 0.002963 0.000000
0.077037 0.080000 0.000000
0.002813 0.077135 0.000000
0.077037 0.142222 0.000000
0.017778 0.157037 0.000000
0.062222 0.002963 0.000000
0.076992 0.088722 0.000000
0.002945 0.020743 0.000000
0.017777 0.002962 0.000000
0.002801 0.068434 0.000000
0.002959 0.011851 0.000000
0.065186 0.157038 0.000000
0.002963 0.148148 0.000000
0.077037 0.011852 0.000000
0.076887 0.094740 0.000000
0.077092 0.115875 0.000000
0.002677 0.044265 0.000000
0.077038 0.148148 0.000000
0.002985 0.062165 0.000000
0.077037 0.047407 0.000000
0.011852 0.002963 0.000000
[...]
POINT_DATA 4677
SCALARS UX float 1
LOOKUP_TABLE default
-0.000000
0.000001
0.053137
-0.023264
0.000528
-0.010811
-0.040695
0.028029
-0.051258
0.037728
-0.000000
-0.000000
-0.000000
-0.000000
-0.000000
-0.000000
-0.000000
-0.000000
-0.000000
-0.000000
-0.000000
-0.000000
-0.000000
0.000000
0.000000
0.000000
0.000000
0.000000
0.000000
0.000000
0.000000
0.000000
0.000000
0.000000
0.000000
-0.000000
0.005164
0.008206
0.010498
0.012628
0.014705
0.016826
0.018899
0.020885
0.022853
0.024917
0.027008
0.029241
0.031878
0.035040
0.038631
0.043091
0.046223
0.048242
0.048736
0.048108
0.047947
0.046314
0.047473
0.051021
0.059262
0.061391
0.058737
0.056931
0.051965
0.046406
0.044291
0.042350
0.040506
0.038983
0.038983
0.039201
0.038706
0.037170
0.037260
0.036836
0.036307
0.037092
0.036176
0.034030
0.036425
0.037662
0.037197
0.039877
0.042889
0.044780
0.049905
0.050336
0.050229
0.049112
0.047210
0.043193
0.038852
0.035716
0.031338
0.028426
0.024327
0.019952
0.014831
0.012085
0.007931
0.005134
0.001634
-0.001402
-0.003732
-0.006494
-0.009217
-0.011794
-0.013755
-0.015013
-0.015254
-0.016789
-0.018769
-0.019838
-0.021915
-0.024258
-0.025294
-0.026439
-0.027346
-0.029227
-0.031286
-0.031706
-0.035221
-0.040045
-0.043629
-0.046775
-0.051505
-0.052561
-0.051252
-0.048259
-0.045268
-0.042948
-0.041913
-0.039644
-0.039104
-0.038816
-0.041394
-0.045098
-0.050593
-0.055194
-0.062173
-0.062191
-0.062556
-0.062945
-0.057942
-0.056490
-0.055078
-0.053698
-0.052247
-0.051076
-0.051874
-0.052056
-0.051764
-0.051474
-0.050720
-0.049318
-0.045604
-0.043838
-0.041934
-0.039338
-0.038095
-0.032610
-0.030499
-0.025268
-0.020492
-0.018696
-0.016063
-0.009716
-0.000258
-0.002011
-0.004682
-0.005823
-0.006984
-0.007184
-0.007553
-0.008929
-0.010619
-0.012127
-0.013459
-0.014065
-0.014751
-0.017963
-0.020446
-0.023036
-0.024649
-0.028969
-0.033187
-0.034873
-0.038140
-0.039459
-0.009553
-0.011995
-0.006953
-0.007115
-0.011074
-0.004150
0.001082
0.006035
0.003931
0.004021
-0.000840
0.012998
0.014507
0.017014
0.017489
0.020352
0.022417
0.023831
0.028786
0.025907
0.027970
0.029540
-0.011651
-0.011203
-0.010799
-0.009980
-0.009251
-0.008482
-0.007771
-0.006848
-0.006015
-0.005318
-0.004576
-0.003856
-0.003295
-0.002817
-0.002394
-0.002010
-0.001636
-0.001291
-0.000994
-0.000791
-0.000578
-0.000428
-0.000273
-0.000125
0.000079
0.000443
-0.038384
-0.037928
-0.038114
-0.038452
-0.038844
-0.039227
-0.039624
-0.039988
-0.040312
-0.040546
-0.040738
-0.040858
-0.040921
-0.040963
-0.041016
-0.041087
-0.041158
-0.041240
-0.041268
-0.041328
-0.041478
-0.041644
-0.041957
-0.042093
-0.042531
-0.042663
-0.042989
-0.043315
-0.043635
-0.043946
-0.044226
-0.044547
-0.044947
-0.045416
-0.045890
-0.046376
-0.046870
-0.047283
-0.047803
-0.048276
-0.048777
-0.049279
-0.049769
-0.050131
-0.050583
-0.050930
0.027103
0.027015
0.026891
0.026664
0.026623
0.026625
0.026589
0.026551
0.026493
0.026447
0.026455
0.026460
0.026528
0.026413
0.026563
0.026527
0.026728
0.026877
0.027122
0.027349
0.027583
0.027769
0.028028
0.028241
0.028486
0.028647
0.028872
0.029114
0.029373
0.029652
0.029987
0.030289
0.030757
0.031222
0.031698
0.032157
0.032606
0.033198
0.033846
0.034456
0.034962
0.035469
0.035953
0.036357
0.036735
0.037082
0.037411
-0.011181
-0.002820
-0.000251
0.030345
-0.048519
0.046505
-0.041013
-0.036292
0.031582
-0.041037
0.046890
-0.048408
-0.030908
0.018164
0.020343
-0.001179
0.053692
-0.057469
0.037346
-0.016247
0.000263
0.044117
-0.030006
-0.001788
-0.054419
-0.017794
0.032176
-0.026009
0.009450
0.038926
0.033366
-0.048448
0.042445
-0.051206
0.040787
-0.002524
0.040035
-0.021589
0.000722
-0.049795
0.036774
0.031729
0.003139
0.009759
-0.001438
-0.037592
0.022501
-0.013029
0.000280
0.046385
0.032651
-0.046660
-0.011001
0.031558
-0.044913
-0.049692
-0.058422
0.050132
-0.040135
-0.053223
0.043530
0.052655
0.045826
-0.037463
0.036604
-0.045836
-0.037991
-0.036146
0.033411
-0.007925
0.033328
0.000158
-0.000499
-0.042281
0.024845
-0.000826
-0.027607
-0.001525
0.025018
0.012815
-0.028380
0.013815
-0.014735
-0.003153
-0.013099
-0.018445
0.000336
0.043496
-0.004261
-0.004480
-0.024335
0.004280
-0.022978
0.001341
0.036338
-0.012092
-0.050256
-0.050378
0.037302
-0.011717
-0.001080
0.028763
0.043048
-0.035958
-0.044163
0.029383
0.010993
-0.032274
0.030092
-0.002787
-0.044451
-0.025235
-0.048746
0.047036
0.033874
0.017854
-0.015047
-0.005565
-0.010443
0.037279
-0.022702
0.001688
0.035329
-0.049901
0.037796
-0.052977
0.041601
-0.055874
-0.051090
0.048059
0.031578
-0.042510
0.037747
-0.057872
0.055822
-0.042181
-0.038304
0.042722
0.044942
-0.035985
-0.039206
0.046898
-0.043284
0.043814
0.029800
0.037053
-0.048936
-0.000509
-0.045327
0.027373
-0.005603
-0.000007
0.005266
-0.035445
-0.010617
0.000246
-0.001000
0.034717
-0.034935
0.020350
0.016257
-0.001317
-0.014893
0.000276
-0.022973
-0.001608
0.028551
-0.027385
0.016019
-0.002091
-0.026795
0.011636
0.035891
0.039980
-0.017172
0.000260
0.044000
0.045477
-0.020057
0.000503
-0.025439
0.007077
-0.050794
0.037053
0.036223
-0.047770
-0.050019
-0.009586
-0.012443
0.037471
-0.050003
0.029957
-0.043455
-0.010591
-0.009441
-0.009319
0.042814
-0.034403
-0.036475
0.027773
-0.042863
-0.006642
-0.015908
-0.053507
0.000339
0.017588
0.039535
-0.023666
-0.018908
0.035840
0.008449
-0.024006
0.000574
0.035390
-0.049545
0.027524
0.044015
-0.041428
0.041034
-0.045964
0.003812
-0.029068
0.025957
-0.003314
-0.004390
-0.023387
0.032938
0.038789
-0.050053
0.035907
-0.047309
0.032380
0.049410
-0.050374
0.027675
-0.050612
-0.048396
0.044332
0.045607
-0.033947
0.035668
-0.039792
-0.041669
-0.045326
0.039777
0.040765
-0.036665
0.025802
-0.001896
-0.001504
-0.034175
0.035239
0.031955
-0.000123
-0.000551
-0.039596
0.027486
0.007405
-0.011448
0.014428
-0.040884
-0.036138
0.030779
0.034750
0.028182
-0.001391
-0.032615
-0.002519
0.022389
-0.020780
-0.003021
0.012833
0.000458
-0.028166
-0.012599
-0.007284
0.039570
-0.021155
0.000952
0.003761
-0.036792
-0.012974
-0.010802
0.035453
-0.049275
-0.050184
0.037626
-0.051103
0.037043
-0.011948
-0.008343
-0.009654
-0.012244
-0.011546
-0.002118
0.029670
0.035270
-0.032921
0.002936
-0.035350
-0.034267
0.024704
0.042366
-0.003695
0.013659
-0.030400
-0.022453
-0.007426
-0.048601
0.034307
0.024827
-0.008066
-0.054103
0.023290
-0.001016
0.026035
-0.004598
0.019428
0.028897
-0.028546
-0.021907
0.001840
-0.008971
-0.052440
0.037574
-0.036680
-0.049639
-0.035678
-0.052530
-0.035675
-0.033051
0.020289
0.041756
0.030671
0.043592
-0.038875
0.043080
0.041846
-0.043841
0.027041
0.041803
-0.034650
0.001248
-0.002166
-0.009288
-0.026897
0.037736
0.000167
-0.013885
-0.031808
0.005168
0.023733
-0.043520
0.000425
-0.017491
0.032637
0.015156
-0.017697
-0.012149
0.010641
0.034186
0.029356
-0.003734
-0.025289
0.000485
-0.004232
-0.019991
-0.023608
0.036573
0.006162
0.000708
-0.041021
0.026822
-0.043934
-0.013046
-0.048994
-0.012819
-0.009401
0.036078
-0.048019
0.033375
-0.011330
-0.008065
0.035371
-0.049578
-0.049021
0.036454
0.034483
-0.010980
-0.008341
-0.009241
-0.048884
-0.045265
-0.012538
-0.006899
0.041171
-0.030247
-0.026771
-0.033662
0.025422
0.001211
-0.050390
-0.042050
-0.011798
0.038682
-0.021308
0.000339
0.014476
-0.029735
-0.048319
-0.017778
-0.036923
0.000683
0.007457
0.039353
-0.002580
0.031929
-0.002420
-0.040839
-0.040056
0.028574
-0.019653
-0.005973
0.003377
-0.020541
0.035728
-0.046317
0.028827
0.024363
-0.051200
-0.029980
-0.037374
-0.032529
-0.003133
0.038757
0.020224
-0.033407
0.032327
0.000164
-0.001616
-0.038628
0.025181
0.025136
-0.046479
0.042486
0.042578
0.010632
0.037743
0.027124
-0.033183
-0.025357
-0.014316
-0.004111
0.026603
-0.026037
0.016387
-0.005172
0.036346
0.000491
-0.007624
0.023217
0.029896
-0.032000
0.011911
-0.012051
0.031896
-0.009212
-0.000369
-0.022645
-0.022053
0.000848
0.001152
-0.039132
-0.010465
-0.008646
-0.008862
-0.048424
-0.048285
0.034504
0.034657
-0.012585
-0.047934
-0.013627
0.034336
-0.051235
-0.007819
0.030590
0.042591
0.024269
0.039455
-0.043335
-0.047662
-0.009201
-0.010649
0.033142
-0.010293
-0.006235
0.026793
0.035541
-0.035617
-0.002183
0.039088
-0.038698
0.022838
0.026785
0.040363
0.012362
-0.024579
-0.012505
-0.004932
-0.044821
0.023805
0.000289
0.012067
0.032149
0.017466
-0.020272
-0.020603
-0.006740
-0.030584
0.018858
0.022838
0.030354
-0.007047
0.000877
-0.023851
-0.011752
0.001853
-0.007898
0.029551
-0.028822
0.041254
-0.007507
-0.031957
-0.003619
-0.029543
0.035168
0.040774
-0.001680
0.024209
-0.035744
-0.007827
-0.039258
-0.001468
-0.043287
0.022955
0.008421
-0.047551
0.040206
0.021995
-0.050345
0.033838
0.000060
0.040297
-0.028848
-0.027714
-0.037405
-0.030956
0.020694
-0.015112
-0.004745
0.027169
-0.016487
0.009548
-0.005568
0.026652
0.000580
-0.024220
0.004051
-0.007712
0.024705
-0.010372
0.005411
-0.022250
-0.019114
0.017263
0.033637
-0.047318
-0.011182
-0.048759
-0.046259
-0.009270
-0.007569
-0.012047
-0.010992
-0.013580
-0.013670
-0.041931
-0.007914
-0.007689
-0.007802
-0.028222
-0.050657
-0.041280
-0.047260
0.022650
0.041232
0.034658
0.045071
0.048325
-0.047439
-0.048453
0.033599
-0.008724
0.033513
-0.048306
-0.035504
0.035229
0.034197
-0.008256
-0.012156
-0.005697
-0.033113
-0.024000
0.023176
-0.001868
-0.029173
-0.046593
-0.002620
-0.031370
0.016291
-0.039294
0.027450
-0.006292
0.038648
-0.028167
0.019979
0.007460
-0.044810
-0.047142
-0.016617
0.032440
0.038898
0.020543
0.033879
-0.005949
-0.006392
0.020639
-0.037162
-0.020984
-0.010848
-0.000103
-0.009042
0.023871
0.006341
-0.048787
0.000680
-0.022119
0.003002
-0.020613
-0.012515
-0.007208
-0.027994
-0.041722
-0.031636
-0.034225
0.038440
0.038317
-0.025360
-0.036309
0.015991
0.039856
-0.002959
-0.049991
0.033435
-0.037554
-0.000700
-0.004317
-0.046645
-0.027294
0.036075
0.023219
0.033958
0.003527
-0.006270
-0.012241
0.020758
0.028350
0.030246
0.014030
0.000510
-0.022743
0.008432
0.025674
0.023593
-0.020729
0.032571
-0.003807
-0.014415
0.001201
-0.010129
0.033489
-0.019437
-0.046138
0.037685
0.033352
0.030782
-0.009660
-0.004281
-0.045980
-0.047692
0.021844
-0.042716
-0.010011
0.039178
-0.005707
-0.007751
-0.013216
-0.004982
-0.013377
-0.014127
-0.027832
-0.008153
0.033889
-0.006818
-0.003370
0.034492
-0.047875
-0.032735
-0.047724
0.033038
-0.006656
-0.046723
0.021445
-0.031487
-0.007106
-0.013024
0.019417
-0.004532
0.035726
0.029378
-0.022330
-0.033141
0.033988
-0.040443
-0.000324
0.005666
-0.010750
-0.021517
0.006029
-0.003418
-0.005368
0.000533
-0.044689
-0.045942
-0.029014
-0.028660
0.011397
-0.030481
-0.032669
0.012063
0.027382
0.026476
-0.007966
0.018929
0.021120
-0.019247
-0.014213
-0.013615
-0.026616
-0.030815
-0.007896
-0.036309
-0.030600
-0.003882
-0.005524
0.034526
0.037223
-0.048529
-0.048752
0.037511
-0.006413
-0.047705
-0.004630
-0.005458
-0.035444
0.033713
-0.047584
-0.008214
0.032019
-0.026462
-0.035682
0.020591
-0.007076
-0.025427
0.020753
-0.046325
-0.047497
-0.025451
0.036747
0.038014
-0.010435
-0.046788
0.000742
-0.017645
-0.020630
0.009915
0.023797
0.017930
-0.019216
0.021797
0.001734
0.004775
0.033051
-0.018259
-0.020407
0.000794
-0.038392
0.020118
0.036073
-0.001939
-0.010943
0.030774
0.028341
-0.005458
-0.046930
0.025001
0.020475
0.032667
-0.045987
-0.005527
-0.008574
-0.011908
-0.014043
-0.043946
0.001442
-0.014260
-0.043208
-0.006371
0.032557
0.029629
-0.047394
-0.008987
0.039527
0.020647
-0.034773
-0.005539
-0.003344
0.032191
-0.005151
0.032009
0.000555
-0.045624
0.018662
-0.026996
0.023279
-0.003583
-0.032513
-0.022591
-0.003862
-0.043043
0.012847
0.036144
-0.047216
0.035114
0.017647
-0.008837
-0.018740
-0.026221
-0.030082
-0.002778
-0.046508
-0.043608
0.031700
-0.045366
0.018306
-0.034287
-0.035012
0.000592
-0.004664
-0.009124
-0.023607
0.017400
-0.026196
0.004208
-0.018301
0.035513
-0.014429
-0.046205
0.031063
0.035898
-0.045212
-0.008808
0.008154
-0.031723
-0.038040
0.023693
0.007973
-0.035440
0.029918
0.036030
-0.006825
-0.047236
-0.023044
-0.011671
0.032191
-0.004727
0.030877
-0.022992
0.035511
-0.001091
0.002685
0.015901
-0.017627
0.000197
-0.016290
-0.031407
0.003060
0.001126
-0.012456
-0.046945
-0.012782
0.020430
-0.029215
0.026721
-0.028089
-0.026924
-0.006849
-0.018520
-0.017909
-0.019366
0.019705
-0.036018
-0.023136
0.025463
0.037485
-0.026753
0.036602
0.018884
-0.004453
-0.011772
-0.014574
-0.006369
-0.005108
-0.013071
-0.005766
0.028578
-0.002941
0.029552
-0.010589
0.031754
0.031342
-0.004755
-0.014122
0.033458
-0.003158
-0.046613
-0.007537
0.005112
-0.046004
-0.048165
-0.029333
0.034870
-0.004543
-0.034419
-0.009835
-0.045397
-0.048719
-0.030264
0.023230
-0.000955
-0.045151
-0.000527
-0.041887
0.031918
0.031968
-0.012632
-0.014928
-0.003643
-0.004097
0.033871
-0.029225
-0.021066
0.027798
-0.005090
-0.021000
0.026837
0.033557
-0.042282
0.002768
-0.046041
-0.008808
-0.016191
-0.012991
0.026484
0.024778
-0.046001
-0.024324
0.009112
-0.031712
-0.027215
0.031399
-0.009560
-0.030628
0.005367
0.000272
-0.025285
-0.014622
-0.001455
0.002442
-0.016601
-0.018396
0.000089
-0.019454
0.032714
0.034535
-0.005902
-0.028741
0.031029
0.021423
0.014438
0.034014
0.034591
0.034814
0.036756
0.009363
-0.044294
0.000438
0.029433
-0.039174
-0.045783
-0.010341
-0.032644
-0.047448
0.031684
-0.024459
-0.047212
-0.023386
-0.002473
0.017004
-0.030175
0.000993
0.018405
-0.044570
-0.018947
-0.045309
0.034943
-0.025957
-0.003770
-0.004665
-0.020759
0.019723
0.014939
0.004460
-0.021415
-0.007780
-0.030718
-0.028559
0.017957
0.001519
0.018429
-0.004901
-0.004956
0.024941
-0.033226
0.024002
-0.046208
-0.045474
-0.009731
-0.012666
0.018255
-0.007647
-0.004943
-0.014770
-0.004725
0.031071
0.028890
0.000059
-0.045079
0.029894
-0.014086
-0.045165
-0.003420
-0.028949
-0.013774
0.031505
-0.001257
0.020509
-0.010627
-0.039802
-0.003389
-0.044853
0.035426
0.030951
-0.006574
0.004322
-0.034647
-0.048700
0.001063
0.032266
-0.029560
-0.032022
0.016940
-0.013409
-0.028648
-0.003115
-0.002582
-0.020136
-0.031326
-0.039364
0.002947
0.024999
0.011480
0.034514
-0.040866
0.034143
0.015642
-0.003889
-0.023788
-0.008322
0.032860
0.000768
-0.029963
-0.015175
-0.045333
-0.004507
-0.022552
-0.045815
-0.024966
-0.010343
-0.000068
-0.003154
0.001468
-0.026046
-0.046416
-0.026715
-0.003260
0.028858
0.013490
-0.030437
0.031445
-0.012198
-0.029701
-0.046084
0.030818
-0.043167
0.031547
0.029552
-0.030099
-0.026536
-0.006678
0.013328
-0.019645
-0.027679
-0.021438
0.023436
0.021808
-0.004084
0.003351
-0.016519
0.020482
0.029919
0.019597
-0.014465
-0.016448
0.034535
-0.000595
0.006865
-0.010957
0.027250
0.034037
0.017149
-0.027570
-0.009435
0.008505
0.017184
-0.016180
-0.000028
0.033825
-0.018465
0.017593
-0.044270
-0.013601
-0.027884
-0.006149
-0.048057
-0.008486
-0.008409
-0.001366
-0.006251
-0.003252
-0.014701
-0.044520
-0.044830
-0.014796
0.034364
-0.031451
-0.011524
0.003472
-0.037608
-0.011450
-0.003032
0.018359
0.031132
0.011076
-0.028386
-0.044021
-0.003598
0.035599
0.024249
0.035869
0.030668
0.000761
-0.002379
-0.004632
0.030548
-0.012865
-0.023213
0.002615
-0.028729
0.015829
-0.045293
-0.044926
0.033453
-0.005558
0.005368
-0.026814
0.029172
-0.001367
-0.002077
0.016647
-0.023588
-0.023033
0.028466
0.018343
0.023434
-0.038961
-0.005060
-0.014256
0.007664
0.032985
0.014977
-0.002754
0.032318
-0.009952
-0.025423
-0.026362
-0.044370
0.031509
0.031548
0.033675
-0.044552
-0.020132
0.000400
0.000847
-0.043898
-0.010496
-0.015117
0.014101
-0.000972
-0.024319
-0.027133
0.032944
-0.016714
0.033079
0.011468
-0.025449
0.029725
-0.015187
0.034661
0.020549
-0.041752
-0.033999
-0.041825
0.006172
-0.011167
-0.002345
-0.046886
-0.023058
0.033152
-0.043488
0.002459
-0.021853
-0.008281
0.000714
0.019451
-0.006230
0.022638
-0.003532
0.001263
0.035150
0.015240
-0.016912
0.024661
0.025482
-0.017153
-0.045888
-0.010693
0.005322
0.017562
-0.001996
-0.020788
0.030914
-0.006315
-0.028127
-0.030235
-0.014366
0.015745
-0.021988
0.020977
-0.030835
0.016286
-0.007227
0.009128
-0.027098
-0.003443
-0.002272
-0.001818
0.016353
-0.004077
0.031173
0.029018
-0.009040
-0.007531
-0.006422
-0.014462
-0.010828
-0.013277
-0.045474
0.030348
0.030003
-0.014469
-0.007134
-0.004886
-0.027914
-0.001988
-0.034853
-0.001556
-0.015267
0.011691
0.030656
-0.044956
-0.012300
-0.015218
-0.044194
0.034814
0.003587
0.005165
0.030189
-0.027272
-0.043334
0.033244
-0.043949
-0.045895
-0.044319
0.002330
-0.047389
0.027220
0.002388
0.003377
-0.014142
0.024988
-0.026061
-0.019289
-0.001176
-0.022356
-0.022161
-0.031722
0.021373
-0.038854
0.032566
-0.007292
-0.044811
0.033126
0.001367
0.032089
-0.012599
-0.045080
-0.025522
-0.005815
0.031593
-0.024248
0.028851
-0.001525
0.013886
0.029690
0.001066
-0.014360
-0.044438
-0.002565
-0.014620
-0.044827
0.003740
-0.007657
-0.008424
-0.002019
0.030610
0.024690
0.009070
-0.044328
-0.000041
-0.022066
0.001685
0.003618
-0.011999
0.032857
0.033660
-0.008517
-0.036522
-0.013073
-0.015176
-0.021045
-0.011591
0.024086
0.017336
-0.015232
-0.012813
0.026257
0.031489
0.003704
0.010405
0.016268
-0.021835
-0.019572
-0.028231
0.032421
-0.003738
0.005569
-0.008701
-0.029589
-0.025343
0.026470
-0.019335
-0.026206
-0.025821
0.018138
0.005125
0.012407
-0.043464
-0.043519
-0.028316
-0.002028
0.015629
-0.044082
-0.042827
0.015204
0.031850
-0.026667
-0.004012
-0.026109
-0.023693
-0.014049
-0.002640
0.027284
-0.001306
-0.005094
0.008845
-0.015350
0.020952
-0.009744
0.007074
-0.001197
0.023931
-0.007729
-0.009877
0.030124
-0.015130
-0.005804
-0.015068
-0.003494
0.033813
0.033543
-0.001248
-0.015532
0.033430
0.029930
-0.044958
0.029440
-0.013104
-0.000827
-0.045871
-0.029998
-0.002483
-0.002862
0.007489
0.000596
0.029815
0.002308
0.036210
0.005113
-0.044089
-0.012408
-0.043721
-0.018037
-0.043395
0.011075
-0.029309
-0.040315
-0.042613
0.018025
0.003826
0.029303
-0.012787
0.023475
0.016036
-0.018843
-0.000498
-0.030096
0.023905
0.022599
0.019317
0.003484
-0.042398
0.007245
0.027477
0.032232
-0.003146
0.031408
-0.024231
-0.024962
-0.025171
-0.013543
-0.001556
-0.022766
0.001889
0.032018
-0.026359
-0.028240
-0.010205
-0.010660
0.019065
-0.043514
-0.015117
-0.035789
-0.043892
0.015163
-0.000823
-0.000094
0.003830
-0.000374
0.032489
-0.000298
0.007486
0.011238
-0.014789
-0.024467
0.031784
-0.019806
-0.033696
0.030987
-0.026925
-0.008637
-0.015285
0.028084
-0.012782
-0.010849
-0.044983
-0.005936
0.012484
-0.000275
-0.001495
-0.042591
-0.013026
0.027990
0.022436
0.009612
-0.020354
-0.021797
0.032543
-0.018884
0.018694
0.032855
-0.018733
0.012663
0.017223
0.007709
0.031760
0.019463
-0.002756
0.029451
-0.013406
0.004768
-0.011925
-0.025780
-0.025349
0.030975
0.011164
-0.012643
-0.032799
-0.006287
0.014828
-0.025934
0.021691
0.014520
-0.001526
0.025727
0.003387
-0.007942
-0.000987
-0.010528
0.006041
0.003324
-0.014812
-0.008308
-0.045259
-0.043838
-0.041004
-0.011420
-0.004438
-0.006434
0.012803
-0.004574
-0.013836
0.032348
-0.015590
0.035384
0.028680
-0.001127
-0.001791
-0.027408
-0.015614
-0.038728
-0.045507
-0.001862
0.001987
-0.041640
0.029445
0.029710
0.029361
0.029389
-0.043861
0.007389
-0.043177
-0.002506
0.010012
-0.043359
-0.043301
0.031231
0.026868
-0.025446
0.016508
-0.011933
-0.031249
0.016992
0.019301
-0.035897
0.031259
-0.003106
0.026067
-0.011617
0.003891
-0.010326
-0.044271
0.030922
0.030358
0.011422
0.031223
0.028931
-0.024452
-0.026629
-0.027487
-0.018001
0.030077
0.013999
-0.008462
0.028857
-0.003602
0.000029
-0.041675
0.000160
-0.000277
-0.044655
-0.022977
-0.020366
-0.012458
0.018809
0.027408
0.021427
0.024262
-0.043298
-0.013066
-0.012606
0.019955
0.011413
0.004923
-0.043452
0.031949
-0.020639
0.031546
-0.043495
-0.019325
-0.000717
0.025620
0.022866
0.009758
0.021477
0.030913
-0.021676
0.029720
-0.021472
0.024517
-0.005076
0.028365
0.016967
0.031300
-0.007637
-0.003295
-0.027710
0.005953
-0.024870
-0.010228
-0.025200
-0.024177
0.002832
-0.024708
-0.042938
0.014219
0.013865
-0.024704
-0.013744
0.021756
0.028722
0.030818
0.001751
0.000256
-0.000853
-0.001453
0.031156
0.015752
-0.000227
-0.014379
-0.006389
-0.001637
-0.011327
0.006864
-0.040638
0.000256
-0.008960
-0.036996
-0.000100
0.031824
0.003273
-0.000115
-0.015442
-0.009635
0.027533
-0.023216
-0.044568
-0.006901
0.003491
-0.001668
-0.005158
-0.025527
0.030175
-0.015878
-0.025253
-0.040403
-0.015547
-0.018676
-0.003906