# vtk DataFile Version 2.0
Test
ASCII
DATASET POLYDATA
POINTS 4677 float
0.000000 0.000000 0.000000
0.080000 0.000000 0.000000
0.080000 0.160000 0.000000
0.000000 0.160000 0.000000
0.036000 0.073072 0.000000
0.044000 0.086928 0.000000
0.024500 0.065566 0.000000
0.055500 0.093560 0.000000
0.001000 0.050000 0.000000
0.079000 0.110000 0.000000
0.002963 0.000000 0.000000
0.005926 0.000000 0.000000
0.008889 0.000000 0.000000
0.011852 0.000000 0.000000
0.014815 0.000000 0.000000
0.017778 0.000000 0.000000
0.020741 0.000000 0.000000
0.023704 0.000000 0.000000
0.026667 0.000000 0.000000
0.029630 0.000000 0.000000
0.032593 0.000000 0.000000
0.035556 0.000000 0.000000
0.038519 0.000000 0.000000
0.041481 0.000000 0.000000
0.044444 0.000000 0.000000
0.047407 0.000000 0.000000
0.050370 0.000000 0.000000
0.053333 0.000000 0.000000
0.056296 0.000000 0.000000
0.059259 0.000000 0.000000
0.062222 0.000000 0.000000
0.065185 0.000000 0.000000
0.068148 0.000000 0.000000
0.071111 0.000000 0.000000
0.074074 0.000000 0.000000
0.077037 0.000000 0.000000
0.080000 0.002963 0.000000
0.080000 0.005926 0.000000
0.080000 0.008889 0.000000
0.080000 0.011852 0.000000
0.080000 0.014815 0.000000
0.080000 0.017778 0.000000
0.080000 0.020741 0.000000
0.080000 0.023704 0.000000
0.080000 0.026667 0.000000
0.080000 0.029630 0.000000
0.080000 0.032593 0.000000
0.080000 0.035556 0.000000
0.080000 0.038519 0.000000
0.080000 0.041481 0.000000
0.080000 0.044444 0.000000
0.080000 0.047407 0.000000
0.080000 0.050370 0.000000
0.080000 0.053333 0.000000
0.080000 0.056296 0.000000
0.080000 0.059259 0.000000
0.080000 0.062222 0.000000
0.080000 0.065185 0.000000
0.080000 0.068148 0.000000
0.080000 0.071111 0.000000
0.080000 0.074074 0.000000
0.080000 0.077037 0.000000
0.080000 0.080000 0.000000
0.080000 0.082963 0.000000
0.080000 0.085926 0.000000
0.080000 0.088889 0.000000
0.080000 0.091852 0.000000
0.080000 0.094815 0.000000
0.080000 0.097778 0.000000
0.080000 0.100741 0.000000
0.080000 0.103704 0.000000
0.080000 0.106667 0.000000
0.080000 0.109630 0.000000
0.080000 0.112593 0.000000
0.080000 0.115556 0.000000
0.080000 0.118519 0.000000
0.080000 0.121481 0.000000
0.080000 0.124444 0.000000
0.080000 0.127407 0.000000
0.080000 0.130370 0.000000
0.080000 0.133333 0.000000
0.080000 0.136296 0.000000
0.080000 0.139259 0.000000
0.080000 0.142222 0.000000
0.080000 0.145185 0.000000
0.080000 0.148148 0.000000
0.080000 0.151111 0.000000
0.080000 0.154074 0.000000
0.080000 0.157037 0.000000
0.077037 0.160000 0.000000
0.074074 0.160000 0.000000
0.071111 0.160000 0.000000
0.068148 0.160000 0.000000
0.065185 0.160000 0.000000
0.062222 0.160000 0.000000
0.059259 0.160000 0.000000
0.056296 0.160000 0.000000
0.053333 0.160000 0.000000
0.050370 0.160000 0.000000
0.047407 0.160000 0.000000
0.044444 0.160000 0.000000
0.041481 0.160000 0.000000
0.038519 0.160000 0.000000
0.035556 0.160000 0.000000
0.032593 0.160000 0.000000
0.029630 0.160000 0.000000
0.026667 0.160000 0.000000
0.023704 0.160000 0.000000
0.020741 0.160000 0.000000
0.017778 0.160000 0.000000
0.014815 0.160000 0.000000
0.011852 0.160000 0.000000
0.008889 0.160000 0.000000
0.005926 0.160000 0.000000
0.002963 0.160000 0.000000
0.000000 0.157037 0.000000
0.000000 0.154074 0.000000
0.000000 0.151111 0.000000
0.000000 0.148148 0.000000
0.000000 0.145185 0.000000
0.000000 0.142222 0.000000
0.000000 0.139259 0.000000
0.000000 0.136296 0.000000
0.000000 0.133333 0.000000
0.000000 0.130370 0.000000
0.000000 0.127407 0.000000
0.000000 0.124444 0.000000
0.000000 0.121481 0.000000
0.000000 0.118519 0.000000
0.000000 0.115556 0.000000
0.000000 0.112593 0.000000
0.000000 0.109630 0.000000
0.000000 0.106667 0.000000
0.000000 0.103704 0.000000
0.000000 0.100741 0.000000
0.000000 0.097778 0.000000
0.000000 0.094815 0.000000
0.000000 0.091852 0.000000
0.000000 0.088889 0.000000
0.000000 0.085926 0.000000
0.000000 0.082963 0.000000
0.000000 0.080000 0.000000
0.000000 0.077037 0.000000
0.000000 0.074074 0.000000
0.000000 0.071111 0.000000
0.000000 0.068148 0.000000
0.000000 0.065185 0.000000
0.000000 0.062222 0.000000
0.000000 0.059259 0.000000
0.000000 0.056296 0.000000
0.000000 0.053333 0.000000
0.000000 0.050370 0.000000
0.000000 0.047407 0.000000
0.000000 0.044444 0.000000
0.000000 0.041481 0.000000
0.000000 0.038519 0.000000
0.000000 0.035556 0.000000
0.000000 0.032593 0.000000
0.000000 0.029630 0.000000
0.000000 0.026667 0.000000
0.000000 0.023704 0.000000
0.000000 0.020741 0.000000
0.000000 0.017778 0.000000
0.000000 0.014815 0.000000
0.000000 0.011852 0.000000
0.000000 0.008889 0.000000
0.000000 0.005926 0.000000
0.000000 0.002963 0.000000
0.035500 0.072746 0.000000
0.035000 0.072419 0.000000
0.034500 0.072093 0.000000
0.034000 0.071767 0.000000
0.033500 0.071440 0.000000
0.033000 0.071114 0.000000
0.032500 0.070788 0.000000
0.032000 0.070461 0.000000
0.031500 0.070135 0.000000
0.031000 0.069809 0.000000
0.030500 0.069482 0.000000
0.030000 0.069156 0.000000
0.029500 0.068829 0.000000
0.029000 0.068503 0.000000
0.028500 0.068177 0.000000
0.028000 0.067850 0.000000
0.027500 0.067524 0.000000
0.027000 0.067198 0.000000
0.026500 0.066871 0.000000
0.026000 0.066545 0.000000
0.025500 0.066219 0.000000
0.025000 0.065892 0.000000
0.044500 0.087216 0.000000
0.045000 0.087505 0.000000
0.045500 0.087793 0.000000
0.046000 0.088081 0.000000
0.046500 0.088370 0.000000
0.047000 0.088658 0.000000
0.047500 0.088946 0.000000
0.048000 0.089235 0.000000
0.048500 0.089523 0.000000
0.049000 0.089811 0.000000
0.049500 0.090100 0.000000
0.050000 0.090388 0.000000
0.050500 0.090677 0.000000
0.051000 0.090965 0.000000
0.051500 0.091253 0.000000
0.052000 0.091542 0.000000
0.052500 0.091830 0.000000
0.053000 0.092118 0.000000
0.053500 0.092407 0.000000
0.054000 0.092695 0.000000
0.054500 0.092983 0.000000
0.055000 0.093272 0.000000
0.043704 0.086415 0.000000
0.043407 0.085902 0.000000
0.043111 0.085388 0.000000
0.042815 0.084875 0.000000
0.042519 0.084362 0.000000
0.042222 0.083849 0.000000
0.041926 0.083336 0.000000
0.041630 0.082823 0.000000
0.041333 0.082309 0.000000
0.041037 0.081796 0.000000
0.040741 0.081283 0.000000
0.040444 0.080770 0.000000
0.040148 0.080257 0.000000
0.039852 0.079743 0.000000
0.039556 0.079230 0.000000
0.039259 0.078717 0.000000
0.038963 0.078204 0.000000
0.038667 0.077691 0.000000
0.038370 0.077177 0.000000
0.038074 0.076664 0.000000
0.037778 0.076151 0.000000
0.037481 0.075638 0.000000
0.037185 0.075125 0.000000
0.036889 0.074612 0.000000
0.036593 0.074098 0.000000
0.036296 0.073585 0.000000
0.024000 0.065235 0.000000
0.023500 0.064904 0.000000
0.023000 0.064572 0.000000
0.022500 0.064241 0.000000
0.022000 0.063910 0.000000
0.021500 0.063579 0.000000
0.021000 0.063248 0.000000
0.020500 0.062916 0.000000
0.020000 0.062585 0.000000
0.019500 0.062254 0.000000
0.019000 0.061923 0.000000
0.018500 0.061592 0.000000
0.018000 0.061261 0.000000
0.017500 0.060929 0.000000
0.017000 0.060598 0.000000
0.016500 0.060267 0.000000
0.016000 0.059936 0.000000
0.015500 0.059605 0.000000
0.015000 0.059273 0.000000
0.014500 0.058942 0.000000
0.014000 0.058611 0.000000
0.013500 0.058280 0.000000
0.013000 0.057949 0.000000
0.012500 0.057617 0.000000
0.012000 0.057286 0.000000
0.011500 0.056955 0.000000
0.011000 0.056624 0.000000
0.010500 0.056293 0.000000
0.010000 0.055961 0.000000
0.009500 0.055630 0.000000
0.009000 0.055299 0.000000
0.008500 0.054968 0.000000
0.008000 0.054637 0.000000
0.007500 0.054305 0.000000
0.007000 0.053974 0.000000
0.006500 0.053643 0.000000
0.006000 0.053312 0.000000
0.005500 0.052981 0.000000
0.005000 0.052650 0.000000
0.004500 0.052318 0.000000
0.004000 0.051987 0.000000
0.003500 0.051656 0.000000
0.003000 0.051325 0.000000
0.002500 0.050994 0.000000
0.002000 0.050662 0.000000
0.001500 0.050331 0.000000
0.055990 0.093902 0.000000
0.056479 0.094245 0.000000
0.056969 0.094587 0.000000
0.057458 0.094930 0.000000
0.057948 0.095272 0.000000
0.058437 0.095615 0.000000
0.058927 0.095957 0.000000
0.059417 0.096300 0.000000
0.059906 0.096642 0.000000
0.060396 0.096985 0.000000
0.060885 0.097327 0.000000
0.061375 0.097670 0.000000
0.061865 0.098012 0.000000
0.062354 0.098355 0.000000
0.062844 0.098697 0.000000
0.063333 0.099040 0.000000
0.063823 0.099382 0.000000
0.064312 0.099725 0.000000
0.064802 0.100067 0.000000
0.065292 0.100410 0.000000
0.065781 0.100752 0.000000
0.066271 0.101095 0.000000
0.066760 0.101437 0.000000
0.067250 0.101780 0.000000
0.067740 0.102122 0.000000
0.068229 0.102465 0.000000
0.068719 0.102807 0.000000
0.069208 0.103150 0.000000
0.069698 0.103492 0.000000
0.070187 0.103835 0.000000
0.070677 0.104177 0.000000
0.071167 0.104520 0.000000
0.071656 0.104862 0.000000
0.072146 0.105205 0.000000
0.072635 0.105547 0.000000
0.073125 0.105890 0.000000
0.073615 0.106232 0.000000
0.074104 0.106575 0.000000
0.074594 0.106917 0.000000
0.075083 0.107260 0.000000
0.075573 0.107602 0.000000
0.076062 0.107945 0.000000
0.076552 0.108287 0.000000
0.077042 0.108630 0.000000
0.077531 0.108972 0.000000
0.078021 0.109315 0.000000
0.078510 0.109658 0.000000
0.043942 0.087469 0.000000
0.035556 0.157037 0.000000
0.044420 0.002920 0.000000
0.077037 0.038519 0.000000
0.002963 0.121481 0.000000
0.077037 0.059259 0.000000
0.002963 0.109630 0.000000
0.002923 0.098139 0.000000
0.077153 0.126913 0.000000
0.002808 0.032596 0.000000
0.077140 0.071061 0.000000
0.002963 0.085926 0.000000
0.002963 0.136296 0.000000
0.077041 0.023701 0.000000
0.056296 0.157037 0.000000
0.032593 0.002963 0.000000
0.077037 0.080000 0.000000
0.002813 0.077135 0.000000
0.077037 0.142222 0.000000
0.017778 0.157037 0.000000
0.062222 0.002963 0.000000
0.076992 0.088722 0.000000
0.002945 0.020743 0.000000
0.017777 0.002962 0.000000
0.002801 0.068434 0.000000
0.002959 0.011851 0.000000
0.065186 0.157038 0.000000
0.002963 0.148148 0.000000
0.077037 0.011852 0.000000
0.076887 0.094740 0.000000
0.077092 0.115875 0.000000
0.002677 0.044265 0.000000
0.077038 0.148148 0.000000
0.002985 0.062165 0.000000
0.077037 0.047407 0.000000
0.011852 0.002963 0.000000
[...]
POINT_DATA 4677
SCALARS UX float 1
LOOKUP_TABLE default
-0.000002
0.000002
0.038789
-0.054445
-0.025816
-0.034204
-0.063215
0.007664
-0.074603
0.084853
-0.000000
-0.000000
-0.000000
-0.000000
-0.000000
-0.000000
-0.000000
-0.000000
-0.000000
-0.000000
-0.000000
-0.000000
-0.000000
0.000000
0.000000
0.000000
0.000000
0.000000
0.000000
0.000000
0.000000
0.000000
0.000000
0.000000
0.000000
-0.000000
0.007949
0.012518
0.015935
0.018638
0.020961
0.023013
0.024875
0.026537
0.028059
0.029584
0.031463
0.033008
0.034552
0.034622
0.034594
0.035553
0.036693
0.038174
0.040178
0.042402
0.044017
0.044627
0.046345
0.048408
0.049047
0.049389
0.049224
0.049288
0.051777
0.056829
0.066449
0.080763
0.095693
0.103922
0.098460
0.094085
0.088944
0.079055
0.074995
0.065102
0.054718
0.047196
0.043258
0.040736
0.040034
0.039802
0.040608
0.043541
0.041738
0.039272
0.038938
0.038394
0.038628
0.035402
0.031369
0.027997
0.024783
0.021605
0.018429
0.015262
0.012172
0.009117
0.006184
0.003269
0.000322
-0.002697
-0.005805
-0.009025
-0.012362
-0.015797
-0.019326
-0.022941
-0.026638
-0.030414
-0.034267
-0.038187
-0.042173
-0.046241
-0.050304
-0.054588
-0.054882
-0.055340
-0.055953
-0.056711
-0.057599
-0.058609
-0.059738
-0.060953
-0.062305
-0.063703
-0.065307
-0.067007
-0.068839
-0.070790
-0.072853
-0.075012
-0.077251
-0.079553
-0.081900
-0.084239
-0.086550
-0.088795
-0.090886
-0.092856
-0.094747
-0.096626
-0.098213
-0.099474
-0.098863
-0.097826
-0.096174
-0.093293
-0.089755
-0.085429
-0.080999
-0.076392
-0.071675
-0.067044
-0.062704
-0.058530
-0.054608
-0.051112
-0.047815
-0.044821
-0.041765
-0.038523
-0.035206
-0.031553
-0.027751
-0.023843
-0.018180
-0.011194
-0.029481
-0.037630
-0.029254
-0.031981
-0.029544
-0.032576
-0.036166
-0.039814
-0.039780
-0.040917
-0.041361
-0.044343
-0.051652
-0.049774
-0.050961
-0.054120
-0.051505
-0.054600
-0.058974
-0.059462
-0.058925
-0.060028
-0.032855
-0.029158
-0.026123
-0.025223
-0.025488
-0.024707
-0.020445
-0.016504
-0.012547
-0.008877
0.001224
-0.011033
-0.008075
-0.000318
-0.002763
-0.001818
0.005529
0.005939
0.007174
0.009216
0.011568
0.009347
-0.034226
-0.033312
-0.031787
-0.030690
-0.029859
-0.029274
-0.028888
-0.028631
-0.028355
-0.028086
-0.027434
-0.026914
-0.026171
-0.025702
-0.025704
-0.025517
-0.025693
-0.025548
-0.025782
-0.026050
-0.026543
-0.027569
-0.027738
-0.027305
-0.026416
-0.024547
-0.064923
-0.066055
-0.065645
-0.065703
-0.066051
-0.066495
-0.067002
-0.067449
-0.067812
-0.068087
-0.068352
-0.068652
-0.069008
-0.069366
-0.069710
-0.070072
-0.070482
-0.070943
-0.071391
-0.071809
-0.072162
-0.072428
-0.072602
-0.072738
-0.072861
-0.072973
-0.073072
-0.073171
-0.073272
-0.073374
-0.073475
-0.073574
-0.073666
-0.073753
-0.073835
-0.073911
-0.073980
-0.074045
-0.074111
-0.074171
-0.074233
-0.074292
-0.074356
-0.074420
-0.074484
-0.074544
0.019330
0.013011
0.017255
0.017158
0.016759
0.018797
0.020782
0.022493
0.023859
0.025332
0.028329
0.029618
0.032595
0.035033
0.036990
0.040693
0.043317
0.043022
0.043677
0.044697
0.047299
0.051154
0.055822
0.060097
0.064842
0.069345
0.073703
0.077902
0.081510
0.084598
0.086595
0.087977
0.088513
0.088753
0.088762
0.088317
0.088060
0.087730
0.087322
0.086815
0.086353
0.085884
0.085392
0.085108
0.084814
0.084592
0.084611
-0.031694
-0.009064
0.000474
0.028934
-0.062958
0.038906
-0.071086
-0.080266
0.038337
-0.047637
0.044897
-0.089358
-0.055588
0.023677
0.012143
-0.000219
0.045409
-0.094977
0.038407
-0.030483
0.001875
0.050989
-0.035192
-0.001807
-0.094632
-0.024054
0.021494
-0.051745
0.016219
0.072016
0.067129
-0.063421
0.035035
-0.090058
0.032859
-0.003068
0.027605
-0.046251
0.003795
-0.085061
0.096152
0.035551
-0.002755
0.003190
-0.000637
-0.058159
0.026632
-0.022992
0.001311
0.034990
0.059460
-0.058745
-0.032882
0.048401
-0.054853
-0.083612
-0.095629
0.045600
-0.084962
-0.091192
0.040902
0.045713
0.035600
-0.075821
0.094632
-0.066804
-0.044298
-0.041264
0.028904
-0.015819
0.035846
0.000865
0.000330
-0.059651
0.028010
0.000166
-0.031703
-0.000991
0.015254
0.006096
-0.053414
0.020444
-0.019549
-0.003904
-0.012491
-0.038268
0.002656
0.034160
-0.005732
-0.005910
-0.050669
0.009762
-0.050382
0.004994
0.080780
-0.034103
-0.072711
-0.077119
0.089337
-0.033479
0.000456
0.024551
0.042726
-0.041471
-0.087776
0.050732
0.006048
-0.054196
0.030592
-0.001719
-0.056853
-0.028254
-0.084864
0.041901
0.090286
0.011918
-0.020424
-0.006480
-0.010733
0.030953
-0.046526
0.007631
0.074244
-0.068504
0.086733
-0.093322
0.058792
-0.095553
-0.075768
0.047100
0.042937
-0.052087
0.087233
-0.093281
0.045902
-0.086937
-0.082525
0.042790
0.040293
-0.078229
-0.073409
0.037302
-0.068926
0.034256
0.036102
0.030491
-0.064847
-0.005827
-0.061267
0.028948
-0.012363
0.000660
0.000279
-0.038331
-0.019355
0.001066
-0.000018
0.036310
-0.056822
0.025155
0.009130
-0.000440
-0.026691
0.001566
-0.028048
-0.001332
0.018383
-0.054439
0.022104
-0.002371
-0.052511
0.018527
0.024582
0.037541
-0.034336
0.002221
0.030492
0.034692
-0.042226
0.003177
-0.051127
0.013387
-0.073268
0.081976
0.082322
-0.080129
-0.073309
-0.030090
-0.035105
0.092991
-0.080155
0.055579
-0.054965
-0.032015
-0.030438
-0.027909
0.036328
-0.080206
-0.069674
0.051445
-0.055329
-0.012527
-0.026882
-0.092020
0.002034
0.022250
0.053634
-0.050320
-0.034538
0.078536
0.016094
-0.048367
0.004449
0.078628
-0.071609
0.035935
0.034435
-0.065100
0.031772
-0.060949
0.000101
-0.052834
0.018166
-0.003147
-0.005155
-0.046978
0.024281
0.030457
-0.071353
0.078164
-0.064394
0.066754
0.042919
-0.089681
0.040279
-0.090435
-0.078020
0.046014
0.042591
-0.074627
0.091488
-0.047967
-0.051256
-0.060266
0.039541
0.041823
-0.084349
0.024753
-0.000293
0.000102
-0.038603
0.027716
0.025613
0.001210
0.000825
-0.086093
0.030674
0.003172
-0.019533
0.008963
-0.057421
-0.055826
0.031043
0.032354
0.030347
-0.006097
-0.035053
-0.001132
0.015144
-0.024543
-0.002307
0.019473
0.003071
-0.031578
-0.015914
-0.008153
0.030433
-0.042453
0.006234
0.011035
-0.044134
-0.035631
-0.030790
0.081172
-0.072517
-0.075457
0.082152
-0.072882
0.086818
-0.034607
-0.026453
-0.031355
-0.031441
-0.033167
-0.000087
0.023010
0.038610
-0.081591
0.000188
-0.053463
-0.040740
0.026078
0.039819
-0.002178
0.008984
-0.031286
-0.024753
-0.008230
-0.070442
0.076476
0.032676
-0.024480
-0.091723
0.024599
0.001007
0.025545
-0.004098
0.014985
0.027544
-0.050238
-0.042897
0.009143
-0.028772
-0.091310
0.061614
-0.045695
-0.087640
-0.072051
-0.091497
-0.081871
-0.078001
0.023667
0.036854
0.059072
0.035682
-0.067220
0.033022
0.039021
-0.062867
0.032599
0.048103
-0.083507
-0.003121
-0.000676
-0.015844
-0.051464
0.029944
0.001597
-0.023091
-0.034632
0.002858
0.021283
-0.059099
0.002527
-0.030643
0.031504
0.020908
-0.021094
-0.012615
0.017905
0.026760
0.021249
-0.004078
-0.049282
0.003694
-0.009276
-0.038436
-0.047596
0.027261
0.013838
0.005271
-0.052789
0.046888
-0.058719
-0.036375
-0.076445
-0.035908
-0.030657
0.088948
-0.067140
0.070461
-0.033397
-0.026618
0.083443
-0.075346
-0.069534
0.087075
0.074389
-0.028089
-0.022822
-0.025722
-0.073224
-0.061944
-0.035626
-0.019580
0.031321
-0.070826
-0.079060
-0.041821
0.038089
-0.000202
-0.088566
-0.056338
-0.019569
0.048967
-0.046263
0.002907
0.019292
-0.030805
-0.085563
-0.031063
-0.063641
0.005420
0.015505
0.030162
-0.000558
0.066302
-0.006050
-0.058819
-0.055302
0.025827
-0.021413
-0.006665
0.011667
-0.038886
0.039431
-0.065088
0.052573
0.027657
-0.089078
-0.076955
-0.085038
-0.079292
-0.001289
0.034577
0.021116
-0.068534
0.024600
-0.002521
0.000427
-0.049161
0.035991
0.025677
-0.088077
0.043631
0.039135
0.005958
0.028982
0.024931
-0.038079
-0.048809
-0.023534
-0.003019
0.021860
-0.028112
0.011640
-0.005299
0.036715
0.003646
-0.012717
0.017958
0.023874
-0.051780
0.018211
-0.017005
0.026624
-0.010183
0.001603
-0.045219
-0.043509
0.006470
0.007684
-0.052618
-0.034595
-0.026557
-0.020776
-0.071472
-0.073043
0.079841
0.084096
-0.035905
-0.075159
-0.037273
0.088470
-0.090707
-0.029720
0.059560
0.041191
0.030102
0.040117
-0.060128
-0.067983
-0.029001
-0.024163
0.071468
-0.031728
-0.027863
0.020550
0.032254
-0.051916
0.000291
0.036709
-0.053870
0.022939
0.043961
0.041557
0.008414
-0.046322
-0.020431
-0.003407
-0.063425
0.021305
0.003643
0.016908
0.068210
0.014383
-0.042231
-0.039491
-0.020846
-0.033685
0.018175
0.031360
0.036452
-0.007672
0.006933
-0.024851
-0.013988
0.009847
-0.025644
0.054971
-0.076930
0.031720
-0.027010
-0.038230
-0.001385
-0.073774
0.026803
0.032347
-0.003762
0.035098
-0.065738
-0.027252
-0.061327
0.001125
-0.056844
0.021914
0.004996
-0.087432
0.045225
0.028580
-0.088289
0.036284
0.002204
0.039019
-0.080716
-0.027996
-0.049581
-0.049677
0.018555
-0.017829
-0.009424
0.023554
-0.027227
0.016951
-0.004652
0.020887
0.004467
-0.047434
0.002468
-0.009443
0.022011
-0.016096
0.013787
-0.044280
-0.034936
0.020278
0.085361
-0.073221
-0.032980
-0.086940
-0.066525
-0.032282
-0.018419
-0.035033
-0.033082
-0.037924
-0.036961
-0.058148
-0.026781
-0.031349
-0.028701
-0.074392
-0.088488
-0.086565
-0.075009
0.024582
0.031896
0.081905
0.043880
0.043025
-0.069312
-0.074862
0.088584
-0.021663
0.074811
-0.072236
-0.045648
0.089020
0.085860
-0.030934
-0.035255
-0.016456
-0.062966
-0.076236
0.029931
-0.003139
-0.047868
-0.085458
0.000279
-0.038657
0.015388
-0.055939
0.045280
-0.004840
0.039131
-0.028270
0.019942
0.005320
-0.065201
-0.083105
-0.027782
0.073270
0.028362
0.027776
0.025808
-0.009825
-0.023955
0.018202
-0.057953
-0.021503
-0.016763
0.002712
-0.010140
0.020605
0.014444
-0.086126
0.005727
-0.043469
0.011684
-0.040282
-0.036175
-0.031660
-0.070175
-0.085096
-0.082231
-0.046187
0.028778
0.029929
-0.073336
-0.049966
0.017729
0.037501
-0.000570
-0.088445
0.034425
-0.054039
0.001888
-0.002389
-0.075146
-0.047882
0.035759
0.021353
0.080063
0.002183
-0.006101
-0.014771
0.017565
0.034877
0.022149
0.011264
0.004601
-0.044894
0.015504
0.023247
0.019423
-0.041226
0.086773
-0.006849
-0.024038
0.008286
-0.011467
0.089527
-0.035548
-0.072732
0.046242
0.082854
0.061600
-0.031088
-0.024975
-0.067757
-0.071546
0.025642
-0.061728
-0.033727
0.043882
-0.013932
-0.024150
-0.037695
-0.023988
-0.036445
-0.038603
-0.072320
-0.034712
0.083320
-0.023743
-0.021024
0.089826
-0.076493
-0.042489
-0.072991
0.086024
-0.014716
-0.072914
0.029315
-0.036431
-0.019087
-0.035436
0.025587
-0.009817
0.025722
0.032322
-0.073121
-0.046768
0.033994
-0.059346
0.003113
0.004185
-0.017452
-0.042537
0.013200
-0.015891
-0.021036
0.005446
-0.067198
-0.071615
-0.068460
-0.030103
0.014282
-0.039473
-0.049908
0.010766
0.019989
0.031711
-0.008228
0.017037
0.018519
-0.037274
-0.024715
-0.038456
-0.070168
-0.065021
-0.033411
-0.059583
-0.035418
-0.001286
-0.003479
0.091041
0.027482
-0.085865
-0.085332
0.036378
-0.025796
-0.077521
-0.006962
-0.017943
-0.051194
0.029563
-0.084124
-0.013050
0.023608
-0.025480
-0.083712
0.019169
-0.006427
-0.045833
0.018933
-0.069643
-0.083081
-0.077962
0.043832
0.041425
-0.012297
-0.085310
-0.000493
-0.018234
-0.041014
0.008032
0.018146
0.016066
-0.036305
0.020131
0.009867
0.013276
0.079544
-0.031605
-0.039612
0.006754
-0.055661
0.025413
0.049508
0.001128
-0.035891
0.064417
0.051911
-0.028568
-0.071818
0.032344
0.021995
0.083024
-0.074891
-0.011217
-0.030655
-0.035090
-0.038938
-0.084699
-0.021469
-0.038656
-0.064057
-0.021539
0.089045
0.057129
-0.076198
-0.034006
0.028794
0.025162
-0.061184
-0.010508
-0.000571
0.084823
-0.014636
0.087797
-0.017933
-0.072635
0.022414
-0.046311
0.017200
-0.009135
-0.047896
-0.075110
-0.000675
-0.082946
0.012925
0.036533
-0.082300
0.046241
0.017457
-0.008524
-0.038752
-0.025568
-0.061813
-0.004561
-0.081329
-0.066041
0.080783
-0.071392
0.016004
-0.054221
-0.081885
0.006050
-0.017403
-0.014301
-0.071128
0.016235
-0.079499
0.012391
-0.033362
0.024996
-0.040359
-0.080960
0.068323
0.041523
-0.069157
-0.034680
0.013820
-0.043231
-0.057037
0.030894
0.006498
-0.051923
0.021247
0.035343
-0.010848
-0.083023
-0.021744
-0.012700
0.031287
-0.002340
0.032852
-0.044153
0.027352
0.002023
0.011330
0.013908
-0.018376
0.004213
-0.028427
-0.059164
0.001776
0.008206
-0.020956
-0.076322
-0.015164
0.016974
-0.035536
0.043428
-0.065533
-0.067939
-0.004707
-0.037238
-0.032428
-0.038330
0.023189
-0.053657
-0.044152
0.033760
0.025804
-0.071675
0.053753
0.024525
-0.012967
-0.034746
-0.040073
-0.031014
-0.022140
-0.037250
-0.026455
0.054178
-0.025526
0.059885
-0.033132
0.086401
0.087661
-0.006787
-0.038633
0.090174
0.000150
-0.081631
-0.030427
-0.017660
-0.070608
-0.079921
-0.066984
0.092068
-0.006189
-0.056595
-0.034997
-0.074591
-0.085475
-0.033613
0.026387
-0.013402
-0.072719
-0.011991
-0.062653
0.076695
0.088866
-0.037337
-0.041690
-0.012031
-0.002641
0.024311
-0.058736
-0.072548
0.031107
-0.001470
-0.042599
0.047926
0.046943
-0.064742
0.001488
-0.080033
-0.014614
-0.035075
-0.021803
0.018262
0.027984
-0.079907
-0.021939
0.008593
-0.053623
-0.027587
0.022656
-0.035225
-0.048068
0.011284
-0.006737
-0.067714
-0.015375
0.002192
0.010398
-0.029546
-0.034419
0.004691
-0.040426
0.088935
0.022496
-0.003197
-0.032795
0.086309
0.028635
0.013514
0.033480
0.024961
0.042983
0.039011
0.011955
-0.068271
-0.000777
0.027981
-0.081845
-0.080053
-0.010802
-0.050266
-0.082471
0.088940
-0.069806
-0.081857
-0.076768
0.001102
0.015790
-0.080886
0.007540
0.016753
-0.072666
-0.035822
-0.082112
0.058470
-0.064794
-0.003629
-0.007488
-0.042272
0.015726
0.013568
0.004031
-0.070750
-0.006453
-0.044066
-0.036573
0.022514
0.009339
0.022565
-0.023823
-0.026124
0.036222
-0.057585
0.029615
-0.076101
-0.075453
-0.032585
-0.036539
0.019696
-0.032315
-0.028770
-0.040808
-0.001754
0.073080
0.058627
-0.022139
-0.070062
0.063659
-0.039747
-0.078642
-0.005160
-0.064056
-0.037887
0.084467
-0.009413
0.023131
-0.035223
-0.060548
-0.001826
-0.071450
0.092698
0.089220
-0.030044
-0.014398
-0.054587
-0.082139
-0.008883
0.089199
-0.040155
-0.050727
0.019719
-0.037374
-0.041027
0.000552
-0.004603
-0.070253
-0.051162
-0.079825
0.001354
0.042137
0.011084
0.036824
-0.063144
0.040501
0.015179
-0.023043
-0.064381
-0.006183
0.087853
-0.003033
-0.049754
-0.042682
-0.080477
-0.007954
-0.068583
-0.078535
-0.044546
-0.034119
0.004912
0.000993
0.008565
-0.024485
-0.077495
-0.062759
-0.014179
0.019843
0.013499
-0.056642
0.088089
-0.011989
-0.079071
-0.080044
0.082232
-0.067215
0.026171
0.031186
-0.045613
-0.078100
-0.010441
0.013342
-0.018357
-0.037130
-0.074228
0.031043
0.024898
-0.000288
0.010832
-0.030586
0.014995
0.069181
0.027963
-0.025455
-0.036898
0.052353
0.003385
0.006576
-0.018242
0.054889
0.021937
0.014524
-0.032980
-0.008154
0.010459
0.021430
-0.032992
-0.001648
0.022754
-0.040704
0.020611
-0.069684
-0.038586
-0.061579
-0.002710
-0.082137
-0.031905
-0.032790
-0.003692
-0.030516
-0.025911
-0.040898
-0.071623
-0.074786
-0.041496
0.090490
-0.055099
-0.035392
-0.018689
-0.058530
-0.034580
0.001040
0.020799
0.088751
0.010970
-0.030740
-0.072054
-0.019874
0.065816
0.029831
0.027112
0.087715
-0.005770
-0.000135
-0.026848
0.088811
-0.013181
-0.066450
-0.004857
-0.047124
0.017103
-0.079057
-0.078492
0.044790
-0.029155
-0.006910
-0.038105
0.022375
0.001027
0.003839
0.018574
-0.043604
-0.062505
0.029990
0.026541
0.037776
-0.061261
-0.000538
-0.033436
0.008589
0.053249
0.014337
-0.019221
0.048683
-0.007645
-0.021511
-0.058264
-0.076942
0.019016
0.085711
0.034743
-0.077907
-0.071926
0.000461
-0.001164
-0.071088
-0.018384
-0.026819
0.012080
0.003528
-0.061744
-0.030226
0.083899
-0.039282
0.022103
0.010933
-0.076259
0.074522
-0.043071
0.039663
0.026189
-0.080161
-0.079230
-0.065534
0.009813
-0.034030
-0.005225
-0.079692
-0.075468
0.041161
-0.068842
0.008995
-0.064688
-0.014210
0.006452
0.022496
-0.001979
0.015964
-0.025575
0.003155
0.086687
0.014380
-0.032060
0.028301
0.050792
-0.038823
-0.080186
-0.010102
0.004052
0.013430
0.002230
-0.068454
0.020893
-0.011056
-0.055911
-0.051447
-0.031502
0.017976
-0.018843
0.025528
-0.047801
0.019540
-0.004233
0.008800
-0.034078
-0.023853
-0.009433
0.000032
0.019739
-0.018237
0.021247
0.065009
-0.033412
-0.031246
-0.030203
-0.040919
-0.034061
-0.038024
-0.076136
0.087930
0.087084
-0.040726
-0.031420
-0.028490
-0.042194
0.003176
-0.056422
-0.021733
-0.043420
0.011048
0.087572
-0.077786
-0.035900
-0.014714
-0.070426
0.038513
-0.013300
-0.010888
0.083418
-0.046314
-0.079964
0.024163
-0.072517
-0.079535
-0.074272
-0.000796
-0.077929
0.023987
-0.002424
-0.002103
-0.039651
0.020104
-0.039078
-0.069743
0.003083
-0.060656
-0.042824
-0.053329
0.030745
-0.077598
0.034385
-0.002300
-0.078063
0.037865
-0.001482
0.043747
-0.029924
-0.077872
-0.055230
-0.011892
0.080799
-0.018467
0.070018
0.003463
0.015263
0.084429
0.007022
-0.029718
-0.077093
-0.022429
-0.035387
-0.076925
0.001999
-0.003743
-0.032231
-0.011688
0.018927
0.016665
0.008610
-0.074950
0.003595
-0.073527
-0.015809
0.008906
-0.035138
0.033322
0.073639
-0.016269
-0.059085
-0.012030
-0.028746
-0.073204
-0.010162
0.046171
0.020173
-0.037384
-0.022640
0.028778
0.019695
0.001935
0.009625
0.012915
-0.066508
-0.068052
-0.044579
0.052689
-0.008331
0.001061
-0.005515
-0.053695
-0.060305
0.018664
-0.041099
-0.034760
-0.024030
0.025637
0.008003
0.012956
-0.072389
-0.071352
-0.047801
-0.015657
0.018498
-0.077980
-0.078042
0.017283
0.018679
-0.027195
0.000788
-0.030387
-0.060424
-0.039987
-0.020645
0.060847
-0.003256
-0.028742
-0.005772
-0.014069
0.027369
-0.033649
0.006429
0.005495
0.024792
-0.032100
-0.033374
0.085888
-0.043143
-0.029737
-0.042490
-0.025430
0.080099
0.063649
0.003379
-0.044430
0.037621
0.084404
-0.075793
0.076541
-0.036582
-0.003501
-0.077443
-0.048953
-0.023841
-0.015919
-0.001584
-0.017063
0.086211
0.001839
0.040110
0.009887
-0.076570
-0.036338
-0.072435
-0.016425
-0.069462
0.012072
-0.076520
-0.063859
-0.067670
0.022649
-0.000714
0.015585
-0.035971
0.017069
0.019811
-0.067722
0.005298
-0.051073
0.027508
0.037390
0.025244
0.000800
-0.076073
0.007131
0.066242
0.035167
-0.009572
0.054559
-0.021352
-0.044162
-0.074094
-0.038944
-0.020160
-0.058231
0.007075
0.059224
-0.041707
-0.050331
-0.006730
-0.034692
0.022913
-0.075452
-0.038006
-0.077081
-0.075999
0.016297
-0.010031
0.001518
0.007536
-0.004243
0.076334
0.006152
0.006555
0.010390
-0.041057
-0.057257
0.039201
-0.071265
-0.056267
0.083051
-0.052951
-0.004028
-0.013209
0.017859
-0.024267
-0.020649
-0.077779
-0.013655
0.012688
0.004973
-0.020810
-0.068566
-0.032150
0.017464
0.021343
0.009379
-0.066166
-0.062441
0.038047
-0.015946
0.025525
0.036459
-0.040700
0.011205
0.024530
0.005377
0.032163
0.014073
0.002073
0.015983
-0.036059
0.006103
-0.009193
-0.031735
-0.035592
0.086043
0.011976
-0.027955
-0.076606
-0.000926
0.016833
-0.027520
0.026310
0.016979
-0.016516
0.057978
-0.011579
-0.032006
-0.007052
-0.033824
0.004515
0.003568
-0.042194
-0.032493
-0.076962
-0.074497
-0.077968
-0.035324
-0.028266
-0.030827
-0.005019
-0.028048
-0.038092
0.067726
-0.044708
0.034550
0.072681
0.006096
-0.019317
-0.045572
-0.044510
-0.062245
-0.079026
-0.005563
0.003966
-0.066409
0.083487
0.082809
0.079147
0.083699
-0.075999
0.011768
-0.072533
-0.024345
-0.000764
-0.071533
-0.070127
0.049097
0.012526
-0.042498
0.021859
-0.034998
-0.054184
0.023212
0.025290
-0.074981
0.033709
-0.011170
0.062978
-0.007420
0.004514
-0.028927
-0.076318
0.041128
0.052084
0.009924
0.073317
0.078035
-0.052375
-0.046760
-0.073723
-0.040360
0.031103
0.010310
-0.002863
0.077026
0.001813
0.005245
-0.067566
-0.005566
0.008072
-0.077083
-0.017916
-0.015604
-0.037152
0.020161
0.015188
0.014163
0.015355
-0.075147
-0.033716
-0.026049
0.029333
0.009304
0.002652
-0.076231
0.035353
-0.071637
0.058322
-0.074891
-0.065858
-0.016269
0.028434
0.045804
0.008752
0.018778
0.031025
-0.058204
0.080539
-0.064291
0.053335
0.000399
0.072020
0.023211
0.035084
-0.017153
-0.025326
-0.047911
0.005626
-0.032383
-0.026465
-0.027951
-0.022898
0.005729
-0.039243
-0.069979
0.014755
0.015707
-0.036752
-0.011354
0.026192
0.016342
0.078567
-0.001891
0.007428
-0.012494
-0.021644
0.066113
0.017726
0.007810
-0.041238
-0.030551
-0.022464
-0.034270
-0.008850
-0.075814
-0.017356
-0.032678
-0.060734
-0.002346
0.034761
0.007556
0.003346
-0.044483
-0.033784
0.067726
-0.057304
-0.075948
-0.031321
0.005350
-0.006695
-0.029194
-0.049145
0.084080
-0.045819
-0.024823
-0.065008
-0.043675
-0.068807
-0.028495