# vtk DataFile Version 2.0
Test
ASCII
DATASET POLYDATA
POINTS 4677 float
0.000000 0.000000 0.000000
0.080000 0.000000 0.000000
0.080000 0.160000 0.000000
0.000000 0.160000 0.000000
0.036000 0.073072 0.000000
0.044000 0.086928 0.000000
0.024500 0.065566 0.000000
0.055500 0.093560 0.000000
0.001000 0.050000 0.000000
0.079000 0.110000 0.000000
0.002963 0.000000 0.000000
0.005926 0.000000 0.000000
0.008889 0.000000 0.000000
0.011852 0.000000 0.000000
0.014815 0.000000 0.000000
0.017778 0.000000 0.000000
0.020741 0.000000 0.000000
0.023704 0.000000 0.000000
0.026667 0.000000 0.000000
0.029630 0.000000 0.000000
0.032593 0.000000 0.000000
0.035556 0.000000 0.000000
0.038519 0.000000 0.000000
0.041481 0.000000 0.000000
0.044444 0.000000 0.000000
0.047407 0.000000 0.000000
0.050370 0.000000 0.000000
0.053333 0.000000 0.000000
0.056296 0.000000 0.000000
0.059259 0.000000 0.000000
0.062222 0.000000 0.000000
0.065185 0.000000 0.000000
0.068148 0.000000 0.000000
0.071111 0.000000 0.000000
0.074074 0.000000 0.000000
0.077037 0.000000 0.000000
0.080000 0.002963 0.000000
0.080000 0.005926 0.000000
0.080000 0.008889 0.000000
0.080000 0.011852 0.000000
0.080000 0.014815 0.000000
0.080000 0.017778 0.000000
0.080000 0.020741 0.000000
0.080000 0.023704 0.000000
0.080000 0.026667 0.000000
0.080000 0.029630 0.000000
0.080000 0.032593 0.000000
0.080000 0.035556 0.000000
0.080000 0.038519 0.000000
0.080000 0.041481 0.000000
0.080000 0.044444 0.000000
0.080000 0.047407 0.000000
0.080000 0.050370 0.000000
0.080000 0.053333 0.000000
0.080000 0.056296 0.000000
0.080000 0.059259 0.000000
0.080000 0.062222 0.000000
0.080000 0.065185 0.000000
0.080000 0.068148 0.000000
0.080000 0.071111 0.000000
0.080000 0.074074 0.000000
0.080000 0.077037 0.000000
0.080000 0.080000 0.000000
0.080000 0.082963 0.000000
0.080000 0.085926 0.000000
0.080000 0.088889 0.000000
0.080000 0.091852 0.000000
0.080000 0.094815 0.000000
0.080000 0.097778 0.000000
0.080000 0.100741 0.000000
0.080000 0.103704 0.000000
0.080000 0.106667 0.000000
0.080000 0.109630 0.000000
0.080000 0.112593 0.000000
0.080000 0.115556 0.000000
0.080000 0.118519 0.000000
0.080000 0.121481 0.000000
0.080000 0.124444 0.000000
0.080000 0.127407 0.000000
0.080000 0.130370 0.000000
0.080000 0.133333 0.000000
0.080000 0.136296 0.000000
0.080000 0.139259 0.000000
0.080000 0.142222 0.000000
0.080000 0.145185 0.000000
0.080000 0.148148 0.000000
0.080000 0.151111 0.000000
0.080000 0.154074 0.000000
0.080000 0.157037 0.000000
0.077037 0.160000 0.000000
0.074074 0.160000 0.000000
0.071111 0.160000 0.000000
0.068148 0.160000 0.000000
0.065185 0.160000 0.000000
0.062222 0.160000 0.000000
0.059259 0.160000 0.000000
0.056296 0.160000 0.000000
0.053333 0.160000 0.000000
0.050370 0.160000 0.000000
0.047407 0.160000 0.000000
0.044444 0.160000 0.000000
0.041481 0.160000 0.000000
0.038519 0.160000 0.000000
0.035556 0.160000 0.000000
0.032593 0.160000 0.000000
0.029630 0.160000 0.000000
0.026667 0.160000 0.000000
0.023704 0.160000 0.000000
0.020741 0.160000 0.000000
0.017778 0.160000 0.000000
0.014815 0.160000 0.000000
0.011852 0.160000 0.000000
0.008889 0.160000 0.000000
0.005926 0.160000 0.000000
0.002963 0.160000 0.000000
0.000000 0.157037 0.000000
0.000000 0.154074 0.000000
0.000000 0.151111 0.000000
0.000000 0.148148 0.000000
0.000000 0.145185 0.000000
0.000000 0.142222 0.000000
0.000000 0.139259 0.000000
0.000000 0.136296 0.000000
0.000000 0.133333 0.000000
0.000000 0.130370 0.000000
0.000000 0.127407 0.000000
0.000000 0.124444 0.000000
0.000000 0.121481 0.000000
0.000000 0.118519 0.000000
0.000000 0.115556 0.000000
0.000000 0.112593 0.000000
0.000000 0.109630 0.000000
0.000000 0.106667 0.000000
0.000000 0.103704 0.000000
0.000000 0.100741 0.000000
0.000000 0.097778 0.000000
0.000000 0.094815 0.000000
0.000000 0.091852 0.000000
0.000000 0.088889 0.000000
0.000000 0.085926 0.000000
0.000000 0.082963 0.000000
0.000000 0.080000 0.000000
0.000000 0.077037 0.000000
0.000000 0.074074 0.000000
0.000000 0.071111 0.000000
0.000000 0.068148 0.000000
0.000000 0.065185 0.000000
0.000000 0.062222 0.000000
0.000000 0.059259 0.000000
0.000000 0.056296 0.000000
0.000000 0.053333 0.000000
0.000000 0.050370 0.000000
0.000000 0.047407 0.000000
0.000000 0.044444 0.000000
0.000000 0.041481 0.000000
0.000000 0.038519 0.000000
0.000000 0.035556 0.000000
0.000000 0.032593 0.000000
0.000000 0.029630 0.000000
0.000000 0.026667 0.000000
0.000000 0.023704 0.000000
0.000000 0.020741 0.000000
0.000000 0.017778 0.000000
0.000000 0.014815 0.000000
0.000000 0.011852 0.000000
0.000000 0.008889 0.000000
0.000000 0.005926 0.000000
0.000000 0.002963 0.000000
0.035500 0.072746 0.000000
0.035000 0.072419 0.000000
0.034500 0.072093 0.000000
0.034000 0.071767 0.000000
0.033500 0.071440 0.000000
0.033000 0.071114 0.000000
0.032500 0.070788 0.000000
0.032000 0.070461 0.000000
0.031500 0.070135 0.000000
0.031000 0.069809 0.000000
0.030500 0.069482 0.000000
0.030000 0.069156 0.000000
0.029500 0.068829 0.000000
0.029000 0.068503 0.000000
0.028500 0.068177 0.000000
0.028000 0.067850 0.000000
0.027500 0.067524 0.000000
0.027000 0.067198 0.000000
0.026500 0.066871 0.000000
0.026000 0.066545 0.000000
0.025500 0.066219 0.000000
0.025000 0.065892 0.000000
0.044500 0.087216 0.000000
0.045000 0.087505 0.000000
0.045500 0.087793 0.000000
0.046000 0.088081 0.000000
0.046500 0.088370 0.000000
0.047000 0.088658 0.000000
0.047500 0.088946 0.000000
0.048000 0.089235 0.000000
0.048500 0.089523 0.000000
0.049000 0.089811 0.000000
0.049500 0.090100 0.000000
0.050000 0.090388 0.000000
0.050500 0.090677 0.000000
0.051000 0.090965 0.000000
0.051500 0.091253 0.000000
0.052000 0.091542 0.000000
0.052500 0.091830 0.000000
0.053000 0.092118 0.000000
0.053500 0.092407 0.000000
0.054000 0.092695 0.000000
0.054500 0.092983 0.000000
0.055000 0.093272 0.000000
0.043704 0.086415 0.000000
0.043407 0.085902 0.000000
0.043111 0.085388 0.000000
0.042815 0.084875 0.000000
0.042519 0.084362 0.000000
0.042222 0.083849 0.000000
0.041926 0.083336 0.000000
0.041630 0.082823 0.000000
0.041333 0.082309 0.000000
0.041037 0.081796 0.000000
0.040741 0.081283 0.000000
0.040444 0.080770 0.000000
0.040148 0.080257 0.000000
0.039852 0.079743 0.000000
0.039556 0.079230 0.000000
0.039259 0.078717 0.000000
0.038963 0.078204 0.000000
0.038667 0.077691 0.000000
0.038370 0.077177 0.000000
0.038074 0.076664 0.000000
0.037778 0.076151 0.000000
0.037481 0.075638 0.000000
0.037185 0.075125 0.000000
0.036889 0.074612 0.000000
0.036593 0.074098 0.000000
0.036296 0.073585 0.000000
0.024000 0.065235 0.000000
0.023500 0.064904 0.000000
0.023000 0.064572 0.000000
0.022500 0.064241 0.000000
0.022000 0.063910 0.000000
0.021500 0.063579 0.000000
0.021000 0.063248 0.000000
0.020500 0.062916 0.000000
0.020000 0.062585 0.000000
0.019500 0.062254 0.000000
0.019000 0.061923 0.000000
0.018500 0.061592 0.000000
0.018000 0.061261 0.000000
0.017500 0.060929 0.000000
0.017000 0.060598 0.000000
0.016500 0.060267 0.000000
0.016000 0.059936 0.000000
0.015500 0.059605 0.000000
0.015000 0.059273 0.000000
0.014500 0.058942 0.000000
0.014000 0.058611 0.000000
0.013500 0.058280 0.000000
0.013000 0.057949 0.000000
0.012500 0.057617 0.000000
0.012000 0.057286 0.000000
0.011500 0.056955 0.000000
0.011000 0.056624 0.000000
0.010500 0.056293 0.000000
0.010000 0.055961 0.000000
0.009500 0.055630 0.000000
0.009000 0.055299 0.000000
0.008500 0.054968 0.000000
0.008000 0.054637 0.000000
0.007500 0.054305 0.000000
0.007000 0.053974 0.000000
0.006500 0.053643 0.000000
0.006000 0.053312 0.000000
0.005500 0.052981 0.000000
0.005000 0.052650 0.000000
0.004500 0.052318 0.000000
0.004000 0.051987 0.000000
0.003500 0.051656 0.000000
0.003000 0.051325 0.000000
0.002500 0.050994 0.000000
0.002000 0.050662 0.000000
0.001500 0.050331 0.000000
0.055990 0.093902 0.000000
0.056479 0.094245 0.000000
0.056969 0.094587 0.000000
0.057458 0.094930 0.000000
0.057948 0.095272 0.000000
0.058437 0.095615 0.000000
0.058927 0.095957 0.000000
0.059417 0.096300 0.000000
0.059906 0.096642 0.000000
0.060396 0.096985 0.000000
0.060885 0.097327 0.000000
0.061375 0.097670 0.000000
0.061865 0.098012 0.000000
0.062354 0.098355 0.000000
0.062844 0.098697 0.000000
0.063333 0.099040 0.000000
0.063823 0.099382 0.000000
0.064312 0.099725 0.000000
0.064802 0.100067 0.000000
0.065292 0.100410 0.000000
0.065781 0.100752 0.000000
0.066271 0.101095 0.000000
0.066760 0.101437 0.000000
0.067250 0.101780 0.000000
0.067740 0.102122 0.000000
0.068229 0.102465 0.000000
0.068719 0.102807 0.000000
0.069208 0.103150 0.000000
0.069698 0.103492 0.000000
0.070187 0.103835 0.000000
0.070677 0.104177 0.000000
0.071167 0.104520 0.000000
0.071656 0.104862 0.000000
0.072146 0.105205 0.000000
0.072635 0.105547 0.000000
0.073125 0.105890 0.000000
0.073615 0.106232 0.000000
0.074104 0.106575 0.000000
0.074594 0.106917 0.000000
0.075083 0.107260 0.000000
0.075573 0.107602 0.000000
0.076062 0.107945 0.000000
0.076552 0.108287 0.000000
0.077042 0.108630 0.000000
0.077531 0.108972 0.000000
0.078021 0.109315 0.000000
0.078510 0.109658 0.000000
0.043942 0.087469 0.000000
0.035556 0.157037 0.000000
0.044420 0.002920 0.000000
0.077037 0.038519 0.000000
0.002963 0.121481 0.000000
0.077037 0.059259 0.000000
0.002963 0.109630 0.000000
0.002923 0.098139 0.000000
0.077153 0.126913 0.000000
0.002808 0.032596 0.000000
0.077140 0.071061 0.000000
0.002963 0.085926 0.000000
0.002963 0.136296 0.000000
0.077041 0.023701 0.000000
0.056296 0.157037 0.000000
0.032593 0.002963 0.000000
0.077037 0.080000 0.000000
0.002813 0.077135 0.000000
0.077037 0.142222 0.000000
0.017778 0.157037 0.000000
0.062222 0.002963 0.000000
0.076992 0.088722 0.000000
0.002945 0.020743 0.000000
0.017777 0.002962 0.000000
0.002801 0.068434 0.000000
0.002959 0.011851 0.000000
0.065186 0.157038 0.000000
0.002963 0.148148 0.000000
0.077037 0.011852 0.000000
0.076887 0.094740 0.000000
0.077092 0.115875 0.000000
0.002677 0.044265 0.000000
0.077038 0.148148 0.000000
0.002985 0.062165 0.000000
0.077037 0.047407 0.000000
0.011852 0.002963 0.000000
[...]
POINT_DATA 4677
SCALARS UX float 1
LOOKUP_TABLE default
-0.000000
0.000001
0.052195
0.020349
0.020963
0.019361
-0.023407
0.042652
-0.028596
0.057943
-0.000000
-0.000000
-0.000000
-0.000000
-0.000000
-0.000000
-0.000000
-0.000000
-0.000000
-0.000000
-0.000000
-0.000000
-0.000000
0.000000
0.000000
0.000000
0.000000
0.000000
0.000000
0.000000
0.000000
0.000000
0.000000
0.000000
0.000000
-0.000000
0.003630
0.005875
0.007884
0.009824
0.011822
0.014115
0.016734
0.019402
0.021955
0.024544
0.027231
0.029997
0.033157
0.036909
0.040526
0.043475
0.044996
0.045347
0.045295
0.045133
0.045165
0.045583
0.046637
0.048432
0.050236
0.052333
0.055145
0.057167
0.057515
0.057154
0.056335
0.056662
0.057158
0.057570
0.057879
0.058183
0.058187
0.059079
0.059546
0.059640
0.059849
0.058180
0.057046
0.055192
0.052363
0.052105
0.052142
0.051759
0.051453
0.051243
0.050897
0.051050
0.051728
0.051323
0.049556
0.048618
0.047434
0.045749
0.044347
0.043061
0.041518
0.040589
0.039509
0.038108
0.037222
0.035824
0.034550
0.033839
0.032597
0.031496
0.030934
0.029642
0.028964
0.027710
0.026582
0.025170
0.023816
0.022869
0.021273
0.019690
0.019005
0.018284
0.017798
0.016684
0.015385
0.014257
0.013193
0.011637
0.009948
0.007517
0.005597
0.003887
0.002986
0.002101
0.001664
0.001268
0.000668
-0.000189
-0.000839
-0.002796
-0.006296
-0.013003
-0.027153
-0.034338
-0.039836
-0.042192
-0.040580
-0.039996
-0.037658
-0.034755
-0.033436
-0.032348
-0.031085
-0.030136
-0.029463
-0.028993
-0.028293
-0.027476
-0.026728
-0.025443
-0.023003
-0.020974
-0.019487
-0.018906
-0.017591
-0.016077
-0.014557
-0.013053
-0.011487
-0.009879
-0.008593
-0.006099
0.020049
0.020107
0.017630
0.016248
0.013083
0.011363
0.013038
0.006265
0.008844
0.007065
0.006944
0.009167
0.009506
0.001718
-0.004260
-0.012510
-0.017892
-0.018573
-0.020298
-0.022299
-0.019027
-0.021232
0.021019
0.021711
0.021797
0.023392
0.024815
0.025823
0.026847
0.028282
0.027297
0.026874
0.029794
0.030316
0.032351
0.034786
0.037056
0.036320
0.035353
0.035125
0.036519
0.038370
0.040429
0.042690
0.019590
0.019461
0.019856
0.020312
0.020442
0.020685
0.020765
0.020979
0.021084
0.021329
0.021472
0.021613
0.021531
0.021509
0.021665
0.021870
0.022027
0.021472
0.021236
0.021179
0.021166
0.021503
0.021670
0.021418
0.021617
0.021285
-0.024177
-0.024439
-0.024538
-0.024453
-0.024429
-0.024461
-0.024522
-0.024615
-0.024711
-0.024788
-0.024924
-0.025017
-0.025164
-0.025312
-0.025451
-0.025520
-0.025610
-0.025673
-0.025786
-0.025890
-0.025991
-0.026101
-0.026184
-0.026294
-0.026359
-0.026439
-0.026487
-0.026573
-0.026659
-0.026751
-0.026826
-0.026920
-0.027014
-0.027113
-0.027244
-0.027362
-0.027442
-0.027542
-0.027652
-0.027768
-0.027886
-0.028049
-0.028150
-0.028277
-0.028402
-0.028507
0.043125
0.043963
0.044378
0.044827
0.045262
0.045718
0.046137
0.046608
0.046944
0.047315
0.047675
0.047993
0.048290
0.048557
0.048806
0.048973
0.049262
0.049570
0.049871
0.050184
0.050483
0.050799
0.051104
0.051418
0.051703
0.051967
0.052257
0.052556
0.052848
0.053156
0.053440
0.053692
0.053959
0.054216
0.054497
0.054771
0.055038
0.055311
0.055567
0.055828
0.056085
0.056381
0.056641
0.056936
0.057154
0.057387
0.057655
0.019191
0.033163
0.000073
0.031702
0.005879
0.043840
0.002304
-0.000131
0.053444
-0.019216
0.046054
-0.029879
0.014610
0.015740
0.040783
-0.000067
0.052935
-0.038581
0.049443
0.026989
0.000209
0.054992
-0.014277
-0.000540
-0.033276
-0.009717
0.044870
0.018925
0.007129
0.055175
0.057942
-0.026371
0.048870
-0.030731
0.042475
-0.000982
0.047777
0.022193
0.000777
-0.029726
0.056061
0.049473
0.035163
0.037318
-0.000179
0.011169
0.021339
0.029060
0.000137
0.050383
0.057482
-0.025093
0.021433
0.057149
-0.023272
-0.029437
-0.036551
0.055129
-0.007540
-0.036326
0.044273
0.047465
0.044341
0.001341
0.056336
0.003480
-0.018308
-0.016985
0.035815
0.030960
0.049515
0.000107
0.000055
0.009367
0.024429
0.000022
-0.012743
-0.000259
0.042287
0.038742
0.016781
0.010924
-0.008248
-0.001197
-0.005923
0.024325
0.000403
0.049258
-0.001856
-0.002637
0.020410
0.003247
0.020777
0.001226
0.057468
0.018699
-0.028105
-0.028722
0.057115
0.018387
0.000068
0.030264
0.044522
-0.016478
-0.029553
0.055346
0.038088
0.012940
0.046443
-0.000430
-0.023972
-0.010758
-0.029580
0.050240
0.055003
0.040077
-0.008305
-0.002263
-0.004466
0.047340
0.021598
0.001693
0.058108
-0.027417
0.055738
-0.032090
0.054815
-0.035444
-0.028677
0.055356
0.056258
-0.021561
0.057515
-0.039009
0.049872
-0.016812
-0.001325
0.044746
0.044089
0.000495
0.001670
0.044252
0.002911
0.044022
0.051482
0.039697
0.004560
0.034027
0.007472
0.027767
0.032009
0.000092
0.036538
-0.015733
0.030244
0.000119
-0.000015
0.049641
0.012895
0.018545
0.039848
-0.000126
0.028225
0.000164
-0.011304
-0.000362
0.043590
0.015735
0.013072
-0.000448
0.017882
0.008926
0.046431
0.049096
0.025863
0.000275
0.048747
0.049410
0.023208
0.000575
0.019687
0.005177
-0.028309
0.057770
0.057179
-0.028522
-0.028076
0.019955
0.018644
0.056945
-0.029009
0.055694
-0.023151
0.022090
0.022139
0.023349
0.042846
-0.000848
0.003059
0.053399
-0.023027
0.031563
0.027263
-0.033708
0.000272
0.015055
0.053598
0.017058
0.025038
0.054254
0.006338
0.019248
0.000671
0.057132
-0.027762
0.050718
0.043020
0.004150
0.042683
0.006342
0.035815
0.014497
0.042927
-0.000823
-0.001357
0.020796
0.045589
0.047715
-0.027863
0.057632
-0.026275
0.057086
0.049232
-0.030888
0.052742
-0.034194
-0.028395
0.053856
0.051611
0.002326
0.056147
-0.019320
-0.021151
-0.025136
0.042560
0.043037
-0.010711
0.025781
-0.000082
0.000002
-0.015388
0.038534
0.035060
0.000189
0.000138
-0.022539
0.047926
0.036771
0.029419
0.039052
0.009531
0.011086
0.046972
0.047161
0.046912
0.033402
-0.013876
-0.000288
0.041591
-0.009398
-0.000536
0.010129
0.000395
-0.012296
-0.006321
-0.003090
0.048158
0.022683
0.001141
0.003088
-0.017775
0.017974
0.018914
0.056815
-0.027809
-0.028430
0.058209
-0.028332
0.057078
0.018601
0.020345
0.021273
0.022421
0.018007
-0.000024
0.032656
0.040829
-0.005791
0.035156
0.011571
-0.015488
0.045183
0.049192
-0.000550
0.038514
-0.011705
-0.009170
-0.002555
-0.027370
0.056645
0.048483
0.023613
-0.034548
0.022412
0.000182
0.044446
-0.000998
0.040963
0.045498
0.014920
0.021999
0.001956
0.021919
-0.032465
0.053513
-0.018242
-0.030155
0.002642
-0.034895
-0.003920
0.001299
0.018373
0.042504
0.055608
0.042898
0.003547
0.042973
0.044746
0.005177
0.049508
0.053435
-0.013402
0.034571
-0.000173
0.030441
0.016011
0.040991
0.000229
0.028525
-0.013168
0.036335
0.023072
0.007905
0.000324
0.026334
0.047199
0.012339
-0.008002
-0.004728
0.008112
0.045995
0.044252
-0.001153
0.018182
0.000501
0.032450
0.023906
0.020063
0.046568
0.004581
0.000869
-0.021873
0.052293
-0.024295
0.017898
-0.028258
0.017476
0.019112
0.056408
-0.026792
0.057038
0.018542
0.022257
0.056512
-0.028260
-0.027353
0.056704
0.057161
0.023926
0.024291
0.023619
-0.027814
-0.025299
0.017146
0.025378
0.041311
0.003624
-0.001437
-0.015753
0.050653
0.034513
-0.031935
-0.023077
0.028659
0.052215
0.018522
0.000468
0.011919
-0.011001
-0.029581
0.025478
0.005036
0.000863
0.005807
0.040826
-0.000130
0.056391
0.032999
0.007147
0.009980
0.045133
-0.007739
-0.001713
0.003016
0.023270
0.040902
-0.026100
0.054293
0.045836
-0.032084
0.001483
-0.022462
-0.000278
-0.000309
0.040975
0.018328
0.003809
0.036263
0.034324
0.000076
-0.020140
0.049884
0.044690
-0.030648
0.052218
0.046803
0.037541
0.040002
0.044709
-0.014347
0.016294
0.027823
-0.000768
0.028371
-0.010387
0.039844
-0.001439
0.040905
0.000564
0.030866
0.042319
0.044947
0.013198
0.009407
-0.006421
0.045748
-0.003243
0.000286
0.019493
0.021350
0.001094
0.001418
-0.021336
0.018245
0.023098
0.025265
-0.027444
-0.027639
0.056408
0.056130
0.017883
-0.027805
0.017069
0.055695
-0.031558
0.020770
0.055536
0.050806
0.047057
0.042619
-0.024522
-0.026806
0.021552
0.025926
0.056605
0.019056
0.025001
0.029163
0.039345
0.011684
0.000086
0.044146
-0.021540
0.043294
0.051940
0.050455
0.037986
0.016487
0.027863
-0.000867
-0.025405
0.043010
0.000706
0.009804
0.056025
0.040464
0.019991
0.022547
0.024843
-0.011916
0.016224
0.046469
0.039075
-0.002184
0.001288
-0.009066
-0.004783
0.002124
0.023285
0.054376
0.002569
0.041937
0.022403
-0.013949
-0.000303
0.002845
0.038075
0.041187
0.033419
0.048408
0.004347
0.025534
0.005814
0.000255
0.008491
0.042894
0.036748
-0.030302
0.051740
0.045130
-0.031561
0.039609
0.000374
0.049002
-0.006558
-0.010167
-0.019913
0.013528
0.020282
-0.006361
0.031773
0.044135
0.026590
0.007442
-0.001147
0.043580
0.000687
0.017592
0.035880
-0.002691
0.043404
0.029825
0.004334
0.020506
0.024434
0.014817
0.055575
-0.027432
0.017473
-0.030102
-0.026242
0.019442
0.025610
0.017895
0.018228
0.016959
0.016622
-0.023480
0.022623
0.022352
0.022569
0.003341
-0.032015
-0.026821
-0.027666
0.043878
0.041678
0.056258
0.052981
0.046813
-0.026898
-0.027891
0.055421
0.025267
0.056262
-0.027530
-0.017802
0.056012
0.055784
0.025315
0.016752
0.025855
0.005291
0.002043
0.047152
0.033017
0.014064
-0.029673
0.000140
-0.013869
0.012238
-0.022157
0.052593
-0.001213
0.048383
-0.009855
0.041423
0.036476
-0.025647
-0.028813
0.026009
0.055732
0.039877
0.043730
0.037580
0.031205
0.023852
0.041453
0.007349
-0.007381
0.029212
0.000548
-0.002908
0.043077
0.005412
-0.031169
0.001048
0.019095
0.003037
0.021655
0.016943
0.022040
0.003865
-0.026377
-0.014868
-0.017742
0.039930
0.039560
0.004532
-0.019692
0.013833
0.046780
-0.000107
-0.030940
0.039073
0.009989
0.000397
-0.000565
-0.027565
0.015151
0.041600
0.042864
0.055987
0.035329
-0.001583
-0.005019
0.041740
0.038811
0.033159
0.039418
0.000857
0.017830
0.006966
0.043750
0.024242
0.020810
0.055083
0.032301
0.027011
0.001618
-0.003795
0.055254
0.023649
-0.027116
0.051065
0.055526
0.055229
0.019168
0.026590
-0.026288
-0.027278
0.043788
-0.024643
0.018363
0.050696
0.026194
0.023829
0.016919
0.025883
0.016353
0.016295
0.003471
0.020722
0.055817
0.024038
0.026353
0.055721
-0.028021
-0.015796
-0.027497
0.055312
0.026059
-0.027276
0.045033
-0.013177
0.026269
0.016077
0.042413
0.026676
0.038092
0.037492
0.004156
-0.017519
0.041277
-0.023460
0.000752
0.035675
0.028527
0.018260
0.005692
0.026774
0.024870
0.001222
-0.025964
-0.026886
0.004307
-0.010374
0.009539
-0.013949
0.012437
0.038774
0.029889
0.037486
-0.002189
0.041332
0.041389
0.022082
0.026085
0.016101
0.004515
0.005019
0.020482
0.006505
-0.012332
-0.000246
-0.000835
0.055590
0.038945
-0.030037
-0.030602
0.045939
0.023010
-0.028143
0.031785
0.025594
-0.019840
0.037842
-0.029226
0.030170
0.035118
-0.008912
-0.021380
0.041373
-0.001586
0.015681
0.041868
-0.026692
-0.028893
-0.000580
0.050004
0.049249
-0.003812
-0.030619
0.034160
-0.006235
0.019265
0.037733
0.024579
0.015264
0.022867
0.042652
0.002286
0.004232
0.055615
0.024799
0.020302
0.001475
0.008762
0.042646
0.051263
0.000334
0.017457
0.055063
0.053121
0.023210
-0.027156
0.049670
0.042110
0.055303
-0.027416
0.027113
0.019234
0.016813
0.016143
-0.027813
0.027955
0.015872
-0.025151
0.024700
0.054903
0.054112
-0.027862
0.019405
0.040244
0.043777
0.005724
0.026664
-0.000065
0.055039
0.026780
0.054736
0.026858
-0.026977
0.041093
0.014518
0.024730
0.027127
-0.017669
0.003002
-0.000027
-0.028013
0.009543
0.046087
-0.029385
0.050643
0.039978
-0.002247
0.020097
-0.008606
0.006058
0.032049
-0.028394
-0.025494
0.054971
-0.026714
0.040082
0.009230
-0.020809
0.001646
0.025664
0.029262
0.005213
0.040954
-0.005760
0.004322
0.023260
0.037790
0.015384
-0.028316
0.054849
0.049217
-0.026398
0.019366
0.007179
-0.015788
-0.022169
0.037145
0.036787
0.010878
0.032683
0.043288
0.030432
-0.030044
-0.007261
-0.003878
0.037730
-0.000512
0.038714
0.016260
0.037933
0.000523
0.003164
0.040081
-0.006038
0.000983
0.025222
0.006819
0.034755
0.001804
0.027294
-0.027789
-0.004931
0.019926
-0.012180
0.051607
0.005175
0.004808
-0.001157
0.020882
0.024085
0.021394
0.042024
-0.020831
0.017123
0.049988
0.038808
0.004519
0.052287
0.041610
0.026382
0.016668
0.015531
0.021398
0.024285
0.016082
0.022679
0.053104
0.025138
0.054100
0.017842
0.054761
0.054480
0.027470
0.015633
0.055075
0.000177
-0.028785
0.019414
0.026874
-0.026767
-0.028685
0.004595
0.055550
0.027164
0.007851
0.018351
-0.027254
-0.029616
-0.011580
0.046499
0.027203
-0.026893
0.027955
-0.024592
0.055269
0.054585
0.015989
0.014875
0.026540
0.027819
0.036729
0.006922
0.004620
0.037497
-0.000207
0.016502
0.051909
0.050879
-0.025072
0.034185
-0.028553
0.028697
0.021593
0.026720
0.028713
0.036045
-0.028056
-0.007006
0.037559
0.009109
-0.009293
0.034132
0.018399
0.012793
0.005647
0.027906
0.005556
-0.004765
0.000707
0.003305
0.024343
0.022520
0.001323
0.019355
0.054577
0.036824
-0.000678
-0.011214
0.054461
0.035934
0.039725
0.041662
0.037033
0.049776
0.047664
0.007772
-0.026006
0.033837
0.036414
-0.024704
-0.028004
-0.003059
-0.018597
-0.029926
0.054350
0.005381
-0.028682
0.000256
0.000424
0.040507
-0.014054
0.001985
0.040016
-0.026777
0.021608
-0.029449
0.052509
0.005900
0.027918
0.031289
0.017901
0.019832
0.011808
0.035387
0.005366
-0.001599
-0.015717
-0.012369
0.040502
0.002449
0.040943
0.023995
0.022722
0.049228
0.007334
0.047652
-0.027609
-0.027407
0.018025
0.015783
0.040446
0.020175
0.022681
0.015189
-0.000320
0.054600
0.053028
0.028325
-0.026498
0.054018
0.015310
-0.027825
0.027178
0.005260
0.015445
0.054740
0.027287
0.043355
0.017444
-0.023578
0.027696
-0.026620
0.055533
0.054216
0.019634
0.027897
-0.020762
-0.029101
0.028920
0.054617
-0.013914
0.010861
0.039274
0.015409
-0.013875
0.028395
0.027315
0.005546
-0.018661
-0.025789
0.033819
0.049717
0.008425
0.046386
-0.024408
0.048857
0.038734
0.024118
0.006582
-0.001486
0.054425
0.028585
0.011264
0.014540
-0.029376
0.030652
0.006099
-0.027778
0.014881
0.017550
0.001708
0.000546
0.002746
-0.007748
-0.027809
0.006193
0.026111
0.031264
0.038977
0.007756
0.054117
-0.003355
-0.014748
-0.029081
0.054333
-0.025604
0.036416
0.038594
-0.016059
-0.005553
0.030107
0.039346
-0.005864
-0.012275
0.003304
0.046988
0.044759
0.000149
0.004163
0.023626
0.020368
0.053957
0.035880
0.025410
0.020742
0.051482
0.001001
0.036354
0.027707
0.052139
0.036315
0.015411
-0.011090
-0.001992
0.006965
0.039984
0.022514
0.033194
0.036594
0.017837
0.040341
-0.026284
0.015227
0.006262
-0.000556
-0.028975
0.018224
0.019241
0.027904
0.021258
0.024970
0.014987
-0.026574
-0.027156
0.014679
0.054884
0.008414
0.016700
0.026815
-0.022498
0.016512
0.028111
0.040611
0.054008
0.038554
-0.010543
-0.026566
0.024936
0.053513
0.036652
0.038478
0.054174
0.028713
0.027922
0.022361
0.053949
-0.004009
0.006385
0.029066
0.012954
0.039073
-0.027790
-0.027660
0.050172
0.020239
0.029636
-0.012285
0.035420
0.027972
0.028654
0.038818
0.014929
0.007288
0.038589
0.034559
0.047805
-0.023516
0.000209
0.022020
0.005877
0.051739
0.037763
0.025006
0.050489
-0.001793
-0.006653
0.007492
-0.027259
0.034914
0.053869
0.044638
-0.027516
0.004865
0.028912
0.032908
-0.026402
0.027203
0.024644
0.011328
0.001295
0.006995
-0.010123
0.054079
0.018578
0.035054
0.037907
-0.005650
0.053752
0.014415
0.048238
0.043640
-0.027944
-0.020697
-0.025034
0.005902
0.016849
0.031522
-0.028246
0.000530
0.049482
-0.025983
0.003785
0.007107
0.028541
0.002161
0.041953
-0.000309
0.024284
0.022794
0.031227
0.054747
0.038821
0.022943
0.035480
0.050914
0.019320
-0.029408
-0.002735
0.035116
0.015524
0.000913
0.006230
0.035326
0.029724
0.008072
0.010115
0.022844
0.038998
-0.005829
0.035004
-0.016978
0.038954
-0.000946
0.037373
-0.011285
0.023845
0.026841
0.028624
0.039387
0.025297
0.033437
0.053133
0.018467
0.018392
0.019066
0.014593
0.016385
0.015023
-0.027475
0.053918
0.053661
0.014877
0.020279
0.023129
-0.014056
0.028351
-0.021358
0.026665
0.014214
0.038367
0.053661
-0.027535
0.015978
-0.004523
-0.026349
0.047541
0.029933
0.030365
0.054022
0.012894
-0.028769
0.035852
-0.026606
-0.028618
-0.026961
0.028917
-0.028084
0.035437
0.029328
0.028765
0.014894
0.034199
-0.012413
0.005860
0.028305
0.008039
0.014862
-0.019500
0.044961
-0.026310
0.044698
-0.000197
-0.028617
0.048140
0.032403
0.049821
0.023263
-0.027956
0.008643
0.029084
0.053471
-0.005501
0.053052
0.001568
0.037729
0.053514
0.002906
0.023537
-0.027306
0.023931
0.020937
-0.027427
0.029619
-0.000766
0.016700
0.026390
0.032852
0.027293
0.036832
-0.027063
0.029312
0.001361
0.030186
0.004503
0.016159
0.042707
0.053420
0.027583
-0.022349
-0.003270
0.023963
0.003449
-0.002624
0.049316
0.039636
0.019678
0.026142
0.036360
0.035107
0.033881
0.007796
0.016361
0.006773
0.006358
-0.015031
0.051144
0.030171
0.029818
-0.001329
0.008940
0.007103
0.034359
0.016963
-0.011244
-0.007540
0.034483
0.005045
0.037625
-0.026455
-0.026348
0.011803
0.025843
0.038512
-0.028624
-0.028409
0.037826
0.034081
-0.008784
0.000681
-0.009981
0.007635
0.014450
0.024468
0.052242
0.027619
0.020311
0.032893
-0.004181
0.035004
0.017812
0.035913
0.028797
0.035125
0.019497
0.016437
0.053363
0.014032
0.021911
0.014393
0.024440
0.053977
0.052701
0.029045
0.014039
0.047340
0.053749
-0.027315
0.053490
0.015435
0.032060
-0.027676
-0.017196
0.023275
0.025762
0.031375
0.029446
0.053468
0.029649
0.048421
0.005504
-0.027100
0.015371
-0.026569
-0.005073
-0.026024
0.037818
-0.014010
-0.024428
-0.025624
0.040942
0.029813
0.031893
0.015644
0.032975
0.038917
0.006532
0.028715
-0.018074
0.036451
0.046847
0.033990
0.033142
-0.027904
0.005277
0.052302
0.047247
0.029628
0.050798
-0.006536
0.013485
-0.006073
0.014407
0.024202
0.008486
0.003553
0.052109
-0.013416
0.010331
-0.001660
0.015294
0.033772
-0.026782
0.018282
-0.023662
-0.026962
0.037338
0.026666
0.028158
0.004535
0.031498
0.053434
0.029564
0.035569
0.036585
0.014471
0.008136
0.049071
0.004832
-0.020964
0.053321
0.009343
-0.000840
-0.003570
0.030237
0.025275
0.026143
-0.028195
0.028287
0.036605
0.002139
0.028134
-0.025815
0.022298
0.034297
0.033891
0.036682
0.006990
0.007828
0.048618
-0.004868
0.042155
0.046174
0.016396
0.011674
0.033706
0.030478
0.042585
0.020708
0.001126
0.033150
0.020124
0.004139
-0.002195
-0.010330
-0.011262
0.053602
0.036698
0.023909
-0.018934
0.000209
0.037584
-0.008756
0.034682
0.038131
0.025461
0.051400
0.033142
0.016490
0.027142
0.017124
0.034756
0.029878
0.013948
0.018814
-0.027523
-0.026878
-0.027825
0.015447
0.020099
0.020959
0.035074
0.023902
0.015021
0.052801
0.013734
0.044302
0.052937
0.029184
0.024663
-0.015213
0.013978
-0.023737
-0.028142
0.031246
0.029815
-0.025172
0.053292
0.053033
0.053372
0.053103
-0.027073
0.006840
-0.026459
0.022555
0.033031
-0.026302
-0.026076
0.050086
0.031007
-0.013521
0.039945
0.020288
-0.019602
0.033145
0.034828
-0.023906
0.044823
0.028959
0.051469
-0.001817
0.003494
0.023562
-0.027510
0.049483
0.050391
0.035472
0.052847
0.052919
0.009768
0.012011
-0.012740
0.016201
0.040779
0.011743
-0.000493
0.052506
0.001332
0.002692
-0.025453
0.027376
0.029731
-0.027509
-0.005451
-0.004586
0.014531
0.033001
0.029738
0.023779
0.032941
-0.026784
0.021558
0.024627
0.043762
0.035725
0.033662
-0.027935
0.046360
0.002445
0.051421
-0.026864
0.007154
0.025065
0.037656
0.048371
0.007813
0.033100
0.042913
0.008840
0.052838
0.007464
0.049985
0.000722
0.052670
0.033468
0.048442
0.027249
0.025678
-0.016258
0.030287
-0.010287
0.024374
-0.008762
-0.007073
0.003728
-0.012090
-0.026025
0.036463
0.037280
-0.011440
-0.003038
0.034562
0.033695
0.052978
0.032031
0.029259
0.026197
0.023815
0.052300
0.037973
0.029461
0.013826
0.017639
0.023115
0.016551
0.035535
-0.027495
0.031625
0.018234
-0.022955
0.027705
0.047914
0.004220
0.028447
0.013557
0.015458
0.052268
0.008383
-0.027239
0.020211
0.030283
0.030706
0.022640
0.011050
0.053161
0.013620
-0.007872
-0.024712
0.014006
0.005969
0.020155
0.037167
-0.026706
0.030015
-0.026246
-0.026713
0.053129
0.052808
0.035520
-0.022854
0.015214
0.014607
0.031549
0.025511
0.032209
0.007718
0.041313
0.036910
-0.026183
-0.011194
0.032141
0.014809
-0.017597
0.041296
0.010997
-0.027033
0.043292
0.000706
0.046358
-0.027194
0.032543
0.035934
0.047828
0.051466
0.024710
0.025877
-0.005957
-0.025084
0.049750
-0.004253
0.034598
0.032794
0.024144
-0.025902
0.033860
0.031594
0.032067
0.030068
0.003148
0.036174
-0.002317
0.024856
0.027849
0.032191
0.026492
-0.019395
0.032972
-0.000052
-0.026439
0.029235
0.048873
-0.014559
0.018474
0.021898
-0.026600
-0.027763
0.001884
0.034528
-0.025732
0.045776
0.007209