# vtk DataFile Version 2.0
Test
ASCII
DATASET POLYDATA
POINTS 4677 float
0.000000 0.000000 0.000000
0.080000 0.000000 0.000000
0.080000 0.160000 0.000000
0.000000 0.160000 0.000000
0.036000 0.073072 0.000000
0.044000 0.086928 0.000000
0.024500 0.065566 0.000000
0.055500 0.093560 0.000000
0.001000 0.050000 0.000000
0.079000 0.110000 0.000000
0.002963 0.000000 0.000000
0.005926 0.000000 0.000000
0.008889 0.000000 0.000000
0.011852 0.000000 0.000000
0.014815 0.000000 0.000000
0.017778 0.000000 0.000000
0.020741 0.000000 0.000000
0.023704 0.000000 0.000000
0.026667 0.000000 0.000000
0.029630 0.000000 0.000000
0.032593 0.000000 0.000000
0.035556 0.000000 0.000000
0.038519 0.000000 0.000000
0.041481 0.000000 0.000000
0.044444 0.000000 0.000000
0.047407 0.000000 0.000000
0.050370 0.000000 0.000000
0.053333 0.000000 0.000000
0.056296 0.000000 0.000000
0.059259 0.000000 0.000000
0.062222 0.000000 0.000000
0.065185 0.000000 0.000000
0.068148 0.000000 0.000000
0.071111 0.000000 0.000000
0.074074 0.000000 0.000000
0.077037 0.000000 0.000000
0.080000 0.002963 0.000000
0.080000 0.005926 0.000000
0.080000 0.008889 0.000000
0.080000 0.011852 0.000000
0.080000 0.014815 0.000000
0.080000 0.017778 0.000000
0.080000 0.020741 0.000000
0.080000 0.023704 0.000000
0.080000 0.026667 0.000000
0.080000 0.029630 0.000000
0.080000 0.032593 0.000000
0.080000 0.035556 0.000000
0.080000 0.038519 0.000000
0.080000 0.041481 0.000000
0.080000 0.044444 0.000000
0.080000 0.047407 0.000000
0.080000 0.050370 0.000000
0.080000 0.053333 0.000000
0.080000 0.056296 0.000000
0.080000 0.059259 0.000000
0.080000 0.062222 0.000000
0.080000 0.065185 0.000000
0.080000 0.068148 0.000000
0.080000 0.071111 0.000000
0.080000 0.074074 0.000000
0.080000 0.077037 0.000000
0.080000 0.080000 0.000000
0.080000 0.082963 0.000000
0.080000 0.085926 0.000000
0.080000 0.088889 0.000000
0.080000 0.091852 0.000000
0.080000 0.094815 0.000000
0.080000 0.097778 0.000000
0.080000 0.100741 0.000000
0.080000 0.103704 0.000000
0.080000 0.106667 0.000000
0.080000 0.109630 0.000000
0.080000 0.112593 0.000000
0.080000 0.115556 0.000000
0.080000 0.118519 0.000000
0.080000 0.121481 0.000000
0.080000 0.124444 0.000000
0.080000 0.127407 0.000000
0.080000 0.130370 0.000000
0.080000 0.133333 0.000000
0.080000 0.136296 0.000000
0.080000 0.139259 0.000000
0.080000 0.142222 0.000000
0.080000 0.145185 0.000000
0.080000 0.148148 0.000000
0.080000 0.151111 0.000000
0.080000 0.154074 0.000000
0.080000 0.157037 0.000000
0.077037 0.160000 0.000000
0.074074 0.160000 0.000000
0.071111 0.160000 0.000000
0.068148 0.160000 0.000000
0.065185 0.160000 0.000000
0.062222 0.160000 0.000000
0.059259 0.160000 0.000000
0.056296 0.160000 0.000000
0.053333 0.160000 0.000000
0.050370 0.160000 0.000000
0.047407 0.160000 0.000000
0.044444 0.160000 0.000000
0.041481 0.160000 0.000000
0.038519 0.160000 0.000000
0.035556 0.160000 0.000000
0.032593 0.160000 0.000000
0.029630 0.160000 0.000000
0.026667 0.160000 0.000000
0.023704 0.160000 0.000000
0.020741 0.160000 0.000000
0.017778 0.160000 0.000000
0.014815 0.160000 0.000000
0.011852 0.160000 0.000000
0.008889 0.160000 0.000000
0.005926 0.160000 0.000000
0.002963 0.160000 0.000000
0.000000 0.157037 0.000000
0.000000 0.154074 0.000000
0.000000 0.151111 0.000000
0.000000 0.148148 0.000000
0.000000 0.145185 0.000000
0.000000 0.142222 0.000000
0.000000 0.139259 0.000000
0.000000 0.136296 0.000000
0.000000 0.133333 0.000000
0.000000 0.130370 0.000000
0.000000 0.127407 0.000000
0.000000 0.124444 0.000000
0.000000 0.121481 0.000000
0.000000 0.118519 0.000000
0.000000 0.115556 0.000000
0.000000 0.112593 0.000000
0.000000 0.109630 0.000000
0.000000 0.106667 0.000000
0.000000 0.103704 0.000000
0.000000 0.100741 0.000000
0.000000 0.097778 0.000000
0.000000 0.094815 0.000000
0.000000 0.091852 0.000000
0.000000 0.088889 0.000000
0.000000 0.085926 0.000000
0.000000 0.082963 0.000000
0.000000 0.080000 0.000000
0.000000 0.077037 0.000000
0.000000 0.074074 0.000000
0.000000 0.071111 0.000000
0.000000 0.068148 0.000000
0.000000 0.065185 0.000000
0.000000 0.062222 0.000000
0.000000 0.059259 0.000000
0.000000 0.056296 0.000000
0.000000 0.053333 0.000000
0.000000 0.050370 0.000000
0.000000 0.047407 0.000000
0.000000 0.044444 0.000000
0.000000 0.041481 0.000000
0.000000 0.038519 0.000000
0.000000 0.035556 0.000000
0.000000 0.032593 0.000000
0.000000 0.029630 0.000000
0.000000 0.026667 0.000000
0.000000 0.023704 0.000000
0.000000 0.020741 0.000000
0.000000 0.017778 0.000000
0.000000 0.014815 0.000000
0.000000 0.011852 0.000000
0.000000 0.008889 0.000000
0.000000 0.005926 0.000000
0.000000 0.002963 0.000000
0.035500 0.072746 0.000000
0.035000 0.072419 0.000000
0.034500 0.072093 0.000000
0.034000 0.071767 0.000000
0.033500 0.071440 0.000000
0.033000 0.071114 0.000000
0.032500 0.070788 0.000000
0.032000 0.070461 0.000000
0.031500 0.070135 0.000000
0.031000 0.069809 0.000000
0.030500 0.069482 0.000000
0.030000 0.069156 0.000000
0.029500 0.068829 0.000000
0.029000 0.068503 0.000000
0.028500 0.068177 0.000000
0.028000 0.067850 0.000000
0.027500 0.067524 0.000000
0.027000 0.067198 0.000000
0.026500 0.066871 0.000000
0.026000 0.066545 0.000000
0.025500 0.066219 0.000000
0.025000 0.065892 0.000000
0.044500 0.087216 0.000000
0.045000 0.087505 0.000000
0.045500 0.087793 0.000000
0.046000 0.088081 0.000000
0.046500 0.088370 0.000000
0.047000 0.088658 0.000000
0.047500 0.088946 0.000000
0.048000 0.089235 0.000000
0.048500 0.089523 0.000000
0.049000 0.089811 0.000000
0.049500 0.090100 0.000000
0.050000 0.090388 0.000000
0.050500 0.090677 0.000000
0.051000 0.090965 0.000000
0.051500 0.091253 0.000000
0.052000 0.091542 0.000000
0.052500 0.091830 0.000000
0.053000 0.092118 0.000000
0.053500 0.092407 0.000000
0.054000 0.092695 0.000000
0.054500 0.092983 0.000000
0.055000 0.093272 0.000000
0.043704 0.086415 0.000000
0.043407 0.085902 0.000000
0.043111 0.085388 0.000000
0.042815 0.084875 0.000000
0.042519 0.084362 0.000000
0.042222 0.083849 0.000000
0.041926 0.083336 0.000000
0.041630 0.082823 0.000000
0.041333 0.082309 0.000000
0.041037 0.081796 0.000000
0.040741 0.081283 0.000000
0.040444 0.080770 0.000000
0.040148 0.080257 0.000000
0.039852 0.079743 0.000000
0.039556 0.079230 0.000000
0.039259 0.078717 0.000000
0.038963 0.078204 0.000000
0.038667 0.077691 0.000000
0.038370 0.077177 0.000000
0.038074 0.076664 0.000000
0.037778 0.076151 0.000000
0.037481 0.075638 0.000000
0.037185 0.075125 0.000000
0.036889 0.074612 0.000000
0.036593 0.074098 0.000000
0.036296 0.073585 0.000000
0.024000 0.065235 0.000000
0.023500 0.064904 0.000000
0.023000 0.064572 0.000000
0.022500 0.064241 0.000000
0.022000 0.063910 0.000000
0.021500 0.063579 0.000000
0.021000 0.063248 0.000000
0.020500 0.062916 0.000000
0.020000 0.062585 0.000000
0.019500 0.062254 0.000000
0.019000 0.061923 0.000000
0.018500 0.061592 0.000000
0.018000 0.061261 0.000000
0.017500 0.060929 0.000000
0.017000 0.060598 0.000000
0.016500 0.060267 0.000000
0.016000 0.059936 0.000000
0.015500 0.059605 0.000000
0.015000 0.059273 0.000000
0.014500 0.058942 0.000000
0.014000 0.058611 0.000000
0.013500 0.058280 0.000000
0.013000 0.057949 0.000000
0.012500 0.057617 0.000000
0.012000 0.057286 0.000000
0.011500 0.056955 0.000000
0.011000 0.056624 0.000000
0.010500 0.056293 0.000000
0.010000 0.055961 0.000000
0.009500 0.055630 0.000000
0.009000 0.055299 0.000000
0.008500 0.054968 0.000000
0.008000 0.054637 0.000000
0.007500 0.054305 0.000000
0.007000 0.053974 0.000000
0.006500 0.053643 0.000000
0.006000 0.053312 0.000000
0.005500 0.052981 0.000000
0.005000 0.052650 0.000000
0.004500 0.052318 0.000000
0.004000 0.051987 0.000000
0.003500 0.051656 0.000000
0.003000 0.051325 0.000000
0.002500 0.050994 0.000000
0.002000 0.050662 0.000000
0.001500 0.050331 0.000000
0.055990 0.093902 0.000000
0.056479 0.094245 0.000000
0.056969 0.094587 0.000000
0.057458 0.094930 0.000000
0.057948 0.095272 0.000000
0.058437 0.095615 0.000000
0.058927 0.095957 0.000000
0.059417 0.096300 0.000000
0.059906 0.096642 0.000000
0.060396 0.096985 0.000000
0.060885 0.097327 0.000000
0.061375 0.097670 0.000000
0.061865 0.098012 0.000000
0.062354 0.098355 0.000000
0.062844 0.098697 0.000000
0.063333 0.099040 0.000000
0.063823 0.099382 0.000000
0.064312 0.099725 0.000000
0.064802 0.100067 0.000000
0.065292 0.100410 0.000000
0.065781 0.100752 0.000000
0.066271 0.101095 0.000000
0.066760 0.101437 0.000000
0.067250 0.101780 0.000000
0.067740 0.102122 0.000000
0.068229 0.102465 0.000000
0.068719 0.102807 0.000000
0.069208 0.103150 0.000000
0.069698 0.103492 0.000000
0.070187 0.103835 0.000000
0.070677 0.104177 0.000000
0.071167 0.104520 0.000000
0.071656 0.104862 0.000000
0.072146 0.105205 0.000000
0.072635 0.105547 0.000000
0.073125 0.105890 0.000000
0.073615 0.106232 0.000000
0.074104 0.106575 0.000000
0.074594 0.106917 0.000000
0.075083 0.107260 0.000000
0.075573 0.107602 0.000000
0.076062 0.107945 0.000000
0.076552 0.108287 0.000000
0.077042 0.108630 0.000000
0.077531 0.108972 0.000000
0.078021 0.109315 0.000000
0.078510 0.109658 0.000000
0.043942 0.087469 0.000000
0.035556 0.157037 0.000000
0.044420 0.002920 0.000000
0.077037 0.038519 0.000000
0.002963 0.121481 0.000000
0.077037 0.059259 0.000000
0.002963 0.109630 0.000000
0.002923 0.098139 0.000000
0.077153 0.126913 0.000000
0.002808 0.032596 0.000000
0.077140 0.071061 0.000000
0.002963 0.085926 0.000000
0.002963 0.136296 0.000000
0.077041 0.023701 0.000000
0.056296 0.157037 0.000000
0.032593 0.002963 0.000000
0.077037 0.080000 0.000000
0.002813 0.077135 0.000000
0.077037 0.142222 0.000000
0.017778 0.157037 0.000000
0.062222 0.002963 0.000000
0.076992 0.088722 0.000000
0.002945 0.020743 0.000000
0.017777 0.002962 0.000000
0.002801 0.068434 0.000000
0.002959 0.011851 0.000000
0.065186 0.157038 0.000000
0.002963 0.148148 0.000000
0.077037 0.011852 0.000000
0.076887 0.094740 0.000000
0.077092 0.115875 0.000000
0.002677 0.044265 0.000000
0.077038 0.148148 0.000000
0.002985 0.062165 0.000000
0.077037 0.047407 0.000000
0.011852 0.002963 0.000000
[...]
POINT_DATA 4677
SCALARS UX float 1
LOOKUP_TABLE default
-0.000002
0.000002
0.028094
-0.067686
-0.033399
-0.045004
-0.077283
0.027780
-0.082722
0.073188
-0.000000
-0.000000
-0.000000
-0.000000
-0.000000
-0.000000
-0.000000
-0.000000
-0.000000
-0.000000
-0.000000
-0.000000
-0.000000
0.000000
0.000000
0.000000
0.000000
0.000000
0.000000
0.000000
0.000000
0.000000
0.000000
0.000000
0.000001
-0.000000
0.008585
0.013541
0.017273
0.020244
0.022694
0.024771
0.026579
0.028189
0.029681
0.031132
0.032617
0.034103
0.035791
0.037618
0.039713
0.042071
0.043969
0.045679
0.046786
0.047580
0.047925
0.048929
0.050665
0.053580
0.061429
0.068057
0.072485
0.068976
0.067707
0.066616
0.066149
0.065395
0.064076
0.064032
0.069437
0.074170
0.075034
0.073439
0.065692
0.063951
0.047601
0.042989
0.034960
0.030071
0.027718
0.026599
0.026609
0.026580
0.026627
0.027137
0.027578
0.027862
0.028003
0.024531
0.020875
0.017260
0.013700
0.010128
0.006553
0.003239
-0.000026
-0.003291
-0.006565
-0.009847
-0.013142
-0.016455
-0.019785
-0.023137
-0.026521
-0.029941
-0.033419
-0.036960
-0.040571
-0.044254
-0.048009
-0.051827
-0.055711
-0.059680
-0.063642
-0.067838
-0.068152
-0.068639
-0.069289
-0.070089
-0.071019
-0.072061
-0.073199
-0.074398
-0.075682
-0.076992
-0.078410
-0.079866
-0.081373
-0.082923
-0.084518
-0.086168
-0.087893
-0.089721
-0.091677
-0.093793
-0.096141
-0.098762
-0.101736
-0.105136
-0.109208
-0.113345
-0.116574
-0.118918
-0.118212
-0.115982
-0.112540
-0.107955
-0.102944
-0.097121
-0.091080
-0.084929
-0.079043
-0.073512
-0.068439
-0.063826
-0.059812
-0.056235
-0.052900
-0.049735
-0.046606
-0.043300
-0.039886
-0.036007
-0.031669
-0.026837
-0.020719
-0.012902
-0.032620
-0.037807
-0.042784
-0.042448
-0.040924
-0.042251
-0.040106
-0.046740
-0.051749
-0.056570
-0.062264
-0.063437
-0.065713
-0.065765
-0.071097
-0.072525
-0.072277
-0.072854
-0.074262
-0.078343
-0.078605
-0.077661
-0.045210
-0.037935
-0.034539
-0.034273
-0.031844
-0.031988
-0.028182
-0.030053
-0.025542
-0.022270
-0.020987
-0.013028
-0.011877
-0.007467
0.000790
0.005600
-0.008548
0.001754
-0.001041
0.012361
0.015435
0.023601
-0.043864
-0.044613
-0.044757
-0.044834
-0.044492
-0.044098
-0.043431
-0.042262
-0.042061
-0.043193
-0.044365
-0.045408
-0.046205
-0.046767
-0.047049
-0.047189
-0.046737
-0.045953
-0.044516
-0.042797
-0.040830
-0.039010
-0.037440
-0.036160
-0.036498
-0.035946
-0.079001
-0.079857
-0.081462
-0.081880
-0.082389
-0.082546
-0.082371
-0.082249
-0.082188
-0.082191
-0.082239
-0.082295
-0.082357
-0.082392
-0.082431
-0.082460
-0.082473
-0.082482
-0.082478
-0.082476
-0.082475
-0.082472
-0.082469
-0.082469
-0.082471
-0.082475
-0.082477
-0.082481
-0.082487
-0.082494
-0.082503
-0.082512
-0.082518
-0.082525
-0.082532
-0.082539
-0.082545
-0.082551
-0.082562
-0.082571
-0.082581
-0.082596
-0.082620
-0.082647
-0.082669
-0.082698
0.030962
0.031238
0.031633
0.032799
0.032921
0.032888
0.032308
0.031993
0.032046
0.032328
0.033042
0.034234
0.035975
0.037002
0.037280
0.037142
0.037318
0.038178
0.039429
0.040512
0.041249
0.041601
0.041780
0.041882
0.042037
0.042263
0.042641
0.043149
0.043802
0.044645
0.045675
0.046829
0.048032
0.049143
0.050093
0.051254
0.052524
0.054238
0.056874
0.060151
0.063239
0.065879
0.067529
0.068895
0.070187
0.071324
0.072294
-0.042755
-0.023171
0.000740
0.032626
-0.075831
0.044752
-0.082101
-0.089416
0.030517
-0.052130
0.048522
-0.100971
-0.069117
0.025233
-0.000058
-0.000142
0.065619
-0.113555
0.023000
-0.044328
0.002159
0.063424
-0.039425
-0.002096
-0.113264
-0.027744
0.010214
-0.065169
0.017599
0.060673
0.057650
-0.069101
0.023614
-0.104554
0.039059
-0.003531
0.017263
-0.059693
0.004147
-0.097746
0.060929
0.023740
-0.016481
-0.009874
-0.000720
-0.071607
0.028073
-0.037012
0.001623
0.024538
0.050491
-0.063710
-0.043391
0.041341
-0.059473
-0.095281
-0.115402
0.064788
-0.094283
-0.105168
0.045546
0.049796
0.042881
-0.085739
0.061521
-0.078898
-0.048849
-0.045699
0.034433
-0.029961
0.022896
0.001180
0.000568
-0.072969
0.029489
0.000367
-0.035871
-0.001147
0.003214
-0.006583
-0.066911
0.022028
-0.022634
-0.004522
-0.014554
-0.051914
0.002942
0.024112
-0.006655
-0.006707
-0.064033
0.010613
-0.063727
0.005437
0.070308
-0.043235
-0.080400
-0.086205
0.070145
-0.042870
0.000948
0.029549
0.042605
-0.045444
-0.100433
0.042257
-0.006683
-0.067679
0.019314
-0.001943
-0.061469
-0.031970
-0.098060
0.058774
0.056114
-0.000345
-0.023730
-0.007679
-0.012728
0.020095
-0.059986
0.008338
0.069015
-0.075152
0.061221
-0.109999
0.062085
-0.115368
-0.084286
0.065089
0.037064
-0.056643
0.072484
-0.109537
0.060060
-0.096876
-0.091597
0.047192
0.044897
-0.087728
-0.083870
0.044014
-0.080517
0.041109
0.026138
0.036620
-0.077376
-0.019779
-0.074401
0.030988
-0.026517
0.000953
-0.013144
-0.042712
-0.033448
0.001382
0.000137
0.023124
-0.070330
0.026665
-0.003308
-0.000446
-0.040627
0.001864
-0.032041
-0.001557
0.006615
-0.067963
0.023710
-0.002716
-0.065972
0.020034
0.013725
0.023036
-0.048083
0.002496
0.020910
0.024392
-0.055769
0.003490
-0.064518
0.014547
-0.081065
0.071853
0.069544
-0.091366
-0.081209
-0.041375
-0.045715
0.066255
-0.090446
0.047237
-0.059378
-0.041602
-0.041678
-0.039527
0.041204
-0.088911
-0.079993
0.045251
-0.059659
-0.026606
-0.040815
-0.112342
0.002660
0.023658
0.058544
-0.063911
-0.048295
0.058134
0.017414
-0.061911
0.005013
0.067687
-0.079044
0.028203
0.040981
-0.076641
0.038197
-0.073478
-0.013287
-0.066393
0.006923
-0.003615
-0.006050
-0.060463
0.013673
0.020709
-0.078683
0.070391
-0.070192
0.059598
0.052690
-0.105743
0.034939
-0.106696
-0.087854
0.062044
0.061078
-0.083810
0.060364
-0.051940
-0.055252
-0.065357
0.041837
0.042229
-0.094008
0.028090
0.000046
0.000528
-0.042619
0.033583
0.031471
0.001804
0.001368
-0.096903
0.022135
-0.009885
-0.033598
-0.003470
-0.070567
-0.069161
0.019205
0.019436
0.020340
-0.019983
-0.039037
-0.001148
0.003230
-0.028083
-0.002664
0.020933
0.003664
-0.035456
-0.018851
-0.009754
0.021063
-0.056012
0.006848
0.012037
-0.047958
-0.045753
-0.040806
0.066946
-0.080248
-0.084014
0.072958
-0.080550
0.070243
-0.046278
-0.036821
-0.043103
-0.042606
-0.042024
0.000576
0.028119
0.037444
-0.090698
-0.012993
-0.066652
-0.043916
0.018331
0.055548
-0.002191
-0.003255
-0.034917
-0.028108
-0.009747
-0.077615
0.063807
0.025051
-0.037494
-0.112229
0.026774
0.001839
0.015918
-0.004613
0.002916
0.016361
-0.063757
-0.056478
0.010033
-0.042767
-0.110455
0.057718
-0.049060
-0.102447
-0.081876
-0.110280
-0.090720
-0.086725
0.025145
0.040962
0.054500
0.041525
-0.078215
0.039849
0.043901
-0.074974
0.024731
0.059648
-0.093672
-0.016809
-0.000499
-0.029953
-0.065058
0.035926
0.002215
-0.037099
-0.038217
-0.009955
0.024979
-0.071977
0.003142
-0.044493
0.019351
0.022340
-0.024302
-0.015068
0.019326
0.017091
0.010405
-0.004721
-0.062852
0.004265
-0.023280
-0.052095
-0.061110
0.017263
0.015023
0.005844
-0.056818
0.038358
-0.063529
-0.047222
-0.085576
-0.044633
-0.039577
0.065080
-0.073509
0.062711
-0.046682
-0.035251
0.066271
-0.083967
-0.076442
0.068266
0.065842
-0.036395
-0.035393
-0.036392
-0.081215
-0.067275
-0.043477
-0.032984
0.037549
-0.079704
-0.087635
-0.044623
0.038927
-0.013244
-0.109282
-0.060753
-0.033601
0.056163
-0.059913
0.003853
0.020790
-0.034069
-0.100443
-0.044917
-0.074580
0.006269
0.016827
0.036473
0.000002
0.058576
-0.019806
-0.070972
-0.068246
0.015951
-0.024555
-0.007762
0.012748
-0.052563
0.036979
-0.071022
0.052079
0.019626
-0.109493
-0.085220
-0.096722
-0.087721
-0.000987
0.036694
0.023396
-0.078153
0.029972
-0.016009
0.001180
-0.052795
0.030544
0.016938
-0.104378
0.058774
0.051076
-0.006278
0.034904
0.015914
-0.041425
-0.062412
-0.037517
-0.003304
0.026319
-0.031708
-0.000175
-0.006120
0.036966
0.004569
-0.026737
0.006581
0.013420
-0.065162
0.019611
-0.019976
0.016806
-0.012165
0.002500
-0.058859
-0.057113
0.007297
0.008520
-0.056519
-0.040493
-0.040551
-0.036949
-0.078962
-0.081044
0.064021
0.063970
-0.047309
-0.083987
-0.047008
0.057665
-0.108102
-0.037904
0.056716
0.057805
0.021646
0.040168
-0.065126
-0.074553
-0.043580
-0.032689
0.059309
-0.046025
-0.033714
0.024794
0.032480
-0.064864
0.001355
0.043450
-0.057898
0.014766
0.046068
0.054768
-0.003554
-0.059875
-0.034405
-0.003336
-0.069024
0.012746
0.004914
0.018600
0.056477
0.002299
-0.055936
-0.053185
-0.035734
-0.036721
0.020987
0.024155
0.033316
-0.008786
0.008048
-0.028181
-0.016596
0.010904
-0.040883
0.054077
-0.084937
0.037878
-0.042307
-0.041032
-0.000739
-0.082279
0.032336
0.037179
-0.017195
0.031303
-0.076137
-0.031341
-0.072936
0.002282
-0.069496
0.013613
-0.007259
-0.105999
0.056442
0.018837
-0.107521
0.033919
0.003136
0.053834
-0.090219
-0.031256
-0.053149
-0.062910
0.022029
-0.020818
-0.023349
0.013265
-0.041153
0.018331
-0.004914
0.009877
0.005353
-0.061076
-0.010160
-0.011080
0.012570
-0.030133
0.015000
-0.057905
-0.048705
0.021937
0.057012
-0.081410
-0.041640
-0.103049
-0.072777
-0.039522
-0.031678
-0.047610
-0.046756
-0.048001
-0.045955
-0.062795
-0.042004
-0.035561
-0.033482
-0.082165
-0.109691
-0.100636
-0.083928
0.016503
0.037737
0.063948
0.062213
0.046367
-0.076234
-0.083490
0.055214
-0.033515
0.059640
-0.079970
-0.048835
0.060606
0.060155
-0.032017
-0.042830
-0.031396
-0.073128
-0.084164
0.032282
-0.016255
-0.060916
-0.104877
0.001651
-0.041011
0.018294
-0.060213
0.048233
-0.004625
0.050732
-0.031157
0.011176
-0.006433
-0.071174
-0.098148
-0.041703
0.056024
0.033526
0.018311
0.030768
-0.023636
-0.039401
0.009058
-0.069585
-0.024554
-0.030725
0.003967
-0.011622
0.009949
0.015863
-0.107044
0.006905
-0.057152
0.012900
-0.053989
-0.048660
-0.035986
-0.078535
-0.100268
-0.092954
-0.049355
0.034465
0.032588
-0.080733
-0.053513
0.019972
0.049303
0.000327
-0.106207
0.032866
-0.066591
0.003100
-0.002021
-0.084259
-0.061307
0.037706
0.012903
0.061008
-0.010195
-0.006784
-0.017534
0.006335
0.031855
0.026783
-0.000368
0.005841
-0.058531
0.017020
0.012819
0.023375
-0.054937
0.051987
-0.020504
-0.037997
0.009353
-0.013598
0.054666
-0.049330
-0.080920
0.054006
0.057675
0.054853
-0.045566
-0.029965
-0.074322
-0.079114
0.016208
-0.066987
-0.039954
0.054270
-0.031792
-0.039167
-0.048257
-0.029292
-0.044643
-0.047744
-0.080361
-0.037575
0.060638
-0.038987
-0.028593
0.057189
-0.085869
-0.045229
-0.081041
0.053876
-0.031833
-0.081071
0.024971
-0.039369
-0.027842
-0.043767
0.018506
-0.030262
0.028510
0.028788
-0.080334
-0.049927
0.037921
-0.064172
0.004704
-0.007325
-0.031353
-0.056118
0.015002
-0.028445
-0.035352
0.007011
-0.073661
-0.079397
-0.077167
-0.032753
0.016744
-0.041778
-0.062631
-0.000594
0.023606
0.029305
-0.009134
0.005827
0.009808
-0.051056
-0.038658
-0.049017
-0.077887
-0.074563
-0.037436
-0.070750
-0.037887
-0.000283
-0.002980
0.056942
0.033116
-0.103479
-0.105091
0.047237
-0.040597
-0.087401
-0.020463
-0.032864
-0.054854
0.028286
-0.100346
-0.026960
0.028204
-0.028376
-0.096289
0.010592
-0.006694
-0.059135
0.008773
-0.076725
-0.097027
-0.086662
0.052132
0.051772
-0.014572
-0.106748
-0.013249
-0.021173
-0.054680
-0.003360
0.021805
0.019392
-0.050093
0.009580
0.011158
0.014610
0.056818
-0.045467
-0.053331
0.008230
-0.067794
0.014154
0.053816
0.002580
-0.040872
0.053428
0.047254
-0.032813
-0.079552
0.038981
0.012768
0.053786
-0.084053
-0.031274
-0.044955
-0.048433
-0.048680
-0.101933
-0.028557
-0.046986
-0.069802
-0.036723
0.052725
0.051719
-0.085617
-0.038588
0.034751
0.025081
-0.071862
-0.029274
0.000687
0.051402
-0.027681
0.050595
-0.029371
-0.080875
0.018162
-0.059155
0.019882
-0.025285
-0.051177
-0.082896
0.000786
-0.101781
0.015949
0.045702
-0.100919
0.052053
0.007424
-0.008634
-0.052351
-0.027825
-0.071414
-0.017574
-0.095209
-0.072266
0.050997
-0.079186
0.006352
-0.066003
-0.095198
0.007960
-0.031520
-0.028137
-0.078122
0.005745
-0.089251
0.014001
-0.047213
0.030665
-0.049364
-0.096377
0.051925
0.050507
-0.076177
-0.037807
0.015836
-0.045977
-0.061477
0.027823
-0.004536
-0.064219
0.025083
0.043022
-0.024562
-0.104143
-0.024432
-0.014564
0.028766
-0.001587
0.032259
-0.057307
0.028021
0.003546
0.012790
0.002521
-0.021413
0.005819
-0.042346
-0.069396
-0.010259
0.009584
-0.034894
-0.085920
-0.017814
0.020560
-0.037669
0.041402
-0.074107
-0.075990
-0.004091
-0.050932
-0.046291
-0.052088
0.012581
-0.057593
-0.057606
0.037376
0.030975
-0.079142
0.055606
0.013588
-0.030540
-0.041885
-0.048526
-0.034876
-0.036710
-0.049490
-0.039471
0.046451
-0.030504
0.049897
-0.047075
0.049932
0.048955
-0.027940
-0.045894
0.055150
0.001705
-0.098587
-0.044552
-0.028332
-0.078031
-0.090609
-0.076038
0.058116
-0.027912
-0.067917
-0.039288
-0.083774
-0.099418
-0.036261
0.032809
-0.026895
-0.081090
-0.026984
-0.068107
0.053477
0.050999
-0.042968
-0.049315
-0.027779
-0.019800
0.023765
-0.068351
-0.079592
0.031090
-0.000073
-0.055618
0.038745
0.051513
-0.070739
-0.010304
-0.097759
-0.028382
-0.048698
-0.035722
0.020355
0.023498
-0.092586
-0.023940
-0.002315
-0.064910
-0.029432
0.025908
-0.038581
-0.060539
0.013667
-0.020805
-0.075165
-0.018048
0.004028
0.012203
-0.043454
-0.048236
0.006655
-0.053902
0.053325
0.025547
-0.002357
-0.034797
0.048350
0.025949
0.003080
0.039102
0.030211
0.050643
0.049327
0.014814
-0.075116
-0.013317
0.024430
-0.097362
-0.094163
-0.012061
-0.053841
-0.102758
0.050501
-0.076937
-0.094669
-0.085415
0.002800
0.005769
-0.092096
0.009326
0.006846
-0.081159
-0.049583
-0.102753
0.055161
-0.072734
-0.021033
-0.020783
-0.055631
0.018973
0.016777
-0.007258
-0.077437
-0.006152
-0.046839
-0.038546
0.012986
0.010954
0.010881
-0.037147
-0.040344
0.031064
-0.068435
0.031491
-0.085797
-0.085078
-0.046798
-0.049707
0.009402
-0.036072
-0.032795
-0.048020
-0.000567
0.050237
0.045486
-0.030032
-0.077398
0.048602
-0.049768
-0.094334
-0.027058
-0.073203
-0.044856
0.049501
-0.022049
0.025855
-0.040127
-0.065639
-0.025801
-0.079359
0.059061
0.048469
-0.044486
-0.025409
-0.058688
-0.093874
-0.023798
0.052159
-0.042475
-0.062665
0.011444
-0.043991
-0.043333
-0.017838
-0.022439
-0.076770
-0.054962
-0.098132
-0.010244
0.029184
0.014190
0.045992
-0.068847
0.049541
0.004742
-0.038204
-0.071708
-0.005447
0.053698
-0.015381
-0.061283
-0.049030
-0.101452
-0.021129
-0.075167
-0.090048
-0.057206
-0.039330
0.007271
0.002960
0.010636
-0.026054
-0.087922
-0.071230
-0.028904
0.021241
0.003543
-0.066835
0.050207
-0.012905
-0.090457
-0.099567
0.048100
-0.073877
0.023762
0.033441
-0.048623
-0.087967
-0.023985
0.002962
-0.020773
-0.038998
-0.081910
0.024512
0.023830
0.001388
0.012892
-0.044464
0.016698
0.048124
0.024141
-0.039391
-0.050373
0.053285
0.005319
-0.004142
-0.032103
0.040191
0.026166
0.017775
-0.034837
-0.007762
0.013648
0.009869
-0.046737
-0.014076
0.023645
-0.053941
0.009325
-0.077013
-0.050328
-0.070613
-0.001636
-0.094336
-0.046649
-0.036963
-0.017402
-0.034185
-0.031155
-0.047184
-0.079683
-0.084292
-0.050234
0.057219
-0.065767
-0.041113
-0.027660
-0.063338
-0.048554
-0.021759
0.019860
0.048896
0.000150
-0.032837
-0.080462
-0.033642
0.056973
0.028047
0.032574
0.047428
-0.021303
-0.017251
-0.042489
0.047617
-0.014751
-0.073357
-0.020143
-0.059273
0.005921
-0.091942
-0.092629
0.050257
-0.045472
-0.024055
-0.039990
0.019377
-0.008343
-0.011608
0.010653
-0.055981
-0.069533
0.033715
0.023395
0.023075
-0.066737
0.001334
-0.046947
0.011617
0.052766
0.003206
-0.034736
0.049654
-0.006837
-0.023009
-0.067226
-0.090998
0.020706
0.050575
0.042740
-0.090763
-0.078899
-0.011215
-0.013248
-0.079099
-0.032233
-0.040738
0.014845
0.005837
-0.069538
-0.031768
0.054225
-0.052461
0.025198
0.000741
-0.086133
0.046453
-0.048369
0.049213
0.015940
-0.099883
-0.092552
-0.071890
0.012989
-0.040356
-0.018066
-0.091221
-0.084045
0.049208
-0.076048
0.011511
-0.071172
-0.027860
0.008738
0.018232
-0.000549
0.016726
-0.043397
-0.015844
0.058493
0.004326
-0.045880
0.026961
0.033096
-0.052244
-0.100798
-0.010201
-0.006982
0.015778
0.004397
-0.074732
0.019849
-0.024485
-0.065554
-0.062386
-0.045141
0.006164
-0.020727
0.020979
-0.051198
0.008396
-0.003437
-0.001528
-0.035755
-0.041686
-0.022228
-0.014700
0.007814
-0.032890
0.021999
0.045126
-0.037283
-0.046536
-0.047747
-0.050858
-0.048619
-0.050793
-0.086163
0.046888
0.046031
-0.046254
-0.034907
-0.032063
-0.044712
-0.011036
-0.061027
-0.028611
-0.050269
0.000711
0.047590
-0.089436
-0.042190
-0.016475
-0.078105
0.048188
-0.023691
-0.020294
0.046729
-0.058068
-0.100720
0.028146
-0.081173
-0.098159
-0.083717
-0.014326
-0.088189
0.019997
-0.017854
-0.016693
-0.045382
0.016838
-0.041217
-0.076281
-0.005693
-0.067364
-0.054823
-0.057499
0.013094
-0.097135
0.042915
-0.000669
-0.098001
0.048735
-0.013508
0.048474
-0.043335
-0.095608
-0.064251
-0.025303
0.050960
-0.020090
0.043729
0.006169
0.003685
0.045235
0.009687
-0.043475
-0.088896
-0.042668
-0.048893
-0.087813
-0.010443
-0.002803
-0.048847
-0.025940
0.020815
0.015766
-0.001759
-0.084776
-0.005362
-0.081875
-0.022049
0.011771
-0.041627
0.040230
0.055545
-0.029972
-0.064386
-0.012270
-0.042604
-0.080853
-0.009468
0.026188
0.011677
-0.050697
-0.036553
0.029793
0.019894
-0.009438
0.011901
0.013162
-0.072774
-0.074250
-0.047621
0.051036
-0.021424
-0.009917
-0.004712
-0.064023
-0.068617
0.016315
-0.053919
-0.036309
-0.025196
0.021584
0.011468
0.002374
-0.081266
-0.079648
-0.059018
-0.029292
0.006590
-0.098570
-0.098850
0.005901
0.021752
-0.028505
0.002995
-0.031795
-0.067911
-0.051481
-0.039180
0.040776
-0.012978
-0.047674
-0.012645
-0.015352
0.024991
-0.038018
-0.004193
-0.002766
0.020172
-0.035414
-0.048636
0.046183
-0.051247
-0.032945
-0.047649
-0.029526
0.056164
0.054640
-0.009991
-0.050025
0.048138
0.046034
-0.085848
0.045173
-0.043526
-0.015974
-0.088137
-0.052679
-0.043739
-0.030389
-0.009832
-0.024898
0.045380
-0.008124
0.049746
0.012762
-0.089232
-0.050217
-0.081183
-0.018336
-0.076976
0.001908
-0.088356
-0.069988
-0.074669
0.009622
-0.014205
0.016430
-0.043075
0.013435
0.002612
-0.074075
0.002304
-0.055242
0.029177
0.016631
0.022366
-0.010830
-0.096209
0.009001
0.040391
0.048121
-0.022721
0.049100
-0.022738
-0.055642
-0.084520
-0.051737
-0.040102
-0.065417
0.010160
0.052241
-0.044394
-0.060866
-0.005764
-0.050469
0.018627
-0.088279
-0.050956
-0.094487
-0.087591
0.005472
-0.022877
-0.004889
0.011106
-0.016724
0.053639
-0.000775
-0.004032
-0.000086
-0.046857
-0.065634
0.047670
-0.078427
-0.061155
0.048534
-0.062685
-0.002788
-0.013511
0.016950
-0.038156
-0.034507
-0.096747
-0.027149
0.000885
0.007747
-0.024598
-0.075996
-0.045538
0.016436
0.017517
-0.000945
-0.072149
-0.068670
0.048457
-0.017408
0.009007
0.045899
-0.053172
0.012390
0.020835
-0.001768
0.039164
0.013286
0.004565
0.016097
-0.049443
0.009119
-0.008223
-0.033109
-0.037167
0.048173
0.000852
-0.041591
-0.091406
0.001038
0.004872
-0.028662
0.024756
0.005229
-0.035410
0.037299
-0.018752
-0.050397
-0.017073
-0.039176
-0.006376
-0.007582
-0.051988
-0.035687
-0.087636
-0.084275
-0.098533
-0.050051
-0.048387
-0.033282
-0.012845
-0.030072
-0.044987
0.053373
-0.051293
0.043032
0.043026
-0.004234
-0.040354
-0.048992
-0.049522
-0.068244
-0.095973
-0.018308
-0.002344
-0.073225
0.044462
0.044888
0.044633
0.043958
-0.086853
0.014384
-0.081615
-0.044822
-0.006518
-0.080051
-0.077983
0.047787
0.012226
-0.045594
0.005948
-0.048096
-0.059010
0.019352
0.024622
-0.093941
0.043860
-0.024445
0.036468
-0.006224
0.006214
-0.042236
-0.094341
0.046658
0.046951
-0.002143
0.050801
0.042881
-0.061457
-0.057595
-0.086782
-0.052388
0.036692
0.009321
-0.001345
0.042197
0.004598
0.008403
-0.074924
-0.014583
0.004600
-0.093471
-0.018865
-0.016554
-0.051686
0.015779
0.013297
0.011422
0.013317
-0.085873
-0.047192
-0.039856
0.009722
-0.001704
-0.008653
-0.096105
0.046972
-0.079699
0.050474
-0.085091
-0.071880
-0.036646
0.031764
0.018914
0.009165
0.014629
0.039956
-0.064750
0.045148
-0.070306
0.029151
0.002754
0.041746
0.018791
0.046864
-0.030836
-0.026743
-0.051880
-0.002990
-0.033677
-0.039870
-0.029142
-0.024196
0.009364
-0.041623
-0.077993
0.002099
0.003779
-0.038560
-0.010782
0.023863
0.015920
0.048923
-0.014006
0.008143
-0.028081
-0.040913
0.050807
0.010045
0.006106
-0.052679
-0.049914
-0.042741
-0.040626
-0.016665
-0.096139
-0.020750
-0.036572
-0.066748
-0.009285
0.047856
0.010936
-0.001287
-0.052314
-0.051198
0.040274
-0.065130
-0.086270
-0.033586
-0.000113
-0.019521
-0.030685
-0.059142