# vtk DataFile Version 2.0
Test
ASCII
DATASET POLYDATA
POINTS 4677 float
0.000000 0.000000 0.000000
0.080000 0.000000 0.000000
0.080000 0.160000 0.000000
0.000000 0.160000 0.000000
0.036000 0.073072 0.000000
0.044000 0.086928 0.000000
0.024500 0.065566 0.000000
0.055500 0.093560 0.000000
0.001000 0.050000 0.000000
0.079000 0.110000 0.000000
0.002963 0.000000 0.000000
0.005926 0.000000 0.000000
0.008889 0.000000 0.000000
0.011852 0.000000 0.000000
0.014815 0.000000 0.000000
0.017778 0.000000 0.000000
0.020741 0.000000 0.000000
0.023704 0.000000 0.000000
0.026667 0.000000 0.000000
0.029630 0.000000 0.000000
0.032593 0.000000 0.000000
0.035556 0.000000 0.000000
0.038519 0.000000 0.000000
0.041481 0.000000 0.000000
0.044444 0.000000 0.000000
0.047407 0.000000 0.000000
0.050370 0.000000 0.000000
0.053333 0.000000 0.000000
0.056296 0.000000 0.000000
0.059259 0.000000 0.000000
0.062222 0.000000 0.000000
0.065185 0.000000 0.000000
0.068148 0.000000 0.000000
0.071111 0.000000 0.000000
0.074074 0.000000 0.000000
0.077037 0.000000 0.000000
0.080000 0.002963 0.000000
0.080000 0.005926 0.000000
0.080000 0.008889 0.000000
0.080000 0.011852 0.000000
0.080000 0.014815 0.000000
0.080000 0.017778 0.000000
0.080000 0.020741 0.000000
0.080000 0.023704 0.000000
0.080000 0.026667 0.000000
0.080000 0.029630 0.000000
0.080000 0.032593 0.000000
0.080000 0.035556 0.000000
0.080000 0.038519 0.000000
0.080000 0.041481 0.000000
0.080000 0.044444 0.000000
0.080000 0.047407 0.000000
0.080000 0.050370 0.000000
0.080000 0.053333 0.000000
0.080000 0.056296 0.000000
0.080000 0.059259 0.000000
0.080000 0.062222 0.000000
0.080000 0.065185 0.000000
0.080000 0.068148 0.000000
0.080000 0.071111 0.000000
0.080000 0.074074 0.000000
0.080000 0.077037 0.000000
0.080000 0.080000 0.000000
0.080000 0.082963 0.000000
0.080000 0.085926 0.000000
0.080000 0.088889 0.000000
0.080000 0.091852 0.000000
0.080000 0.094815 0.000000
0.080000 0.097778 0.000000
0.080000 0.100741 0.000000
0.080000 0.103704 0.000000
0.080000 0.106667 0.000000
0.080000 0.109630 0.000000
0.080000 0.112593 0.000000
0.080000 0.115556 0.000000
0.080000 0.118519 0.000000
0.080000 0.121481 0.000000
0.080000 0.124444 0.000000
0.080000 0.127407 0.000000
0.080000 0.130370 0.000000
0.080000 0.133333 0.000000
0.080000 0.136296 0.000000
0.080000 0.139259 0.000000
0.080000 0.142222 0.000000
0.080000 0.145185 0.000000
0.080000 0.148148 0.000000
0.080000 0.151111 0.000000
0.080000 0.154074 0.000000
0.080000 0.157037 0.000000
0.077037 0.160000 0.000000
0.074074 0.160000 0.000000
0.071111 0.160000 0.000000
0.068148 0.160000 0.000000
0.065185 0.160000 0.000000
0.062222 0.160000 0.000000
0.059259 0.160000 0.000000
0.056296 0.160000 0.000000
0.053333 0.160000 0.000000
0.050370 0.160000 0.000000
0.047407 0.160000 0.000000
0.044444 0.160000 0.000000
0.041481 0.160000 0.000000
0.038519 0.160000 0.000000
0.035556 0.160000 0.000000
0.032593 0.160000 0.000000
0.029630 0.160000 0.000000
0.026667 0.160000 0.000000
0.023704 0.160000 0.000000
0.020741 0.160000 0.000000
0.017778 0.160000 0.000000
0.014815 0.160000 0.000000
0.011852 0.160000 0.000000
0.008889 0.160000 0.000000
0.005926 0.160000 0.000000
0.002963 0.160000 0.000000
0.000000 0.157037 0.000000
0.000000 0.154074 0.000000
0.000000 0.151111 0.000000
0.000000 0.148148 0.000000
0.000000 0.145185 0.000000
0.000000 0.142222 0.000000
0.000000 0.139259 0.000000
0.000000 0.136296 0.000000
0.000000 0.133333 0.000000
0.000000 0.130370 0.000000
0.000000 0.127407 0.000000
0.000000 0.124444 0.000000
0.000000 0.121481 0.000000
0.000000 0.118519 0.000000
0.000000 0.115556 0.000000
0.000000 0.112593 0.000000
0.000000 0.109630 0.000000
0.000000 0.106667 0.000000
0.000000 0.103704 0.000000
0.000000 0.100741 0.000000
0.000000 0.097778 0.000000
0.000000 0.094815 0.000000
0.000000 0.091852 0.000000
0.000000 0.088889 0.000000
0.000000 0.085926 0.000000
0.000000 0.082963 0.000000
0.000000 0.080000 0.000000
0.000000 0.077037 0.000000
0.000000 0.074074 0.000000
0.000000 0.071111 0.000000
0.000000 0.068148 0.000000
0.000000 0.065185 0.000000
0.000000 0.062222 0.000000
0.000000 0.059259 0.000000
0.000000 0.056296 0.000000
0.000000 0.053333 0.000000
0.000000 0.050370 0.000000
0.000000 0.047407 0.000000
0.000000 0.044444 0.000000
0.000000 0.041481 0.000000
0.000000 0.038519 0.000000
0.000000 0.035556 0.000000
0.000000 0.032593 0.000000
0.000000 0.029630 0.000000
0.000000 0.026667 0.000000
0.000000 0.023704 0.000000
0.000000 0.020741 0.000000
0.000000 0.017778 0.000000
0.000000 0.014815 0.000000
0.000000 0.011852 0.000000
0.000000 0.008889 0.000000
0.000000 0.005926 0.000000
0.000000 0.002963 0.000000
0.035500 0.072746 0.000000
0.035000 0.072419 0.000000
0.034500 0.072093 0.000000
0.034000 0.071767 0.000000
0.033500 0.071440 0.000000
0.033000 0.071114 0.000000
0.032500 0.070788 0.000000
0.032000 0.070461 0.000000
0.031500 0.070135 0.000000
0.031000 0.069809 0.000000
0.030500 0.069482 0.000000
0.030000 0.069156 0.000000
0.029500 0.068829 0.000000
0.029000 0.068503 0.000000
0.028500 0.068177 0.000000
0.028000 0.067850 0.000000
0.027500 0.067524 0.000000
0.027000 0.067198 0.000000
0.026500 0.066871 0.000000
0.026000 0.066545 0.000000
0.025500 0.066219 0.000000
0.025000 0.065892 0.000000
0.044500 0.087216 0.000000
0.045000 0.087505 0.000000
0.045500 0.087793 0.000000
0.046000 0.088081 0.000000
0.046500 0.088370 0.000000
0.047000 0.088658 0.000000
0.047500 0.088946 0.000000
0.048000 0.089235 0.000000
0.048500 0.089523 0.000000
0.049000 0.089811 0.000000
0.049500 0.090100 0.000000
0.050000 0.090388 0.000000
0.050500 0.090677 0.000000
0.051000 0.090965 0.000000
0.051500 0.091253 0.000000
0.052000 0.091542 0.000000
0.052500 0.091830 0.000000
0.053000 0.092118 0.000000
0.053500 0.092407 0.000000
0.054000 0.092695 0.000000
0.054500 0.092983 0.000000
0.055000 0.093272 0.000000
0.043704 0.086415 0.000000
0.043407 0.085902 0.000000
0.043111 0.085388 0.000000
0.042815 0.084875 0.000000
0.042519 0.084362 0.000000
0.042222 0.083849 0.000000
0.041926 0.083336 0.000000
0.041630 0.082823 0.000000
0.041333 0.082309 0.000000
0.041037 0.081796 0.000000
0.040741 0.081283 0.000000
0.040444 0.080770 0.000000
0.040148 0.080257 0.000000
0.039852 0.079743 0.000000
0.039556 0.079230 0.000000
0.039259 0.078717 0.000000
0.038963 0.078204 0.000000
0.038667 0.077691 0.000000
0.038370 0.077177 0.000000
0.038074 0.076664 0.000000
0.037778 0.076151 0.000000
0.037481 0.075638 0.000000
0.037185 0.075125 0.000000
0.036889 0.074612 0.000000
0.036593 0.074098 0.000000
0.036296 0.073585 0.000000
0.024000 0.065235 0.000000
0.023500 0.064904 0.000000
0.023000 0.064572 0.000000
0.022500 0.064241 0.000000
0.022000 0.063910 0.000000
0.021500 0.063579 0.000000
0.021000 0.063248 0.000000
0.020500 0.062916 0.000000
0.020000 0.062585 0.000000
0.019500 0.062254 0.000000
0.019000 0.061923 0.000000
0.018500 0.061592 0.000000
0.018000 0.061261 0.000000
0.017500 0.060929 0.000000
0.017000 0.060598 0.000000
0.016500 0.060267 0.000000
0.016000 0.059936 0.000000
0.015500 0.059605 0.000000
0.015000 0.059273 0.000000
0.014500 0.058942 0.000000
0.014000 0.058611 0.000000
0.013500 0.058280 0.000000
0.013000 0.057949 0.000000
0.012500 0.057617 0.000000
0.012000 0.057286 0.000000
0.011500 0.056955 0.000000
0.011000 0.056624 0.000000
0.010500 0.056293 0.000000
0.010000 0.055961 0.000000
0.009500 0.055630 0.000000
0.009000 0.055299 0.000000
0.008500 0.054968 0.000000
0.008000 0.054637 0.000000
0.007500 0.054305 0.000000
0.007000 0.053974 0.000000
0.006500 0.053643 0.000000
0.006000 0.053312 0.000000
0.005500 0.052981 0.000000
0.005000 0.052650 0.000000
0.004500 0.052318 0.000000
0.004000 0.051987 0.000000
0.003500 0.051656 0.000000
0.003000 0.051325 0.000000
0.002500 0.050994 0.000000
0.002000 0.050662 0.000000
0.001500 0.050331 0.000000
0.055990 0.093902 0.000000
0.056479 0.094245 0.000000
0.056969 0.094587 0.000000
0.057458 0.094930 0.000000
0.057948 0.095272 0.000000
0.058437 0.095615 0.000000
0.058927 0.095957 0.000000
0.059417 0.096300 0.000000
0.059906 0.096642 0.000000
0.060396 0.096985 0.000000
0.060885 0.097327 0.000000
0.061375 0.097670 0.000000
0.061865 0.098012 0.000000
0.062354 0.098355 0.000000
0.062844 0.098697 0.000000
0.063333 0.099040 0.000000
0.063823 0.099382 0.000000
0.064312 0.099725 0.000000
0.064802 0.100067 0.000000
0.065292 0.100410 0.000000
0.065781 0.100752 0.000000
0.066271 0.101095 0.000000
0.066760 0.101437 0.000000
0.067250 0.101780 0.000000
0.067740 0.102122 0.000000
0.068229 0.102465 0.000000
0.068719 0.102807 0.000000
0.069208 0.103150 0.000000
0.069698 0.103492 0.000000
0.070187 0.103835 0.000000
0.070677 0.104177 0.000000
0.071167 0.104520 0.000000
0.071656 0.104862 0.000000
0.072146 0.105205 0.000000
0.072635 0.105547 0.000000
0.073125 0.105890 0.000000
0.073615 0.106232 0.000000
0.074104 0.106575 0.000000
0.074594 0.106917 0.000000
0.075083 0.107260 0.000000
0.075573 0.107602 0.000000
0.076062 0.107945 0.000000
0.076552 0.108287 0.000000
0.077042 0.108630 0.000000
0.077531 0.108972 0.000000
0.078021 0.109315 0.000000
0.078510 0.109658 0.000000
0.043942 0.087469 0.000000
0.035556 0.157037 0.000000
0.044420 0.002920 0.000000
0.077037 0.038519 0.000000
0.002963 0.121481 0.000000
0.077037 0.059259 0.000000
0.002963 0.109630 0.000000
0.002923 0.098139 0.000000
0.077153 0.126913 0.000000
0.002808 0.032596 0.000000
0.077140 0.071061 0.000000
0.002963 0.085926 0.000000
0.002963 0.136296 0.000000
0.077041 0.023701 0.000000
0.056296 0.157037 0.000000
0.032593 0.002963 0.000000
0.077037 0.080000 0.000000
0.002813 0.077135 0.000000
0.077037 0.142222 0.000000
0.017778 0.157037 0.000000
0.062222 0.002963 0.000000
0.076992 0.088722 0.000000
0.002945 0.020743 0.000000
0.017777 0.002962 0.000000
0.002801 0.068434 0.000000
0.002959 0.011851 0.000000
0.065186 0.157038 0.000000
0.002963 0.148148 0.000000
0.077037 0.011852 0.000000
0.076887 0.094740 0.000000
0.077092 0.115875 0.000000
0.002677 0.044265 0.000000
0.077038 0.148148 0.000000
0.002985 0.062165 0.000000
0.077037 0.047407 0.000000
0.011852 0.002963 0.000000
[...]
POINT_DATA 4677
SCALARS UX float 1
LOOKUP_TABLE default
-0.000000
0.000000
0.059094
0.027151
0.010980
0.012152
-0.012622
0.044099
-0.021453
0.058522
-0.000000
-0.000000
-0.000000
-0.000000
-0.000000
-0.000000
-0.000000
-0.000000
-0.000000
-0.000000
-0.000000
-0.000000
-0.000000
0.000000
0.000000
0.000000
0.000000
0.000000
0.000000
0.000000
0.000000
0.000000
0.000000
0.000000
0.000000
-0.000000
0.003138
0.004861
0.006182
0.007381
0.008534
0.009733
0.011000
0.012325
0.013695
0.015116
0.016552
0.018071
0.019691
0.021503
0.023051
0.024858
0.025937
0.026544
0.027533
0.028696
0.030518
0.032493
0.036485
0.041986
0.050520
0.055124
0.056596
0.057168
0.057371
0.057825
0.057734
0.057495
0.057575
0.057802
0.058378
0.058783
0.059022
0.059267
0.059520
0.059554
0.059656
0.058828
0.058708
0.058102
0.056957
0.057149
0.057450
0.057577
0.057651
0.057850
0.057874
0.057948
0.058607
0.058216
0.056438
0.055450
0.054226
0.052627
0.051415
0.049965
0.048479
0.047495
0.046303
0.045254
0.044078
0.042988
0.041741
0.040742
0.039835
0.039084
0.038079
0.036648
0.035786
0.034457
0.033603
0.032242
0.030829
0.029847
0.028231
0.026718
0.026152
0.025728
0.025521
0.024746
0.023304
0.021250
0.018920
0.013906
0.009194
0.004601
0.000506
-0.001953
-0.003459
-0.004047
-0.003802
-0.004145
-0.004508
-0.004823
-0.005300
-0.005592
-0.008075
-0.010710
-0.014216
-0.017815
-0.020779
-0.021923
-0.021647
-0.022166
-0.021999
-0.021738
-0.022011
-0.021978
-0.021825
-0.021641
-0.021726
-0.021746
-0.021539
-0.021148
-0.020693
-0.019761
-0.018082
-0.016819
-0.015862
-0.015431
-0.014562
-0.013551
-0.012550
-0.011505
-0.010409
-0.009317
-0.008124
-0.005319
0.009914
0.009498
0.008791
0.007356
0.005651
0.003667
0.004560
0.003898
0.004277
0.003407
0.002129
0.000592
-0.000903
-0.002535
-0.004261
-0.006318
-0.008136
-0.009973
-0.010856
-0.010315
-0.010828
-0.012024
0.012820
0.013207
0.013953
0.015338
0.016225
0.017107
0.017606
0.021272
0.023483
0.025804
0.026583
0.026805
0.027545
0.030175
0.031070
0.035205
0.035975
0.038518
0.039850
0.040906
0.041337
0.042835
0.011731
0.011172
0.011671
0.011928
0.011945
0.012033
0.012053
0.012019
0.011954
0.011919
0.011926
0.011959
0.011806
0.011717
0.011647
0.011617
0.011518
0.011541
0.011326
0.011284
0.011220
0.011232
0.011177
0.011208
0.011063
0.010735
-0.012805
-0.013415
-0.013450
-0.013649
-0.013851
-0.014049
-0.014239
-0.014415
-0.014603
-0.014794
-0.014969
-0.015203
-0.015404
-0.015646
-0.015854
-0.015992
-0.016194
-0.016363
-0.016536
-0.016714
-0.016901
-0.017086
-0.017290
-0.017451
-0.017621
-0.017802
-0.017952
-0.018140
-0.018322
-0.018509
-0.018676
-0.018861
-0.019044
-0.019221
-0.019423
-0.019603
-0.019795
-0.019955
-0.020142
-0.020320
-0.020480
-0.020669
-0.020823
-0.021001
-0.021176
-0.021324
0.044910
0.045333
0.045697
0.046014
0.046332
0.046681
0.047043
0.047312
0.047610
0.047915
0.048206
0.048471
0.048803
0.049059
0.049385
0.049661
0.049957
0.050249
0.050427
0.050707
0.050997
0.051293
0.051573
0.051783
0.052068
0.052377
0.052658
0.052955
0.053230
0.053556
0.053809
0.054137
0.054496
0.054744
0.055037
0.055330
0.055604
0.055894
0.056165
0.056449
0.056715
0.056994
0.057232
0.057491
0.057739
0.057989
0.058247
0.012259
0.040167
0.000023
0.018552
0.000757
0.026826
-0.002951
-0.003640
0.056189
-0.015574
0.038432
-0.015673
0.021998
0.010562
0.047729
-0.000207
0.054009
-0.020242
0.055703
0.033812
0.000273
0.056059
-0.012366
-0.000718
-0.020716
-0.009025
0.051817
0.026606
0.005787
0.056129
0.057844
-0.020187
0.055931
-0.020691
0.023840
-0.001179
0.054675
0.029223
0.000808
-0.020630
0.056460
0.055037
0.042413
0.044519
-0.000307
0.013019
0.013415
0.036061
0.000180
0.057293
0.057377
-0.019340
0.012313
0.057559
-0.018155
-0.020902
-0.020155
0.055071
-0.008021
-0.018683
0.029795
0.046179
0.025082
-0.003064
0.056916
-0.002183
-0.014988
-0.014141
0.020368
0.038620
0.055275
0.000111
-0.000023
0.008251
0.014991
-0.000090
-0.011228
-0.000423
0.049119
0.045778
0.025075
0.008082
-0.007916
-0.001524
-0.005821
0.031407
0.000463
0.056233
-0.002385
-0.002670
0.027423
0.002996
0.027833
0.001220
0.057895
0.011568
-0.021044
-0.021163
0.057681
0.011988
-0.000088
0.017390
0.038713
-0.013744
-0.015122
0.056017
0.045196
0.017429
0.053063
-0.000829
-0.018391
-0.009818
-0.020170
0.051319
0.055593
0.047074
-0.007696
-0.002755
-0.004735
0.054319
0.028694
0.001732
0.058173
-0.020843
0.056459
-0.020757
0.056279
-0.020645
-0.021379
0.055708
0.057304
-0.017062
0.058262
-0.020172
0.051474
-0.011289
-0.005782
0.032504
0.028512
-0.003200
-0.002990
0.026049
-0.002515
0.024803
0.055660
0.022111
-0.001168
0.041145
0.004425
0.016677
0.039253
0.000071
0.043608
-0.013326
0.037406
0.000144
-0.000147
0.055558
0.017706
0.011953
0.046769
-0.000260
0.035056
0.000220
-0.010180
-0.000506
0.050446
0.023598
0.009257
-0.000920
0.025927
0.006934
0.053368
0.055836
0.032863
0.000343
0.055648
0.056364
0.030295
0.000621
0.027190
0.004505
-0.021247
0.058204
0.057673
-0.019980
-0.020904
0.013135
0.011044
0.057530
-0.020973
0.056048
-0.017926
0.013461
0.013590
0.014046
0.026482
-0.003898
-0.001209
0.054353
-0.017596
0.038753
0.034299
-0.019350
0.000298
0.010261
0.054826
0.025992
0.032068
0.055091
0.005385
0.027485
0.000769
0.057554
-0.020761
0.054109
0.024735
-0.001051
0.023601
0.001293
0.043005
0.020743
0.049841
-0.001310
-0.002184
0.028292
0.052541
0.054677
-0.020992
0.057930
-0.019917
0.057141
0.050573
-0.019806
0.054732
-0.017709
-0.020453
0.054723
0.053001
-0.001730
0.056755
-0.015567
-0.016655
-0.019154
0.030707
0.033895
-0.009078
0.015433
-0.000330
-0.000199
-0.013050
0.021216
0.019544
0.000135
0.000034
-0.012469
0.053446
0.043944
0.036731
0.046136
0.008568
0.013373
0.053549
0.053895
0.053101
0.040690
-0.012070
-0.000540
0.048521
-0.008772
-0.000947
0.007657
0.000475
-0.010956
-0.006264
-0.003671
0.055096
0.029825
0.001224
0.002985
-0.014567
0.011259
0.012852
0.057364
-0.020638
-0.021051
0.058570
-0.021363
0.057737
0.011017
0.013718
0.013228
0.013464
0.012530
-0.000309
0.017836
0.029263
-0.006762
0.042400
0.012931
-0.013064
0.051413
0.050772
-0.000949
0.045608
-0.010531
-0.008652
-0.003080
-0.020374
0.057035
0.052625
0.014597
-0.018952
0.013872
0.000015
0.051442
-0.001529
0.047954
0.052431
0.020963
0.029514
0.002025
0.013400
-0.019326
0.054649
-0.014801
-0.019908
-0.001589
-0.018118
-0.005976
-0.002493
0.011888
0.027373
0.056247
0.025226
-0.001259
0.023821
0.044603
-0.000539
0.053996
0.054655
-0.009290
0.041830
-0.000426
0.037900
0.024705
0.022622
0.000218
0.035570
-0.011551
0.043532
0.013856
0.004020
0.000381
0.033182
0.053767
0.008882
-0.007690
-0.005262
0.006500
0.052970
0.051201
-0.001701
0.026903
0.000595
0.039688
0.031016
0.027828
0.053516
0.004213
0.000965
-0.016945
0.053925
-0.018411
0.010883
-0.020638
0.011607
0.013803
0.057034
-0.020186
0.057218
0.010948
0.014629
0.057126
-0.020809
-0.020528
0.057334
0.057438
0.014396
0.014701
0.014413
-0.020518
-0.019079
0.012003
0.015401
0.023838
-0.000204
-0.004018
-0.013149
0.052480
0.041768
-0.017265
-0.017436
0.036267
0.053301
0.027315
0.000473
0.008659
-0.010033
-0.019301
0.032754
0.000116
0.000961
0.005073
0.022360
-0.000459
0.056588
0.040318
0.002393
0.008254
0.052079
-0.007551
-0.002442
0.002984
0.030834
0.033980
-0.019587
0.055004
0.051627
-0.018492
-0.001797
-0.011415
-0.003958
-0.000696
0.026344
0.011843
-0.000188
0.019432
0.041572
-0.000155
-0.015902
0.052919
0.051381
-0.016122
0.053454
0.048185
0.044701
0.021821
0.051651
-0.012339
0.023780
0.034989
-0.001225
0.015937
-0.009587
0.046864
-0.001975
0.027071
0.000611
0.038130
0.049297
0.051923
0.017018
0.007309
-0.006423
0.052737
-0.003864
0.000185
0.028201
0.029130
0.001202
0.001522
-0.016378
0.013549
0.014324
0.014456
-0.020339
-0.020310
0.056906
0.056714
0.010773
-0.020177
0.010918
0.056325
-0.019546
0.014885
0.055959
0.052014
0.052107
0.040365
-0.018396
-0.020059
0.012789
0.014800
0.056880
0.011227
0.016098
0.015538
0.024084
0.012089
-0.000222
0.044616
-0.016321
0.049952
0.053209
0.051440
0.045111
0.023666
0.035576
-0.001413
-0.018968
0.050113
0.000674
0.007537
0.056312
0.047509
0.028421
0.030207
0.015327
-0.010684
0.010778
0.051026
0.027163
-0.002862
0.001364
-0.008583
-0.005151
0.002194
0.014116
0.054917
-0.002329
0.023429
0.013140
-0.012004
-0.000765
-0.000743
0.020784
0.024771
0.040708
0.051631
0.000052
0.016241
0.000636
0.000029
0.004509
0.049875
0.043922
-0.016237
0.052816
0.050488
-0.018463
0.034765
0.000329
0.050297
-0.006579
-0.009396
-0.015593
0.017028
0.011969
-0.006415
0.039095
0.051145
0.033834
0.006137
-0.001713
0.050567
0.000765
0.025972
0.043080
-0.003440
0.050461
0.037195
0.004030
0.028774
0.031859
0.010151
0.056153
-0.019979
0.012936
-0.019030
-0.019545
0.014972
0.014952
0.010683
0.010754
0.010607
0.011084
-0.017536
0.013377
0.016214
0.017783
-0.000676
-0.017871
-0.013931
-0.019912
0.050190
0.023803
0.056809
0.053974
0.045222
-0.019955
-0.020387
0.056028
0.014549
0.056631
-0.020320
-0.014381
0.056626
0.056391
0.015466
0.012415
0.016094
0.001257
-0.002193
0.050791
0.040273
0.017073
-0.015729
-0.000212
-0.011846
0.009033
-0.016549
0.053483
-0.001835
0.049706
-0.009159
0.048329
0.043664
-0.018983
-0.018633
0.033274
0.056093
0.022825
0.049192
0.020254
0.038520
0.014187
0.048609
0.002275
-0.007292
0.036514
0.000459
-0.003584
0.050102
0.004774
-0.017581
0.001100
0.027390
0.002988
0.029708
0.010300
0.018057
0.000342
-0.014052
-0.008803
-0.014161
0.022129
0.023416
-0.000648
-0.015270
0.009594
0.047538
-0.000495
-0.018837
0.025460
0.006887
0.000242
-0.001045
-0.019672
0.020988
0.039468
0.049996
0.056490
0.042534
-0.002264
-0.005319
0.048774
0.029150
0.017766
0.046485
0.000871
0.025811
0.005838
0.050779
0.013705
0.029173
0.055635
0.039617
0.034398
0.001703
-0.004282
0.055858
0.031121
-0.019531
0.052282
0.056078
0.055631
0.011226
0.019740
-0.019426
-0.020098
0.049900
-0.018261
0.014664
0.051962
0.016317
0.014515
0.010447
0.015765
0.011377
0.010535
-0.000370
0.016474
0.056376
0.014495
0.016488
0.056285
-0.020184
-0.013033
-0.020142
0.055870
0.015317
-0.019772
0.049807
-0.011530
0.015121
0.011784
0.048008
0.016812
0.021176
0.024644
-0.000531
-0.013802
0.040190
-0.017302
0.000612
0.042879
0.035779
0.025707
0.004879
0.015644
0.015220
0.001184
-0.019059
-0.019482
0.000651
-0.009516
0.007347
-0.011749
0.012451
0.045877
0.016097
0.028537
-0.002875
0.048412
0.048570
0.030271
0.033829
0.010058
0.000586
0.001047
0.017749
0.001754
-0.010841
-0.000719
-0.001358
0.056192
0.021244
-0.018249
-0.017665
0.047581
0.013514
-0.020119
0.039091
0.015911
-0.015143
0.022338
-0.018387
0.037489
0.018985
-0.008452
-0.011566
0.048463
-0.002242
0.021460
0.048987
-0.019610
-0.019178
-0.004085
0.051192
0.050463
-0.004369
-0.016570
0.041388
-0.006381
0.027428
0.044871
0.013795
0.009571
0.030702
0.049714
0.002301
0.003917
0.056085
0.032071
0.028717
0.001475
0.004510
0.048704
0.052508
0.000054
0.013747
0.055440
0.053763
0.019687
-0.019838
0.051600
0.048748
0.055790
-0.019431
0.015955
0.011205
0.010156
0.010235
-0.014718
0.021810
0.010590
-0.018506
0.015182
0.055481
0.054622
-0.019923
0.016283
0.022612
0.048503
0.001542
0.016278
-0.000491
0.055537
0.015543
0.055280
0.017076
-0.019338
0.046839
0.016403
0.012934
0.016652
-0.013697
-0.001882
-0.000479
-0.014785
0.007485
0.047205
-0.017268
0.051632
0.046994
-0.002875
0.027355
-0.008187
0.002060
0.039277
-0.018652
-0.018609
0.055405
-0.019247
0.047264
0.004887
-0.010991
0.001535
0.015953
0.036590
0.000308
0.048079
-0.006053
0.003925
0.031129
0.020634
0.009830
-0.017988
0.055250
0.050251
-0.019268
0.016292
0.005912
-0.012833
-0.016331
0.025994
0.043947
0.007620
0.017331
0.044613
0.037753
-0.016543
-0.007175
-0.004396
0.023554
-0.001035
0.033696
0.021388
0.021682
0.000311
0.003052
0.047170
-0.006219
0.000898
0.032636
0.002711
0.041950
0.001823
0.034917
-0.019711
-0.005219
0.011334
-0.010611
0.052562
0.001368
0.001024
-0.001774
0.028473
0.031650
0.029621
0.048445
-0.015591
0.024134
0.051593
0.021422
0.000183
0.053490
0.047650
0.016604
0.012957
0.010073
0.018695
0.014508
0.009916
0.013034
0.053631
0.020318
0.054553
0.010532
0.055264
0.054977
0.016805
0.010826
0.055679
-0.000214
-0.017652
0.011196
0.024231
-0.019513
-0.020422
0.000817
0.056141
0.016989
0.002938
0.015037
-0.019205
-0.019834
-0.010404
0.049929
0.016546
-0.019151
0.017301
-0.018000
0.055679
0.055138
0.012240
0.009689
0.016746
0.017462
0.020480
0.003041
-0.000378
0.033860
-0.000743
0.021019
0.052574
0.051834
-0.018203
0.041456
-0.017122
0.036123
0.028848
0.034242
0.015020
0.022303
-0.018719
-0.006937
0.044694
0.004965
-0.008646
0.018070
0.015583
0.011278
0.004780
0.017073
0.001457
-0.005267
0.000452
0.003072
0.032142
0.030403
0.001174
0.026413
0.055179
0.019742
-0.001286
-0.009980
0.054912
0.024814
0.046855
0.042550
0.020066
0.050804
0.049109
0.006361
-0.018872
0.041031
0.021685
-0.012821
-0.018161
-0.003680
-0.014094
-0.016928
0.054908
0.000791
-0.019433
-0.003568
0.000096
0.047669
-0.008638
0.001904
0.047143
-0.018924
0.029620
-0.015588
0.053527
0.002002
0.017439
0.038575
0.024570
0.011034
0.007993
0.042541
0.000455
-0.002185
-0.012565
-0.010595
0.046592
0.002374
0.047325
0.013898
0.012904
0.050800
0.003005
0.050109
-0.019474
-0.019173
0.010555
0.009678
0.047300
0.017623
0.020002
0.010101
-0.000837
0.055008
0.053528
0.022266
-0.019215
0.054451
0.009645
-0.017359
0.017203
0.001622
0.011162
0.055202
0.016747
0.047973
0.014469
-0.017170
0.017480
-0.019054
0.056082
0.054702
0.011183
0.026896
-0.015314
-0.020438
0.021385
0.055207
-0.011541
0.007894
0.045452
0.011602
-0.011299
0.018209
0.017355
0.000841
-0.013902
-0.013130
0.041042
0.050892
0.006528
0.047627
-0.017634
0.050040
0.045807
0.013873
0.002395
-0.002128
0.055026
0.018005
0.007987
0.009682
-0.015642
0.037922
0.001365
-0.018854
0.016242
0.014743
0.001488
0.000170
0.002532
-0.007457
-0.019436
0.002279
0.016245
0.016345
0.046151
0.003597
0.054693
-0.003945
-0.008435
-0.016513
0.054747
-0.018457
0.020788
0.035670
-0.012556
-0.005776
0.037480
0.046504
-0.006058
-0.010347
-0.001658
0.049346
0.048503
-0.000315
0.003691
0.031552
0.011132
0.054347
0.022946
0.033414
0.027999
0.052605
0.000809
0.043484
0.035176
0.052692
0.019182
0.009575
-0.009759
-0.002618
0.005928
0.046345
0.029839
0.040347
0.019986
0.024442
0.046998
-0.018923
0.009477
0.002304
-0.001103
-0.020045
0.010566
0.016904
0.017731
0.019041
0.021690
0.010293
-0.018904
-0.018883
0.009431
0.055426
0.004213
0.013502
0.025937
-0.016350
0.009942
0.017962
0.046268
0.054558
0.045685
-0.009559
-0.018677
0.014878
0.054455
0.030184
0.020934
0.054607
0.016981
0.017893
0.012465
0.054426
-0.004537
0.001907
0.020578
0.011239
0.046040
-0.018258
-0.017693
0.051097
0.011338
0.029225
-0.010126
0.019504
0.017826
0.018675
0.044900
0.016028
0.002997
0.036843
0.023734
0.049583
-0.016893
-0.000267
0.029144
0.005104
0.052583
0.044798
0.014794
0.051341
-0.002372
-0.006575
0.003468
-0.017308
0.018420
0.054498
0.046263
-0.017850
-0.000316
0.019024
0.039977
-0.018681
0.034632
0.032430
0.007665
0.001048
0.002921
-0.009131
0.054664
0.024324
0.018490
0.045068
-0.005435
0.054103
0.009841
0.049559
0.047692
-0.014359
-0.010611
-0.017941
0.005128
0.014113
0.038674
-0.019463
-0.003302
0.050357
-0.018598
0.003304
0.002570
0.035897
0.001944
0.046882
-0.000839
0.012932
0.012673
0.024619
0.055269
0.045963
0.030752
0.029306
0.051537
0.026672
-0.016179
-0.003337
0.042227
0.009181
0.000605
0.001346
0.019147
0.036937
0.004080
0.005848
0.029973
0.045798
-0.005989
0.021060
-0.012934
0.045336
-0.001511
0.044512
-0.009752
0.013339
0.016802
0.018481
0.045993
0.015403
0.017440
0.053569
0.016325
0.010542
0.010688
0.009199
0.009800
0.009290
-0.019088
0.054321
0.054046
0.010601
0.018457
0.020675
-0.011184
0.018298
-0.015504
0.024512
0.009315
0.045515
0.054195
-0.018392
0.012689
-0.004981
-0.018805
0.048877
0.028445
0.031663
0.054423
0.010775
-0.014950
0.019188
-0.018594
-0.016766
-0.018634
0.018781
-0.019854
0.020137
0.017444
0.021992
0.010948
0.018950
-0.009975
0.000734
0.018183
0.003639
0.015485
-0.014223
0.048214
-0.013066
0.046560
-0.000825
-0.015909
0.049230
0.039596
0.050598
0.030053
-0.016672
0.004469
0.036376
0.054084
-0.005634
0.053470
0.001285
0.044658
0.053875
0.002508
0.030708
-0.017968
0.013324
0.028190
-0.018575
0.020823
-0.001287
0.009688
0.016337
0.017061
0.014104
0.043974
-0.018573
0.019820
-0.002626
0.030734
0.003966
0.013258
0.043953
0.054127
0.034912
-0.015978
-0.003822
0.031475
-0.001481
-0.003188
0.050230
0.045344
0.026594
0.033496
0.031656
0.018770
0.040944
0.005929
0.008795
0.002071
0.001601
-0.011621
0.052039
0.037326
0.020912
-0.001890
0.004733
0.003105
0.018462
0.021001
-0.009514
-0.007191
0.021904
0.004594
0.044731
-0.018253
-0.018445
0.007858
0.015565
0.045093
-0.015430
-0.014880
0.044245
0.017765
-0.008206
0.000256
-0.008886
0.003407
0.009000
0.014267
0.052766
0.017338
0.011274
0.031192
-0.004634
0.026427
0.015632
0.043037
0.018953
0.020510
0.018100
0.009727
0.053773
0.009053
0.020022
0.010050
0.022516
0.054544
0.053517
0.019189
0.009308
0.048780
0.054118
-0.018829
0.053787
0.011961
0.039162
-0.019091
-0.012812
0.012949
0.015688
0.023003
0.027414
0.053835
0.019791
0.049685
0.004719
-0.017448
0.009395
-0.018474
-0.005396
-0.018472
0.044974
-0.007815
-0.017411
-0.018259
0.045997
0.019472
0.016330
0.012289
0.018111
0.044618
0.001572
0.018744
-0.013129
0.033454
0.048714
0.023748
0.040119
-0.014809
0.004532
0.052709
0.048710
0.036559
0.051462
-0.006351
0.011484
-0.005257
0.008917
0.013667
0.004146
0.003142
0.052911
-0.010488
0.006246
-0.002160
0.009137
0.020006
-0.017081
0.024565
-0.011389
-0.017587
0.043676
0.016271
0.017762
0.004079
0.038557
0.054056
0.020253
0.042694
0.043718
0.010352
0.004008
0.049968
-0.000318
-0.015036
0.053877
0.005171
-0.001242
-0.004053
0.015633
0.032603
0.033618
-0.016232
0.035414
0.043602
0.001838
0.025966
-0.018231
0.029281
0.018068
0.019444
0.043827
0.002227
0.003295
0.049576
-0.005174
0.046515
0.047846
0.019995
0.007215
0.021692
0.024738
0.044302
0.011018
0.000752
0.017071
0.026880
0.003895
-0.002705
-0.008977
-0.009289
0.054104
0.043769
0.030782
-0.009793
-0.000258
0.044160
-0.008070
0.028128
0.044898
0.015070
0.051894
0.034046
0.009463
0.016784
0.014715
0.041857
0.020822
0.008895
0.017546
-0.018834
-0.018326
-0.014198
0.009325
0.011104
0.019985
0.031381
0.021428
0.011330
0.053531
0.008945
0.045036
0.053340
0.019539
0.014263
-0.011477
0.009404
-0.016822
-0.017124
0.038334
0.020641
-0.017833
0.053654
0.053383
0.053681
0.053495
-0.018046
0.005667
-0.018107
0.012367
0.024652
-0.018257
-0.018350
0.050833
0.015705
-0.010278
0.045095
0.027248
-0.013963
0.022252
0.030348
-0.011725
0.046978
0.036010
0.051986
-0.002267
0.003351
0.030352
-0.016254
0.050256
0.051007
0.042512
0.053474
0.053244
0.005460
0.008096
-0.007128
0.018674
0.042168
0.007000
-0.000840
0.052901
0.000913
0.002386
-0.017845
0.016752
0.020358
-0.016884
-0.005455
-0.004853
0.008872
0.018726
0.015134
0.012510
0.017636
-0.017682
0.028520
0.031640
0.047253
0.042833
0.040732
-0.015320
0.048077
-0.001446
0.052239
-0.018051
0.002353
0.014461
0.036555
0.049198
0.005560
0.018587
0.045187
0.004387
0.053174
0.002823
0.050788
0.000305
0.053081
0.020711
0.049456
0.034283
0.023508
-0.011907
0.023452
-0.008721
0.031226
-0.007908
-0.006652
0.003555
-0.009452
-0.018172
0.043055
0.044013
-0.009171
-0.003518
0.026572
0.017518
0.053540
0.039188
0.019250
0.015771
0.013063
0.052983
0.044063
0.019721
0.008690
0.009924
0.012645
0.013779
0.033634
-0.014154
0.028981
0.016783
-0.016148
0.017271
0.049069
0.003728
0.018202
0.008670
0.009076
0.052675
0.004201
-0.018576
0.019658
0.021725
0.037658
0.022109
0.006725
0.053607
0.008915
-0.007329
-0.017415
0.009585
0.001038
0.011028
0.032297
-0.017308
0.021145
-0.017911
-0.018091
0.053442
0.053184
0.042648
-0.011680
0.011673
0.010679
0.025421
0.014955
0.025378
0.003526
0.041658
0.043790
-0.018066
-0.008683
0.017324
0.011015
-0.012553
0.045692
0.006680
-0.014140
0.045720
0.000498
0.048115
-0.016448
0.039590
0.034165
0.048826
0.051967
0.031752
0.015162
-0.005743
-0.017479
0.050475
-0.004455
0.041672
0.019250
0.013376
-0.017827
0.027009
0.028162
0.016419
0.037080
0.002830
0.043002
-0.002754
0.031935
0.017173
0.017957
0.033749
-0.009745
0.020616
-0.002953
-0.016992
0.014672
0.049702
-0.010740
0.023858
0.028921
-0.017418