# vtk DataFile Version 2.0
Test
ASCII
DATASET POLYDATA
POINTS 4677 float
0.000000 0.000000 0.000000
0.080000 0.000000 0.000000
0.080000 0.160000 0.000000
0.000000 0.160000 0.000000
0.036000 0.073072 0.000000
0.044000 0.086928 0.000000
0.024500 0.065566 0.000000
0.055500 0.093560 0.000000
0.001000 0.050000 0.000000
0.079000 0.110000 0.000000
0.002963 0.000000 0.000000
0.005926 0.000000 0.000000
0.008889 0.000000 0.000000
0.011852 0.000000 0.000000
0.014815 0.000000 0.000000
0.017778 0.000000 0.000000
0.020741 0.000000 0.000000
0.023704 0.000000 0.000000
0.026667 0.000000 0.000000
0.029630 0.000000 0.000000
0.032593 0.000000 0.000000
0.035556 0.000000 0.000000
0.038519 0.000000 0.000000
0.041481 0.000000 0.000000
0.044444 0.000000 0.000000
0.047407 0.000000 0.000000
0.050370 0.000000 0.000000
0.053333 0.000000 0.000000
0.056296 0.000000 0.000000
0.059259 0.000000 0.000000
0.062222 0.000000 0.000000
0.065185 0.000000 0.000000
0.068148 0.000000 0.000000
0.071111 0.000000 0.000000
0.074074 0.000000 0.000000
0.077037 0.000000 0.000000
0.080000 0.002963 0.000000
0.080000 0.005926 0.000000
0.080000 0.008889 0.000000
0.080000 0.011852 0.000000
0.080000 0.014815 0.000000
0.080000 0.017778 0.000000
0.080000 0.020741 0.000000
0.080000 0.023704 0.000000
0.080000 0.026667 0.000000
0.080000 0.029630 0.000000
0.080000 0.032593 0.000000
0.080000 0.035556 0.000000
0.080000 0.038519 0.000000
0.080000 0.041481 0.000000
0.080000 0.044444 0.000000
0.080000 0.047407 0.000000
0.080000 0.050370 0.000000
0.080000 0.053333 0.000000
0.080000 0.056296 0.000000
0.080000 0.059259 0.000000
0.080000 0.062222 0.000000
0.080000 0.065185 0.000000
0.080000 0.068148 0.000000
0.080000 0.071111 0.000000
0.080000 0.074074 0.000000
0.080000 0.077037 0.000000
0.080000 0.080000 0.000000
0.080000 0.082963 0.000000
0.080000 0.085926 0.000000
0.080000 0.088889 0.000000
0.080000 0.091852 0.000000
0.080000 0.094815 0.000000
0.080000 0.097778 0.000000
0.080000 0.100741 0.000000
0.080000 0.103704 0.000000
0.080000 0.106667 0.000000
0.080000 0.109630 0.000000
0.080000 0.112593 0.000000
0.080000 0.115556 0.000000
0.080000 0.118519 0.000000
0.080000 0.121481 0.000000
0.080000 0.124444 0.000000
0.080000 0.127407 0.000000
0.080000 0.130370 0.000000
0.080000 0.133333 0.000000
0.080000 0.136296 0.000000
0.080000 0.139259 0.000000
0.080000 0.142222 0.000000
0.080000 0.145185 0.000000
0.080000 0.148148 0.000000
0.080000 0.151111 0.000000
0.080000 0.154074 0.000000
0.080000 0.157037 0.000000
0.077037 0.160000 0.000000
0.074074 0.160000 0.000000
0.071111 0.160000 0.000000
0.068148 0.160000 0.000000
0.065185 0.160000 0.000000
0.062222 0.160000 0.000000
0.059259 0.160000 0.000000
0.056296 0.160000 0.000000
0.053333 0.160000 0.000000
0.050370 0.160000 0.000000
0.047407 0.160000 0.000000
0.044444 0.160000 0.000000
0.041481 0.160000 0.000000
0.038519 0.160000 0.000000
0.035556 0.160000 0.000000
0.032593 0.160000 0.000000
0.029630 0.160000 0.000000
0.026667 0.160000 0.000000
0.023704 0.160000 0.000000
0.020741 0.160000 0.000000
0.017778 0.160000 0.000000
0.014815 0.160000 0.000000
0.011852 0.160000 0.000000
0.008889 0.160000 0.000000
0.005926 0.160000 0.000000
0.002963 0.160000 0.000000
0.000000 0.157037 0.000000
0.000000 0.154074 0.000000
0.000000 0.151111 0.000000
0.000000 0.148148 0.000000
0.000000 0.145185 0.000000
0.000000 0.142222 0.000000
0.000000 0.139259 0.000000
0.000000 0.136296 0.000000
0.000000 0.133333 0.000000
0.000000 0.130370 0.000000
0.000000 0.127407 0.000000
0.000000 0.124444 0.000000
0.000000 0.121481 0.000000
0.000000 0.118519 0.000000
0.000000 0.115556 0.000000
0.000000 0.112593 0.000000
0.000000 0.109630 0.000000
0.000000 0.106667 0.000000
0.000000 0.103704 0.000000
0.000000 0.100741 0.000000
0.000000 0.097778 0.000000
0.000000 0.094815 0.000000
0.000000 0.091852 0.000000
0.000000 0.088889 0.000000
0.000000 0.085926 0.000000
0.000000 0.082963 0.000000
0.000000 0.080000 0.000000
0.000000 0.077037 0.000000
0.000000 0.074074 0.000000
0.000000 0.071111 0.000000
0.000000 0.068148 0.000000
0.000000 0.065185 0.000000
0.000000 0.062222 0.000000
0.000000 0.059259 0.000000
0.000000 0.056296 0.000000
0.000000 0.053333 0.000000
0.000000 0.050370 0.000000
0.000000 0.047407 0.000000
0.000000 0.044444 0.000000
0.000000 0.041481 0.000000
0.000000 0.038519 0.000000
0.000000 0.035556 0.000000
0.000000 0.032593 0.000000
0.000000 0.029630 0.000000
0.000000 0.026667 0.000000
0.000000 0.023704 0.000000
0.000000 0.020741 0.000000
0.000000 0.017778 0.000000
0.000000 0.014815 0.000000
0.000000 0.011852 0.000000
0.000000 0.008889 0.000000
0.000000 0.005926 0.000000
0.000000 0.002963 0.000000
0.035500 0.072746 0.000000
0.035000 0.072419 0.000000
0.034500 0.072093 0.000000
0.034000 0.071767 0.000000
0.033500 0.071440 0.000000
0.033000 0.071114 0.000000
0.032500 0.070788 0.000000
0.032000 0.070461 0.000000
0.031500 0.070135 0.000000
0.031000 0.069809 0.000000
0.030500 0.069482 0.000000
0.030000 0.069156 0.000000
0.029500 0.068829 0.000000
0.029000 0.068503 0.000000
0.028500 0.068177 0.000000
0.028000 0.067850 0.000000
0.027500 0.067524 0.000000
0.027000 0.067198 0.000000
0.026500 0.066871 0.000000
0.026000 0.066545 0.000000
0.025500 0.066219 0.000000
0.025000 0.065892 0.000000
0.044500 0.087216 0.000000
0.045000 0.087505 0.000000
0.045500 0.087793 0.000000
0.046000 0.088081 0.000000
0.046500 0.088370 0.000000
0.047000 0.088658 0.000000
0.047500 0.088946 0.000000
0.048000 0.089235 0.000000
0.048500 0.089523 0.000000
0.049000 0.089811 0.000000
0.049500 0.090100 0.000000
0.050000 0.090388 0.000000
0.050500 0.090677 0.000000
0.051000 0.090965 0.000000
0.051500 0.091253 0.000000
0.052000 0.091542 0.000000
0.052500 0.091830 0.000000
0.053000 0.092118 0.000000
0.053500 0.092407 0.000000
0.054000 0.092695 0.000000
0.054500 0.092983 0.000000
0.055000 0.093272 0.000000
0.043704 0.086415 0.000000
0.043407 0.085902 0.000000
0.043111 0.085388 0.000000
0.042815 0.084875 0.000000
0.042519 0.084362 0.000000
0.042222 0.083849 0.000000
0.041926 0.083336 0.000000
0.041630 0.082823 0.000000
0.041333 0.082309 0.000000
0.041037 0.081796 0.000000
0.040741 0.081283 0.000000
0.040444 0.080770 0.000000
0.040148 0.080257 0.000000
0.039852 0.079743 0.000000
0.039556 0.079230 0.000000
0.039259 0.078717 0.000000
0.038963 0.078204 0.000000
0.038667 0.077691 0.000000
0.038370 0.077177 0.000000
0.038074 0.076664 0.000000
0.037778 0.076151 0.000000
0.037481 0.075638 0.000000
0.037185 0.075125 0.000000
0.036889 0.074612 0.000000
0.036593 0.074098 0.000000
0.036296 0.073585 0.000000
0.024000 0.065235 0.000000
0.023500 0.064904 0.000000
0.023000 0.064572 0.000000
0.022500 0.064241 0.000000
0.022000 0.063910 0.000000
0.021500 0.063579 0.000000
0.021000 0.063248 0.000000
0.020500 0.062916 0.000000
0.020000 0.062585 0.000000
0.019500 0.062254 0.000000
0.019000 0.061923 0.000000
0.018500 0.061592 0.000000
0.018000 0.061261 0.000000
0.017500 0.060929 0.000000
0.017000 0.060598 0.000000
0.016500 0.060267 0.000000
0.016000 0.059936 0.000000
0.015500 0.059605 0.000000
0.015000 0.059273 0.000000
0.014500 0.058942 0.000000
0.014000 0.058611 0.000000
0.013500 0.058280 0.000000
0.013000 0.057949 0.000000
0.012500 0.057617 0.000000
0.012000 0.057286 0.000000
0.011500 0.056955 0.000000
0.011000 0.056624 0.000000
0.010500 0.056293 0.000000
0.010000 0.055961 0.000000
0.009500 0.055630 0.000000
0.009000 0.055299 0.000000
0.008500 0.054968 0.000000
0.008000 0.054637 0.000000
0.007500 0.054305 0.000000
0.007000 0.053974 0.000000
0.006500 0.053643 0.000000
0.006000 0.053312 0.000000
0.005500 0.052981 0.000000
0.005000 0.052650 0.000000
0.004500 0.052318 0.000000
0.004000 0.051987 0.000000
0.003500 0.051656 0.000000
0.003000 0.051325 0.000000
0.002500 0.050994 0.000000
0.002000 0.050662 0.000000
0.001500 0.050331 0.000000
0.055990 0.093902 0.000000
0.056479 0.094245 0.000000
0.056969 0.094587 0.000000
0.057458 0.094930 0.000000
0.057948 0.095272 0.000000
0.058437 0.095615 0.000000
0.058927 0.095957 0.000000
0.059417 0.096300 0.000000
0.059906 0.096642 0.000000
0.060396 0.096985 0.000000
0.060885 0.097327 0.000000
0.061375 0.097670 0.000000
0.061865 0.098012 0.000000
0.062354 0.098355 0.000000
0.062844 0.098697 0.000000
0.063333 0.099040 0.000000
0.063823 0.099382 0.000000
0.064312 0.099725 0.000000
0.064802 0.100067 0.000000
0.065292 0.100410 0.000000
0.065781 0.100752 0.000000
0.066271 0.101095 0.000000
0.066760 0.101437 0.000000
0.067250 0.101780 0.000000
0.067740 0.102122 0.000000
0.068229 0.102465 0.000000
0.068719 0.102807 0.000000
0.069208 0.103150 0.000000
0.069698 0.103492 0.000000
0.070187 0.103835 0.000000
0.070677 0.104177 0.000000
0.071167 0.104520 0.000000
0.071656 0.104862 0.000000
0.072146 0.105205 0.000000
0.072635 0.105547 0.000000
0.073125 0.105890 0.000000
0.073615 0.106232 0.000000
0.074104 0.106575 0.000000
0.074594 0.106917 0.000000
0.075083 0.107260 0.000000
0.075573 0.107602 0.000000
0.076062 0.107945 0.000000
0.076552 0.108287 0.000000
0.077042 0.108630 0.000000
0.077531 0.108972 0.000000
0.078021 0.109315 0.000000
0.078510 0.109658 0.000000
0.043942 0.087469 0.000000
0.035556 0.157037 0.000000
0.044420 0.002920 0.000000
0.077037 0.038519 0.000000
0.002963 0.121481 0.000000
0.077037 0.059259 0.000000
0.002963 0.109630 0.000000
0.002923 0.098139 0.000000
0.077153 0.126913 0.000000
0.002808 0.032596 0.000000
0.077140 0.071061 0.000000
0.002963 0.085926 0.000000
0.002963 0.136296 0.000000
0.077041 0.023701 0.000000
0.056296 0.157037 0.000000
0.032593 0.002963 0.000000
0.077037 0.080000 0.000000
0.002813 0.077135 0.000000
0.077037 0.142222 0.000000
0.017778 0.157037 0.000000
0.062222 0.002963 0.000000
0.076992 0.088722 0.000000
0.002945 0.020743 0.000000
0.017777 0.002962 0.000000
0.002801 0.068434 0.000000
0.002959 0.011851 0.000000
0.065186 0.157038 0.000000
0.002963 0.148148 0.000000
0.077037 0.011852 0.000000
0.076887 0.094740 0.000000
0.077092 0.115875 0.000000
0.002677 0.044265 0.000000
0.077038 0.148148 0.000000
0.002985 0.062165 0.000000
0.077037 0.047407 0.000000
0.011852 0.002963 0.000000
[...]
POINT_DATA 4677
SCALARS UX float 1
LOOKUP_TABLE default
-0.000000
0.000000
0.001087
-0.001043
0.000021
-0.000026
-0.000670
0.000599
-0.001172
0.001142
-0.000000
-0.000000
-0.000000
-0.000000
-0.000000
-0.000000
-0.000000
-0.000000
-0.000000
-0.000000
-0.000000
-0.000000
-0.000000
0.000000
0.000000
0.000000
0.000000
0.000000
0.000000
0.000000
0.000000
0.000000
0.000000
0.000000
0.000000
-0.000000
0.000274
0.000432
0.000550
0.000644
0.000722
0.000786
0.000839
0.000883
0.000920
0.000950
0.000979
0.001000
0.001017
0.001032
0.001041
0.001052
0.001063
0.001073
0.001083
0.001093
0.001105
0.001117
0.001130
0.001145
0.001161
0.001178
0.001195
0.001212
0.001228
0.001242
0.001250
0.001251
0.001243
0.001230
0.001212
0.001193
0.001173
0.001156
0.001140
0.001128
0.001118
0.001110
0.001104
0.001099
0.001096
0.001093
0.001092
0.001090
0.001089
0.001088
0.001088
0.001088
0.001087
0.001006
0.000925
0.000844
0.000764
0.000684
0.000604
0.000525
0.000446
0.000367
0.000289
0.000210
0.000132
0.000055
-0.000023
-0.000101
-0.000179
-0.000256
-0.000334
-0.000412
-0.000491
-0.000569
-0.000648
-0.000727
-0.000806
-0.000885
-0.000964
-0.001043
-0.001043
-0.001042
-0.001042
-0.001041
-0.001040
-0.001040
-0.001039
-0.001038
-0.001038
-0.001038
-0.001039
-0.001040
-0.001041
-0.001044
-0.001047
-0.001052
-0.001057
-0.001063
-0.001071
-0.001081
-0.001093
-0.001107
-0.001124
-0.001144
-0.001165
-0.001192
-0.001220
-0.001248
-0.001271
-0.001289
-0.001297
-0.001291
-0.001279
-0.001257
-0.001231
-0.001202
-0.001175
-0.001148
-0.001124
-0.001101
-0.001077
-0.001051
-0.001021
-0.000987
-0.000945
-0.000897
-0.000843
-0.000771
-0.000686
-0.000588
-0.000459
-0.000294
0.000005
-0.000076
-0.000042
-0.000114
-0.000093
-0.000197
-0.000213
-0.000232
-0.000256
-0.000281
-0.000338
-0.000394
-0.000401
-0.000431
-0.000463
-0.000479
-0.000498
-0.000528
-0.000549
-0.000497
-0.000619
-0.000666
-0.000030
-0.000027
0.000075
0.000161
0.000156
0.000190
0.000162
0.000238
0.000245
0.000344
0.000279
0.000311
0.000291
0.000377
0.000376
0.000451
0.000426
0.000459
0.000468
0.000549
0.000639
0.000621
-0.000037
-0.000036
-0.000019
-0.000007
-0.000002
0.000002
0.000005
0.000005
0.000005
0.000004
0.000002
-0.000000
-0.000003
-0.000005
-0.000008
-0.000009
-0.000010
-0.000010
-0.000010
-0.000009
-0.000006
-0.000000
0.000008
0.000018
0.000030
0.000036
-0.000733
-0.000746
-0.000752
-0.000754
-0.000757
-0.000758
-0.000762
-0.000767
-0.000774
-0.000781
-0.000790
-0.000798
-0.000808
-0.000817
-0.000828
-0.000838
-0.000849
-0.000859
-0.000870
-0.000881
-0.000893
-0.000904
-0.000915
-0.000926
-0.000938
-0.000949
-0.000960
-0.000972
-0.000983
-0.000994
-0.001005
-0.001016
-0.001027
-0.001038
-0.001049
-0.001060
-0.001070
-0.001081
-0.001091
-0.001102
-0.001112
-0.001122
-0.001132
-0.001142
-0.001152
-0.001163
0.000648
0.000668
0.000678
0.000682
0.000684
0.000688
0.000693
0.000699
0.000706
0.000714
0.000723
0.000732
0.000742
0.000752
0.000762
0.000773
0.000784
0.000795
0.000806
0.000817
0.000829
0.000840
0.000852
0.000864
0.000875
0.000887
0.000899
0.000910
0.000922
0.000934
0.000945
0.000957
0.000969
0.000980
0.000992
0.001004
0.001015
0.001027
0.001038
0.001050
0.001061
0.001073
0.001084
0.001096
0.001108
0.001119
0.001131
-0.000046
-0.000101
0.000009
0.000941
-0.000959
0.001012
-0.000970
-0.000998
0.001024
-0.000982
0.001065
-0.001061
-0.000959
0.000809
0.000446
-0.000025
0.001114
-0.001146
0.001008
-0.000569
0.000064
0.001163
-0.000828
-0.000075
-0.001218
-0.000616
0.000684
-0.000962
0.000566
0.001170
0.001056
-0.001076
0.001007
-0.001219
0.000974
-0.000103
0.000844
-0.000885
0.000131
-0.001189
0.001153
0.001013
0.000055
0.000210
-0.000043
-0.000958
0.000877
-0.000412
0.000043
0.001006
0.001043
-0.001045
-0.000017
0.001034
-0.001025
-0.001203
-0.001169
0.001132
-0.001023
-0.001082
0.001035
0.001079
0.000993
-0.000984
0.001131
-0.000963
-0.000947
-0.000913
0.000952
-0.000255
0.001012
0.000026
0.000001
-0.000957
0.000902
-0.000008
-0.000768
-0.000054
0.000525
0.000289
-0.000961
0.000711
-0.000509
-0.000123
-0.000339
-0.000727
0.000091
0.001007
-0.000168
-0.000161
-0.000964
0.000340
-0.000964
0.000172
0.001104
-0.000048
-0.001136
-0.001165
0.001126
-0.000043
-0.000000
0.000864
0.001001
-0.000883
-0.001003
0.000984
0.000288
-0.000879
0.000931
-0.000088
-0.000990
-0.000695
-0.001159
0.001044
0.001066
0.000439
-0.000539
-0.000211
-0.000307
0.000926
-0.000884
0.000266
0.001089
-0.001113
0.001174
-0.001229
0.001177
-0.001199
-0.001172
0.001151
0.001035
-0.001014
0.001139
-0.001118
0.001098
-0.001039
-0.001010
0.001053
0.001025
-0.000995
-0.000977
0.001004
-0.000967
0.000985
0.001018
0.000964
-0.000961
-0.000022
-0.000959
0.000924
-0.000177
0.000017
0.000133
-0.000875
-0.000333
0.000034
-0.000016
0.001010
-0.000958
0.000846
0.000367
-0.000034
-0.000490
0.000053
-0.000698
-0.000064
0.000604
-0.000960
0.000766
-0.000088
-0.000962
0.000646
0.000764
0.001007
-0.000648
0.000076
0.000925
0.001006
-0.000806
0.000109
-0.000963
0.000467
-0.001151
0.001121
0.001097
-0.001124
-0.001131
0.000019
-0.000061
0.001137
-0.001181
0.000983
-0.000988
0.000004
0.000022
0.000046
0.000947
-0.000945
-0.000899
0.000928
-0.000944
-0.000176
-0.000490
-0.001130
0.000067
0.000770
0.001112
-0.000880
-0.000647
0.001113
0.000568
-0.000882
0.000154
0.001081
-0.001114
0.000961
0.000927
-0.000889
0.000908
-0.000883
0.000131
-0.000879
0.000604
-0.000129
-0.000179
-0.000884
0.000764
0.000925
-0.001127
0.001097
-0.001051
0.001026
0.001048
-0.001166
0.000962
-0.001046
-0.001135
0.001104
0.001061
-0.000916
0.001092
-0.000946
-0.000959
-0.001015
0.000976
0.000988
-0.000968
0.000851
-0.000033
-0.000016
-0.000851
0.000889
0.000877
0.000033
0.000016
-0.000982
0.000939
0.000211
-0.000332
0.000364
-0.000880
-0.000879
0.000929
0.000926
0.000933
-0.000025
-0.000807
-0.000067
0.000524
-0.000625
-0.000108
0.000687
0.000105
-0.000752
-0.000439
-0.000250
0.000925
-0.000805
0.000216
0.000388
-0.000904
-0.000075
-0.000006
0.001076
-0.001112
-0.001150
0.001136
-0.001160
0.001114
-0.000056
0.000016
0.000012
0.000050
-0.000024
-0.000023
0.000803
0.000914
-0.000897
0.000141
-0.000803
-0.000829
0.000863
0.000992
-0.000103
0.000373
-0.000728
-0.000621
-0.000267
-0.001088
0.001053
0.000894
0.000076
-0.001102
0.000835
0.000022
0.000853
-0.000161
0.000527
0.000845
-0.000800
-0.000805
0.000322
0.000023
-0.001146
0.001111
-0.000885
-0.001163
-0.000911
-0.001070
-0.000948
-0.000930
0.000806
0.000958
0.000985
0.000938
-0.000895
0.000918
0.000965
-0.000886
0.000946
0.001095
-0.000916
0.000049
-0.000048
-0.000252
-0.000879
0.000898
0.000049
-0.000409
-0.000773
0.000212
0.000779
-0.000881
0.000085
-0.000568
0.000928
0.000733
-0.000552
-0.000367
0.000634
0.000845
0.000684
-0.000153
-0.000881
0.000127
-0.000100
-0.000726
-0.000883
0.000844
0.000488
0.000183
-0.000936
0.000926
-0.000969
-0.000083
-0.001131
-0.000063
0.000019
0.001089
-0.001069
0.001042
-0.000045
0.000079
0.001071
-0.001135
-0.001095
0.001096
0.001064
0.000084
0.000095
0.000085
-0.001108
-0.001001
-0.000047
0.000121
0.000868
-0.000828
-0.000833
-0.000810
0.000871
0.000138
-0.001031
-0.000918
-0.000327
0.001053
-0.000801
0.000099
0.000693
-0.000698
-0.001120
-0.000568
-0.000821
0.000190
0.000557
0.000834
-0.000042
0.001006
-0.000018
-0.000807
-0.000809
0.000848
-0.000552
-0.000229
0.000415
-0.000726
0.000921
-0.001029
0.000937
0.000873
-0.001086
-0.000872
-0.000934
-0.000879
-0.000071
0.000891
0.000756
-0.000834
0.000816
0.000070
-0.000002
-0.000906
0.000902
0.000859
-0.000993
0.001045
0.000976
0.000300
0.000832
0.000851
-0.000809
-0.000801
-0.000412
-0.000132
0.000789
-0.000680
0.000449
-0.000195
0.000901
0.000126
-0.000175
0.000605
0.000764
-0.000801
0.000656
-0.000469
0.000845
-0.000313
0.000047
-0.000802
-0.000804
0.000227
0.000270
-0.000887
0.000001
0.000048
0.000127
-0.001088
-0.001095
0.001053
0.001053
-0.000080
-0.001101
-0.000091
0.001051
-0.001163
0.000064
0.000976
0.001010
0.000884
0.000957
-0.000958
-0.001061
0.000015
0.000160
0.001031
-0.000027
0.000168
0.000730
0.000823
-0.000737
-0.000003
0.000913
-0.000869
0.000798
0.000889
0.000980
0.000371
-0.000724
-0.000335
-0.000137
-0.000992
0.000774
0.000129
0.000632
0.000997
0.000528
-0.000722
-0.000725
0.000106
-0.000726
0.000690
0.000842
0.000848
-0.000254
0.000248
-0.000611
-0.000405
0.000351
0.000053
0.000938
-0.000813
0.000864
0.000033
-0.000772
-0.000066
-0.000851
0.000824
0.000876
0.000046
0.000858
-0.000828
0.000151
-0.000818
0.000030
-0.000810
0.000786
0.000280
-0.000988
0.001032
0.000828
-0.001091
0.000892
0.000072
0.000949
-0.000848
-0.000660
-0.000871
-0.000728
0.000704
-0.000486
-0.000099
0.000766
-0.000489
0.000611
-0.000173
0.000685
0.000156
-0.000800
0.000211
-0.000299
0.000770
-0.000250
0.000493
-0.000803
-0.000647
0.000725
0.001029
-0.001076
-0.000013
-0.001114
-0.001028
0.000049
0.000133
-0.000069
-0.000049
-0.000100
-0.000085
-0.000913
0.000036
0.000110
0.000129
-0.000793
-0.001059
-0.000958
-0.001084
0.000815
0.000863
0.001052
0.001081
0.001025
-0.001059
-0.001110
0.001038
0.000140
0.001027
-0.001091
-0.000844
0.001070
0.001043
0.000127
-0.000031
0.000139
-0.000759
-0.000766
0.000815
0.000072
-0.000659
-0.000962
0.000005
-0.000745
0.000617
-0.000867
0.000889
-0.000169
0.000918
-0.000639
0.000723
0.000304
-0.000993
-0.001077
-0.000489
0.000997
0.000800
0.000782
0.000756
-0.000100
0.000066
0.000699
-0.000750
-0.000541
-0.000256
0.000093
-0.000311
0.000687
0.000532
-0.001033
0.000205
-0.000722
0.000422
-0.000725
-0.000088
0.000100
-0.000781
-0.000928
-0.000866
-0.000812
0.000793
0.000806
-0.000738
-0.000838
0.000670
0.000931
-0.000036
-0.001115
0.000835
-0.000740
0.000060
-0.000102
-0.001072
-0.000725
0.000892
0.000780
0.001032
0.000213
-0.000213
-0.000422
0.000607
0.000853
0.000752
0.000452
0.000165
-0.000724
0.000577
0.000768
0.000716
-0.000724
0.001008
-0.000030
-0.000412
0.000295
-0.000348
0.001040
-0.000647
-0.001049
0.001003
0.001018
0.000966
-0.000026
0.000208
-0.001027
-0.001075
0.000807
-0.000945
0.000030
0.000990
0.000158
0.000070
-0.000099
0.000171
-0.000069
-0.000106
-0.000792
0.000077
0.001035
0.000072
0.000211
0.001060
-0.001109
-0.000783
-0.001083
0.001017
0.000165
-0.001063
0.000798
-0.000761
0.000188
-0.000053
0.000739
0.000173
0.000727
0.000779
-0.000698
-0.000781
0.000845
-0.000895
0.000115
0.000285
-0.000259
-0.000649
0.000509
0.000216
0.000101
0.000203
-0.001001
-0.001041
-0.000773
-0.000652
0.000578
-0.000722
-0.000666
0.000453
0.000684
0.000813
-0.000261
0.000615
0.000708
-0.000646
-0.000412
-0.000112
-0.000735
-0.000761
0.000080
-0.000753
-0.000712
-0.000054
-0.000128
0.001068
0.000767
-0.001072
-0.001039
0.000880
0.000043
-0.001112
-0.000024
0.000126
-0.000814
0.000758
-0.001073
-0.000174
0.000752
-0.000602
-0.000892
0.000716
-0.000213
-0.000654
0.000695
-0.001040
-0.001101
-0.000783
0.000954
0.000933
-0.000364
-0.000990
0.000142
-0.000487
-0.000647
0.000381
0.000660
0.000632
-0.000646
0.000690
0.000359
0.000484
0.001010
-0.000567
-0.000646
0.000250
-0.000738
0.000762
0.001010
0.000038
0.000012
0.000963
0.000897
0.000159
-0.001061
0.000841
0.000751
0.001004
-0.001056
0.000212
-0.000022
-0.000080
-0.000114
-0.000929
0.000247
-0.000102
-0.000961
0.000097
0.001020
0.000930
-0.001093
0.000056
0.000810
0.000754
-0.000754
0.000184
-0.000027
0.000995
0.000220
0.000997
0.000224
-0.001038
0.000697
-0.000595
0.000606
0.000246
-0.000763
-0.000718
-0.000019
-0.000913
0.000548
0.000853
-0.001015
0.000967
0.000654
-0.000250
-0.000574
-0.000580
-0.000701
0.000048
-0.001064
-0.000972
0.000978
-0.001027
0.000638
-0.000680
-0.000853
0.000236
0.000130
-0.000191
-0.000683
0.000621
-0.000802
0.000469
-0.000569
0.000718
-0.000129
-0.001035
0.000961
0.000910
-0.001018
0.000069
0.000545
-0.000754
-0.000849
0.000786
0.000353
-0.000670
0.000686
0.000873
-0.000114
-0.000977
-0.000529
-0.000365
0.000774
-0.000090
0.000830
-0.000589
0.000738
0.000073
0.000421
0.000536
-0.000478
0.000157
-0.000488
-0.000685
0.000216
0.000301
-0.000334
-0.001084
-0.000422
0.000645
-0.000681
0.000858
-0.000712
-0.000722
-0.000150
-0.000572
-0.000569
-0.000645
0.000745
-0.000819
-0.000651
0.000838
0.000745
-0.000734
0.001056
0.000724
0.000156
-0.000009
-0.000122
0.000117
0.000081
-0.000106
0.000034
0.000893
0.000215
0.000929
-0.000054
0.000987
0.000979
0.000218
-0.000089
0.001046
0.000011
-0.001028
-0.000020
0.000201
-0.001038
-0.001146
-0.000769
0.001089
0.000197
-0.000699
0.000043
-0.001041
-0.001146
-0.000702
0.000788
0.000242
-0.001028
0.000230
-0.000926
0.000984
0.001003
-0.000032
-0.000136
0.000159
0.000227
0.000682
-0.000639
-0.000659
0.000785
-0.000034
-0.000525
0.000853
0.000964
-0.000939
0.000218
-0.000997
-0.000185
-0.000500
-0.000336
0.000615
0.000722
-0.001057
-0.000506
0.000410
-0.000631
-0.000592
0.000676
0.000054
-0.000597
0.000470
0.000288
-0.000678
-0.000416
0.000091
0.000401
-0.000493
-0.000569
0.000186
-0.000578
0.001032
0.000667
-0.000106
-0.000657
0.000967
0.000748
0.000548
0.000822
0.000709
0.000925
0.000883
0.000517
-0.000992
0.000144
0.000714
-0.000867
-0.001033
-0.000315
-0.000768
-0.000993
0.000997
-0.000683
-0.001106
-0.000739
0.000048
0.000628
-0.000826
0.000289
0.000648
-0.001015
-0.000570
-0.000931
0.001051
-0.000659
0.000252
-0.000022
-0.000583
0.000590
0.000562
0.000289
-0.000643
-0.000197
-0.000729
-0.000665
0.000684
0.000352
0.000703
0.000062
0.000033
0.000811
-0.000689
0.000793
-0.001067
-0.001044
-0.000050
-0.000105
0.000687
0.000099
0.000147
-0.000119
-0.000059
0.000956
0.000894
0.000229
-0.001018
0.000928
-0.000130
-0.000993
0.000186
-0.000718
-0.000073
0.000976
0.000270
0.000734
0.000025
-0.000883
0.000208
-0.001016
0.001106
0.000971
-0.000020
0.000325
-0.000801
-0.001160
0.000297
0.001017
-0.000697
-0.000613
0.000642
-0.000054
-0.000675
0.000259
0.000187
-0.000606
-0.000752
-0.000844
0.000223
0.000808
0.000492
0.000834
-0.000905
0.000886
0.000589
0.000066
-0.000615
-0.000171
0.001042
0.000304
-0.000560
-0.000135
-0.000929
-0.000021
-0.000627
-0.001053
-0.000532
0.000037
0.000211
0.000059
0.000341
-0.000534
-0.001074
-0.000653
0.000144
0.000618
0.000565
-0.000628
0.000997
-0.000328
-0.000785
-0.000972
0.000953
-0.000963
0.000695
0.000782
-0.000717
-0.000760
-0.000092
0.000556
-0.000459
-0.000642
-0.000680
0.000767
0.000745
0.000008
0.000430
-0.000494
0.000540
0.000928
0.000725
-0.000410
-0.000507
0.001005
0.000137
0.000364
-0.000262
0.000860
0.000652
0.000575
-0.000627
-0.000223
0.000479
0.000667
-0.000491
0.000131
0.000666
-0.000520
0.000683
-0.000998
-0.000127
-0.000663
-0.000076
-0.001137
-0.000047
0.000084
0.000280
0.000125
0.000179
-0.000108
-0.001009
-0.001024
-0.000144
0.001086
-0.000624
0.000005
0.000262
-0.000844
-0.000080
0.000235
0.000676
0.000980
0.000474
-0.000638
-0.000997
0.000099
0.001091
0.000767
0.000766
0.000959
0.000274
0.000216
0.000020
0.000963
-0.000365
-0.000623
0.000243
-0.000547
0.000618
-0.001028
-0.000999
0.000931
-0.000016
0.000314
-0.000622
0.000636
0.000219
0.000266
0.000624
-0.000482
-0.000567
0.000745
0.000692
0.000769
-0.000866
0.000017
-0.000437
0.000423
0.000994
0.000550
0.000099
0.000927
-0.000189
-0.000472
-0.000592
-0.000967
0.000602
0.001003
0.000809
-0.000998
-0.000625
0.000311
0.000157
-0.000991
-0.000250
-0.000419
0.000506
0.000158
-0.000595
-0.000599
0.001045
-0.000457
0.000645
0.000489
-0.000717
0.000925
-0.000126
0.000871
0.000717
-0.000876
-0.000801
-0.000928
0.000455
0.000016
0.000047
-0.001092
-0.000698
0.000896
-0.000975
0.000379
-0.000571
-0.000160
0.000267
0.000697
-0.000037
0.000549
0.000026
0.000260
0.001106
0.000581
-0.000501
0.000722
0.000822
-0.000514
-0.000951
-0.000276
0.000296
0.000523
0.000107
-0.000593
0.000622
-0.000091
-0.000581
-0.000559
-0.000429
0.000621
-0.000445
0.000671
-0.000721
0.000630
-0.000122
0.000430
-0.000615
0.000051
0.000171
0.000284
0.000644
0.000114
0.000629
0.000897
0.000071
-0.000045
-0.000041
-0.000147
-0.000078
-0.000127
-0.001044
0.000952
0.000944
-0.000094
0.000112
0.000151
-0.000660
0.000243
-0.000802
0.000212
-0.000150
0.000491
0.000968
-0.001021
-0.000017
-0.000390
-0.000995
0.000853
0.000269
0.000272
0.000944
-0.000497
-0.000896
0.000697
-0.000996
-0.000980
-0.001007
0.000320
-0.001101
0.000651
0.000290
0.000227
-0.000078
0.000594
-0.000607
-0.000573
0.000238
-0.000519
-0.000434
-0.000755
0.000727
-0.000820
0.000789
-0.000026
-0.000934
0.000853
0.000158
0.000897
-0.000366
-0.000966
-0.000533
-0.000093
0.001000
-0.000411
0.000895
0.000176
0.000559
0.000930
0.000307
-0.000420
-0.000994
0.000055
-0.000445
-0.001022
0.000332
-0.000091
-0.000068
0.000153
0.000583
0.000545
0.000423
-0.001007
0.000314
-0.000648
0.000243
0.000399
-0.000005
0.000794
0.001057
-0.000183
-0.000822
-0.000308
-0.000432
-0.000644
-0.000248
0.000785
0.000645
-0.000451
-0.000335
0.000727
0.000608
0.000244
0.000439
0.000477
-0.000578
-0.000557
-0.000671
0.000958
-0.000016
0.000301
-0.000138
-0.000571
-0.000597
0.000580
-0.000463
-0.000590
-0.000492
0.000673
0.000409
0.000527
-0.000975
-0.000980
-0.000494
0.000130
0.000610
-0.000910
-0.000885
0.000589
0.000591
-0.000562
0.000070
-0.000572
-0.000555
-0.000147
0.000080
0.000862
0.000199
-0.000028
0.000346
-0.000358
0.000707
0.000054
0.000362
0.000273
0.000660
0.000102
-0.000075
0.000952
-0.000160
0.000139
-0.000114
0.000179
0.001069
0.001036
0.000292
-0.000150
0.000837
0.000937
-0.001027
0.000918
-0.000041
0.000098
-0.001055
-0.000708
0.000035
0.000129
0.000332
0.000227
0.000940
0.000331
0.000890
0.000442
-0.000967
-0.000110
-0.000986
-0.000413
-0.000971
0.000516
-0.000735
-0.000892
-0.000949
0.000668
0.000268
0.000530
-0.000027
0.000542
0.000621
-0.000531
0.000266
-0.000711
0.000689
0.000742
0.000654
0.000221
-0.000875
0.000372
0.000866
0.000823
-0.000026
0.000922
-0.000440
-0.000428
-0.000674
-0.000144
0.000066
-0.000501
0.000335
0.000987
-0.000624
-0.000508
-0.000148
-0.000101
0.000622
-0.000941
-0.000398
-0.000783
-0.000966
0.000572
0.000163
0.000227
0.000389
0.000092
0.001029
0.000319
0.000365
0.000461
-0.000100
-0.000541
0.000871
-0.000592
-0.000779
0.000976
-0.000522
-0.000078
-0.000315
0.000560
-0.000345
-0.000274
-0.000949
-0.000110
0.000500
0.000234
0.000211
-0.000948
-0.000382
0.000566
0.000608
0.000441
-0.000544
-0.000524
0.000866
-0.000382
0.000682
0.000814
-0.000420
0.000459
0.000640
0.000357
0.000762
0.000488
0.000121
0.000542
-0.000390
0.000356
-0.000204
-0.000563
-0.000570
0.000976
0.000492
-0.000358
-0.000754
0.000024
0.000575
-0.000541
0.000669
0.000586
0.000113
0.000831
0.000301
-0.000074
0.000182
0.000034
0.000312
0.000344
-0.000164
0.000088
-0.001036
-0.000992
-0.000857
-0.000102
-0.000029
0.000130
0.000379
0.000165
-0.000065
0.001014
-0.000166
0.000831
0.000895
0.000297
0.000083
-0.000657
-0.000143
-0.000858
-0.000990
0.000050
0.000337
-0.000922
0.000925
0.000935
0.000918
0.000924
-0.000988
0.000501
-0.000965
0.000016
0.000361
-0.000970
-0.000969
0.000894
0.000482
-0.000609
0.000639
-0.000337
-0.000736
0.000604
0.000637
-0.000767
0.000774
-0.000040
0.000837
-0.000141
0.000305
-0.000313
-0.000936
0.000868
0.000887
0.000436
0.000984
0.000907
-0.000477
-0.000446
-0.000685
-0.000379
0.000748
0.000409
-0.000025
0.000903
0.000135
0.000269
-0.000924
0.000192
0.000324
-0.000961
-0.000370
-0.000346
-0.000130
0.000569
0.000514
0.000481
0.000528
-0.000962
-0.000381
-0.000353
0.000699
0.000428
0.000267
-0.000899
0.000804
-0.000600
0.000950
-0.000979
-0.000514
0.000095
0.000701
0.000755
0.000393
0.000557
0.000744
-0.000472
0.000932
-0.000534
0.000795
0.000077
0.000888
0.000612
0.000844
-0.000172
0.000191
-0.000667
0.000361
-0.000537
-0.000296
-0.000517
-0.000442
0.000344
-0.000576
-0.000954
0.000535
0.000553
-0.000557
-0.000259
0.000671
0.000550
0.000970
0.000158
0.000296
0.000143
0.000047
0.000971
0.000596
0.000307
-0.000165
-0.000056
0.000026
0.000013
0.000350
-0.000844
0.000255
0.000072
-0.000823
0.000209
0.000836
0.000375
0.000246
-0.000177
-0.000097
0.000867
-0.000514
-0.001015
0.000119
0.000357
0.000037
0.000158
-0.000453
0.000953
-0.000166
-0.000485
-0.000892
-0.000133
-0.000538
-0.000031
0.000324
-0.000943
0.000340
-0.000947
-0.000975
0.000911
0.000914
0.000391
-0.000810
-0.000051
-0.000087
0.000384
0.000113
0.000377
-0.000560
0.000784
0.000527
-0.000954
-0.000525
0.000493
-0.000076
-0.000684