# vtk DataFile Version 2.0
Test
ASCII
DATASET POLYDATA
POINTS 4677 float
0.000000 0.000000 0.000000
0.080000 0.000000 0.000000
0.080000 0.160000 0.000000
0.000000 0.160000 0.000000
0.036000 0.073072 0.000000
0.044000 0.086928 0.000000
0.024500 0.065566 0.000000
0.055500 0.093560 0.000000
0.001000 0.050000 0.000000
0.079000 0.110000 0.000000
0.002963 0.000000 0.000000
0.005926 0.000000 0.000000
0.008889 0.000000 0.000000
0.011852 0.000000 0.000000
0.014815 0.000000 0.000000
0.017778 0.000000 0.000000
0.020741 0.000000 0.000000
0.023704 0.000000 0.000000
0.026667 0.000000 0.000000
0.029630 0.000000 0.000000
0.032593 0.000000 0.000000
0.035556 0.000000 0.000000
0.038519 0.000000 0.000000
0.041481 0.000000 0.000000
0.044444 0.000000 0.000000
0.047407 0.000000 0.000000
0.050370 0.000000 0.000000
0.053333 0.000000 0.000000
0.056296 0.000000 0.000000
0.059259 0.000000 0.000000
0.062222 0.000000 0.000000
0.065185 0.000000 0.000000
0.068148 0.000000 0.000000
0.071111 0.000000 0.000000
0.074074 0.000000 0.000000
0.077037 0.000000 0.000000
0.080000 0.002963 0.000000
0.080000 0.005926 0.000000
0.080000 0.008889 0.000000
0.080000 0.011852 0.000000
0.080000 0.014815 0.000000
0.080000 0.017778 0.000000
0.080000 0.020741 0.000000
0.080000 0.023704 0.000000
0.080000 0.026667 0.000000
0.080000 0.029630 0.000000
0.080000 0.032593 0.000000
0.080000 0.035556 0.000000
0.080000 0.038519 0.000000
0.080000 0.041481 0.000000
0.080000 0.044444 0.000000
0.080000 0.047407 0.000000
0.080000 0.050370 0.000000
0.080000 0.053333 0.000000
0.080000 0.056296 0.000000
0.080000 0.059259 0.000000
0.080000 0.062222 0.000000
0.080000 0.065185 0.000000
0.080000 0.068148 0.000000
0.080000 0.071111 0.000000
0.080000 0.074074 0.000000
0.080000 0.077037 0.000000
0.080000 0.080000 0.000000
0.080000 0.082963 0.000000
0.080000 0.085926 0.000000
0.080000 0.088889 0.000000
0.080000 0.091852 0.000000
0.080000 0.094815 0.000000
0.080000 0.097778 0.000000
0.080000 0.100741 0.000000
0.080000 0.103704 0.000000
0.080000 0.106667 0.000000
0.080000 0.109630 0.000000
0.080000 0.112593 0.000000
0.080000 0.115556 0.000000
0.080000 0.118519 0.000000
0.080000 0.121481 0.000000
0.080000 0.124444 0.000000
0.080000 0.127407 0.000000
0.080000 0.130370 0.000000
0.080000 0.133333 0.000000
0.080000 0.136296 0.000000
0.080000 0.139259 0.000000
0.080000 0.142222 0.000000
0.080000 0.145185 0.000000
0.080000 0.148148 0.000000
0.080000 0.151111 0.000000
0.080000 0.154074 0.000000
0.080000 0.157037 0.000000
0.077037 0.160000 0.000000
0.074074 0.160000 0.000000
0.071111 0.160000 0.000000
0.068148 0.160000 0.000000
0.065185 0.160000 0.000000
0.062222 0.160000 0.000000
0.059259 0.160000 0.000000
0.056296 0.160000 0.000000
0.053333 0.160000 0.000000
0.050370 0.160000 0.000000
0.047407 0.160000 0.000000
0.044444 0.160000 0.000000
0.041481 0.160000 0.000000
0.038519 0.160000 0.000000
0.035556 0.160000 0.000000
0.032593 0.160000 0.000000
0.029630 0.160000 0.000000
0.026667 0.160000 0.000000
0.023704 0.160000 0.000000
0.020741 0.160000 0.000000
0.017778 0.160000 0.000000
0.014815 0.160000 0.000000
0.011852 0.160000 0.000000
0.008889 0.160000 0.000000
0.005926 0.160000 0.000000
0.002963 0.160000 0.000000
0.000000 0.157037 0.000000
0.000000 0.154074 0.000000
0.000000 0.151111 0.000000
0.000000 0.148148 0.000000
0.000000 0.145185 0.000000
0.000000 0.142222 0.000000
0.000000 0.139259 0.000000
0.000000 0.136296 0.000000
0.000000 0.133333 0.000000
0.000000 0.130370 0.000000
0.000000 0.127407 0.000000
0.000000 0.124444 0.000000
0.000000 0.121481 0.000000
0.000000 0.118519 0.000000
0.000000 0.115556 0.000000
0.000000 0.112593 0.000000
0.000000 0.109630 0.000000
0.000000 0.106667 0.000000
0.000000 0.103704 0.000000
0.000000 0.100741 0.000000
0.000000 0.097778 0.000000
0.000000 0.094815 0.000000
0.000000 0.091852 0.000000
0.000000 0.088889 0.000000
0.000000 0.085926 0.000000
0.000000 0.082963 0.000000
0.000000 0.080000 0.000000
0.000000 0.077037 0.000000
0.000000 0.074074 0.000000
0.000000 0.071111 0.000000
0.000000 0.068148 0.000000
0.000000 0.065185 0.000000
0.000000 0.062222 0.000000
0.000000 0.059259 0.000000
0.000000 0.056296 0.000000
0.000000 0.053333 0.000000
0.000000 0.050370 0.000000
0.000000 0.047407 0.000000
0.000000 0.044444 0.000000
0.000000 0.041481 0.000000
0.000000 0.038519 0.000000
0.000000 0.035556 0.000000
0.000000 0.032593 0.000000
0.000000 0.029630 0.000000
0.000000 0.026667 0.000000
0.000000 0.023704 0.000000
0.000000 0.020741 0.000000
0.000000 0.017778 0.000000
0.000000 0.014815 0.000000
0.000000 0.011852 0.000000
0.000000 0.008889 0.000000
0.000000 0.005926 0.000000
0.000000 0.002963 0.000000
0.035500 0.072746 0.000000
0.035000 0.072419 0.000000
0.034500 0.072093 0.000000
0.034000 0.071767 0.000000
0.033500 0.071440 0.000000
0.033000 0.071114 0.000000
0.032500 0.070788 0.000000
0.032000 0.070461 0.000000
0.031500 0.070135 0.000000
0.031000 0.069809 0.000000
0.030500 0.069482 0.000000
0.030000 0.069156 0.000000
0.029500 0.068829 0.000000
0.029000 0.068503 0.000000
0.028500 0.068177 0.000000
0.028000 0.067850 0.000000
0.027500 0.067524 0.000000
0.027000 0.067198 0.000000
0.026500 0.066871 0.000000
0.026000 0.066545 0.000000
0.025500 0.066219 0.000000
0.025000 0.065892 0.000000
0.044500 0.087216 0.000000
0.045000 0.087505 0.000000
0.045500 0.087793 0.000000
0.046000 0.088081 0.000000
0.046500 0.088370 0.000000
0.047000 0.088658 0.000000
0.047500 0.088946 0.000000
0.048000 0.089235 0.000000
0.048500 0.089523 0.000000
0.049000 0.089811 0.000000
0.049500 0.090100 0.000000
0.050000 0.090388 0.000000
0.050500 0.090677 0.000000
0.051000 0.090965 0.000000
0.051500 0.091253 0.000000
0.052000 0.091542 0.000000
0.052500 0.091830 0.000000
0.053000 0.092118 0.000000
0.053500 0.092407 0.000000
0.054000 0.092695 0.000000
0.054500 0.092983 0.000000
0.055000 0.093272 0.000000
0.043704 0.086415 0.000000
0.043407 0.085902 0.000000
0.043111 0.085388 0.000000
0.042815 0.084875 0.000000
0.042519 0.084362 0.000000
0.042222 0.083849 0.000000
0.041926 0.083336 0.000000
0.041630 0.082823 0.000000
0.041333 0.082309 0.000000
0.041037 0.081796 0.000000
0.040741 0.081283 0.000000
0.040444 0.080770 0.000000
0.040148 0.080257 0.000000
0.039852 0.079743 0.000000
0.039556 0.079230 0.000000
0.039259 0.078717 0.000000
0.038963 0.078204 0.000000
0.038667 0.077691 0.000000
0.038370 0.077177 0.000000
0.038074 0.076664 0.000000
0.037778 0.076151 0.000000
0.037481 0.075638 0.000000
0.037185 0.075125 0.000000
0.036889 0.074612 0.000000
0.036593 0.074098 0.000000
0.036296 0.073585 0.000000
0.024000 0.065235 0.000000
0.023500 0.064904 0.000000
0.023000 0.064572 0.000000
0.022500 0.064241 0.000000
0.022000 0.063910 0.000000
0.021500 0.063579 0.000000
0.021000 0.063248 0.000000
0.020500 0.062916 0.000000
0.020000 0.062585 0.000000
0.019500 0.062254 0.000000
0.019000 0.061923 0.000000
0.018500 0.061592 0.000000
0.018000 0.061261 0.000000
0.017500 0.060929 0.000000
0.017000 0.060598 0.000000
0.016500 0.060267 0.000000
0.016000 0.059936 0.000000
0.015500 0.059605 0.000000
0.015000 0.059273 0.000000
0.014500 0.058942 0.000000
0.014000 0.058611 0.000000
0.013500 0.058280 0.000000
0.013000 0.057949 0.000000
0.012500 0.057617 0.000000
0.012000 0.057286 0.000000
0.011500 0.056955 0.000000
0.011000 0.056624 0.000000
0.010500 0.056293 0.000000
0.010000 0.055961 0.000000
0.009500 0.055630 0.000000
0.009000 0.055299 0.000000
0.008500 0.054968 0.000000
0.008000 0.054637 0.000000
0.007500 0.054305 0.000000
0.007000 0.053974 0.000000
0.006500 0.053643 0.000000
0.006000 0.053312 0.000000
0.005500 0.052981 0.000000
0.005000 0.052650 0.000000
0.004500 0.052318 0.000000
0.004000 0.051987 0.000000
0.003500 0.051656 0.000000
0.003000 0.051325 0.000000
0.002500 0.050994 0.000000
0.002000 0.050662 0.000000
0.001500 0.050331 0.000000
0.055990 0.093902 0.000000
0.056479 0.094245 0.000000
0.056969 0.094587 0.000000
0.057458 0.094930 0.000000
0.057948 0.095272 0.000000
0.058437 0.095615 0.000000
0.058927 0.095957 0.000000
0.059417 0.096300 0.000000
0.059906 0.096642 0.000000
0.060396 0.096985 0.000000
0.060885 0.097327 0.000000
0.061375 0.097670 0.000000
0.061865 0.098012 0.000000
0.062354 0.098355 0.000000
0.062844 0.098697 0.000000
0.063333 0.099040 0.000000
0.063823 0.099382 0.000000
0.064312 0.099725 0.000000
0.064802 0.100067 0.000000
0.065292 0.100410 0.000000
0.065781 0.100752 0.000000
0.066271 0.101095 0.000000
0.066760 0.101437 0.000000
0.067250 0.101780 0.000000
0.067740 0.102122 0.000000
0.068229 0.102465 0.000000
0.068719 0.102807 0.000000
0.069208 0.103150 0.000000
0.069698 0.103492 0.000000
0.070187 0.103835 0.000000
0.070677 0.104177 0.000000
0.071167 0.104520 0.000000
0.071656 0.104862 0.000000
0.072146 0.105205 0.000000
0.072635 0.105547 0.000000
0.073125 0.105890 0.000000
0.073615 0.106232 0.000000
0.074104 0.106575 0.000000
0.074594 0.106917 0.000000
0.075083 0.107260 0.000000
0.075573 0.107602 0.000000
0.076062 0.107945 0.000000
0.076552 0.108287 0.000000
0.077042 0.108630 0.000000
0.077531 0.108972 0.000000
0.078021 0.109315 0.000000
0.078510 0.109658 0.000000
0.043942 0.087469 0.000000
0.035556 0.157037 0.000000
0.044420 0.002920 0.000000
0.077037 0.038519 0.000000
0.002963 0.121481 0.000000
0.077037 0.059259 0.000000
0.002963 0.109630 0.000000
0.002923 0.098139 0.000000
0.077153 0.126913 0.000000
0.002808 0.032596 0.000000
0.077140 0.071061 0.000000
0.002963 0.085926 0.000000
0.002963 0.136296 0.000000
0.077041 0.023701 0.000000
0.056296 0.157037 0.000000
0.032593 0.002963 0.000000
0.077037 0.080000 0.000000
0.002813 0.077135 0.000000
0.077037 0.142222 0.000000
0.017778 0.157037 0.000000
0.062222 0.002963 0.000000
0.076992 0.088722 0.000000
0.002945 0.020743 0.000000
0.017777 0.002962 0.000000
0.002801 0.068434 0.000000
0.002959 0.011851 0.000000
0.065186 0.157038 0.000000
0.002963 0.148148 0.000000
0.077037 0.011852 0.000000
0.076887 0.094740 0.000000
0.077092 0.115875 0.000000
0.002677 0.044265 0.000000
0.077038 0.148148 0.000000
0.002985 0.062165 0.000000
0.077037 0.047407 0.000000
0.011852 0.002963 0.000000
[...]
POINT_DATA 4677
SCALARS UX float 1
LOOKUP_TABLE default
-0.000001
0.000001
0.057335
-0.187809
-0.072292
-0.098530
-0.100746
-0.065394
-0.130608
-0.051365
-0.000000
-0.000000
-0.000000
-0.000000
-0.000000
-0.000000
-0.000000
-0.000000
-0.000000
-0.000000
-0.000000
-0.000000
-0.000000
0.000000
0.000000
0.000000
0.000000
0.000000
0.000000
0.000000
0.000000
0.000000
0.000000
0.000000
0.000000
-0.000000
0.001397
0.002638
0.003889
0.005061
0.006287
0.007619
0.008982
0.010303
0.011640
0.013065
0.014522
0.016077
0.017714
0.019497
0.021622
0.025414
0.026856
0.027763
0.027392
0.024527
0.019989
0.014063
0.007687
0.003768
-0.001130
-0.000287
-0.005258
-0.010428
-0.019709
-0.028458
-0.035822
-0.042342
-0.045904
-0.049597
-0.050708
-0.051800
-0.050029
-0.050810
-0.052845
-0.054099
-0.054666
-0.059450
-0.051487
-0.049410
-0.046996
-0.040093
-0.034944
-0.025799
-0.013684
-0.001607
0.017059
0.033013
0.048280
0.049915
0.033328
0.015569
-0.000730
-0.010367
-0.036324
-0.052428
-0.067170
-0.080982
-0.091178
-0.101533
-0.106542
-0.125035
-0.141611
-0.151063
-0.159143
-0.161746
-0.165723
-0.169360
-0.173275
-0.176787
-0.178958
-0.180657
-0.182373
-0.184796
-0.186587
-0.188950
-0.189732
-0.191473
-0.194938
-0.196984
-0.198951
-0.200800
-0.202579
-0.203480
-0.203760
-0.205563
-0.204977
-0.204080
-0.202756
-0.200869
-0.199231
-0.195606
-0.190748
-0.185395
-0.178303
-0.171169
-0.164891
-0.159890
-0.155042
-0.152022
-0.148949
-0.145944
-0.143642
-0.143275
-0.140546
-0.137548
-0.133971
-0.131710
-0.134624
-0.132233
-0.132098
-0.131219
-0.130980
-0.129111
-0.126787
-0.124144
-0.110440
-0.097901
-0.093151
-0.086772
-0.083409
-0.076977
-0.076679
-0.070021
-0.062269
-0.054200
-0.044173
-0.030960
-0.073518
-0.074357
-0.075737
-0.074541
-0.077515
-0.079201
-0.082489
-0.083573
-0.085161
-0.086636
-0.088539
-0.091225
-0.092826
-0.092773
-0.094117
-0.095685
-0.097052
-0.098294
-0.101191
-0.100912
-0.102243
-0.103676
-0.098289
-0.097112
-0.095279
-0.090994
-0.089185
-0.087902
-0.086877
-0.083875
-0.082228
-0.082451
-0.083078
-0.080734
-0.079678
-0.077117
-0.074811
-0.074533
-0.073806
-0.072166
-0.071244
-0.071308
-0.071032
-0.066428
-0.098995
-0.099170
-0.098044
-0.096791
-0.095579
-0.092525
-0.088434
-0.088346
-0.087282
-0.086035
-0.085148
-0.084088
-0.083323
-0.082397
-0.081433
-0.080628
-0.079846
-0.079115
-0.078507
-0.078100
-0.077896
-0.077752
-0.076591
-0.076467
-0.076619
-0.072186
-0.101931
-0.102564
-0.102842
-0.103110
-0.103556
-0.103703
-0.103951
-0.104261
-0.104665
-0.105097
-0.105591
-0.106126
-0.106691
-0.107318
-0.107985
-0.108682
-0.109454
-0.109720
-0.110029
-0.110810
-0.111035
-0.111719
-0.112410
-0.113131
-0.113774
-0.114418
-0.115285
-0.115881
-0.116728
-0.117536
-0.118266
-0.118462
-0.118519
-0.119299
-0.119969
-0.120774
-0.121649
-0.122505
-0.123452
-0.124429
-0.125295
-0.126147
-0.127035
-0.127937
-0.128836
-0.129753
-0.064541
-0.065219
-0.066006
-0.066783
-0.067513
-0.068180
-0.068955
-0.069712
-0.070133
-0.070308
-0.070245
-0.069609
-0.070373
-0.071139
-0.071810
-0.072696
-0.073536
-0.074197
-0.074487
-0.074524
-0.074606
-0.074563
-0.074449
-0.073754
-0.073041
-0.072694
-0.071864
-0.071054
-0.070218
-0.069111
-0.067983
-0.066615
-0.065450
-0.064263
-0.063187
-0.062265
-0.061209
-0.060304
-0.059539
-0.058848
-0.058108
-0.057562
-0.056626
-0.055555
-0.054522
-0.053538
-0.052450
-0.099507
-0.152883
0.000246
0.016352
-0.200855
0.022957
-0.192619
-0.168124
-0.066141
-0.091709
0.000313
-0.148184
-0.200070
0.008469
-0.073454
-0.000599
-0.009939
-0.140654
-0.031387
-0.178407
0.000097
-0.032806
-0.073889
-0.000862
-0.132811
-0.055153
-0.028109
-0.192399
0.003359
-0.045754
-0.059916
-0.124020
-0.008757
-0.129255
0.024480
-0.005181
-0.001739
-0.185872
0.000183
-0.127007
-0.052698
-0.053308
-0.131019
-0.111833
-0.003178
-0.202202
0.011418
-0.172073
0.000108
0.035887
-0.064394
-0.120822
-0.096187
-0.066328
-0.117433
-0.128733
-0.137629
-0.015700
-0.156288
-0.144152
0.011635
-0.007734
0.026627
-0.182598
-0.054584
-0.198293
-0.085419
-0.081246
0.018410
-0.164694
-0.046801
0.000198
0.000267
-0.201686
0.013005
0.000015
-0.068446
-0.003619
-0.062512
-0.100941
-0.196421
0.005713
-0.042016
-0.008306
-0.032198
-0.182442
0.000128
-0.000160
-0.013886
-0.015820
-0.188695
0.001081
-0.187575
0.000231
-0.054212
-0.100567
-0.128327
-0.128376
-0.054281
-0.100903
0.000091
0.015004
-0.012719
-0.080762
-0.140727
-0.070939
-0.110905
-0.198282
-0.057736
-0.004732
-0.115823
-0.060552
-0.125406
-0.016904
-0.059255
-0.086363
-0.045622
-0.015989
-0.026965
-0.018355
-0.186839
0.000350
-0.054831
-0.127178
-0.048745
-0.130324
-0.039075
-0.135508
-0.129880
-0.023656
-0.066520
-0.106924
-0.052336
-0.142186
-0.006882
-0.152614
-0.161716
0.004415
0.018220
-0.175568
-0.187296
0.026268
-0.195830
0.025720
-0.058557
0.020652
-0.199914
-0.143186
-0.201649
0.014655
-0.162210
0.000250
-0.121828
-0.077262
-0.168135
0.000143
-0.000596
-0.043980
-0.201817
0.009947
-0.086407
-0.001460
-0.175686
0.000097
-0.062315
-0.003597
-0.046881
-0.198304
0.007058
-0.004598
-0.194453
0.004472
-0.014784
-0.020655
-0.180765
0.000104
0.016421
0.022188
-0.184170
0.000154
-0.189924
0.002139
-0.129427
-0.052814
-0.054842
-0.124344
-0.127541
-0.098218
-0.101042
-0.054125
-0.128173
-0.070853
-0.114422
-0.091490
-0.092900
-0.090554
0.017236
-0.155846
-0.186087
-0.075990
-0.112662
-0.163058
-0.175722
-0.131288
0.000273
0.008162
-0.041855
-0.195721
-0.182323
-0.052158
0.002765
-0.191863
0.000241
-0.055694
-0.126617
-0.072551
0.025007
-0.192261
0.023986
-0.197059
-0.132864
-0.197806
-0.056155
-0.006187
-0.008672
-0.187937
-0.028703
-0.009816
-0.128181
-0.054192
-0.122657
-0.062667
-0.012766
-0.126779
-0.073595
-0.139068
-0.125372
-0.028534
-0.021235
-0.171835
-0.057090
-0.095862
-0.110145
-0.119703
0.000560
-0.004635
-0.146775
0.013475
-0.001291
-0.000395
-0.076348
0.020241
0.017796
0.000384
0.000395
-0.144859
-0.067130
-0.121179
-0.170277
-0.097878
-0.199052
-0.198509
-0.050751
-0.027602
-0.063041
-0.147482
-0.071450
-0.002510
-0.072714
-0.055481
-0.006070
0.005194
0.000227
-0.065634
-0.032989
-0.025355
0.002504
-0.186144
0.000290
0.000922
-0.086091
-0.101839
-0.099557
-0.056465
-0.125978
-0.128052
-0.051707
-0.130560
-0.054499
-0.099130
-0.096770
-0.095354
-0.091531
-0.100974
-0.000939
0.015784
-0.006594
-0.141173
-0.137400
-0.195721
-0.079702
-0.075937
-0.026324
-0.006896
-0.101690
-0.062640
-0.055509
-0.022583
-0.124763
-0.057966
-0.078692
-0.089144
-0.134851
0.011929
0.000199
-0.067401
-0.010581
-0.077342
-0.046859
-0.195317
-0.185384
0.000459
-0.093414
-0.128653
-0.047180
-0.090020
-0.126364
-0.180962
-0.136218
-0.154057
-0.161725
0.009921
0.011520
-0.069158
0.021633
-0.190142
0.025270
-0.019897
-0.195074
-0.071938
-0.037425
-0.137912
-0.140041
-0.002453
-0.167448
-0.197536
0.022690
0.000337
-0.173190
-0.070359
-0.129036
0.012084
-0.197936
0.000242
-0.179421
-0.041283
0.006591
-0.045603
-0.028213
0.003876
-0.028340
-0.043920
-0.004400
-0.193829
0.000227
-0.154313
-0.184362
-0.189733
-0.016301
0.001747
0.000260
-0.109789
-0.076563
-0.116457
-0.101252
-0.125861
-0.102166
-0.097978
-0.057025
-0.123859
-0.059891
-0.097891
-0.094910
-0.057097
-0.126734
-0.125584
-0.056110
-0.056894
-0.090071
-0.088110
-0.089527
-0.125666
-0.118519
-0.102444
-0.086121
0.017850
-0.166620
-0.137550
-0.084402
-0.080840
-0.137946
-0.131933
-0.110878
-0.170731
-0.043653
-0.193060
0.000395
0.006367
-0.061493
-0.124226
-0.179388
-0.187906
0.000378
0.002479
0.024243
-0.001947
-0.064133
-0.149866
-0.192921
-0.195754
-0.052406
-0.051057
-0.015678
0.000887
-0.182687
-0.017561
-0.120864
-0.074284
-0.077880
-0.127296
-0.151818
-0.136375
-0.147609
-0.003975
0.004835
0.009918
-0.177222
0.018119
-0.143443
-0.000269
-0.101825
-0.078387
-0.071968
-0.134882
-0.032561
-0.022839
-0.114392
0.022277
-0.060171
-0.074540
-0.194315
-0.173558
-0.007978
0.013112
-0.057670
-0.090247
-0.012151
-0.003486
0.000380
-0.163281
-0.063639
-0.042804
-0.195309
0.004787
-0.036963
-0.037704
-0.025560
0.000367
-0.191185
-0.187061
0.000394
0.000413
-0.105278
-0.099391
-0.090808
-0.089035
-0.124387
-0.124280
-0.058079
-0.058229
-0.099217
-0.123953
-0.103073
-0.058806
-0.127178
-0.095761
-0.069403
-0.030461
-0.079644
-0.017129
-0.115636
-0.123146
-0.093977
-0.088831
-0.060631
-0.097038
-0.092381
0.013566
-0.000097
-0.192294
-0.000644
-0.027734
-0.104303
-0.082108
-0.079203
-0.037873
-0.106071
-0.191498
-0.170993
-0.008983
-0.117591
-0.069542
0.000516
0.005083
-0.064550
-0.084763
-0.190820
-0.184481
-0.086733
-0.068145
0.009031
-0.082952
-0.012511
-0.018552
0.000555
-0.055950
-0.028151
0.000594
-0.089350
-0.073379
-0.141634
0.025206
-0.089458
-0.074639
-0.003912
-0.160560
0.020466
0.012550
-0.146231
-0.081916
-0.186921
-0.087689
-0.191292
-0.000014
-0.195431
-0.079475
-0.120033
-0.132347
-0.040412
-0.084894
-0.125610
-0.024324
0.000391
-0.034720
-0.134719
-0.057918
-0.101254
-0.194545
0.010533
-0.038474
-0.156392
-0.053849
-0.176307
0.003448
-0.013380
-0.055199
0.000373
-0.194893
-0.129563
-0.021799
-0.064030
-0.167854
0.001628
-0.189119
-0.180316
0.008045
-0.060289
-0.122459
-0.100811
-0.124075
-0.120371
-0.097149
-0.085981
-0.098493
-0.097120
-0.102518
-0.102669
-0.110696
-0.089728
-0.093834
-0.091426
-0.146502
-0.129394
-0.135047
-0.122509
-0.083485
0.021392
-0.058092
-0.024854
-0.011046
-0.122537
-0.124892
-0.059801
-0.089051
-0.060535
-0.124374
-0.092895
-0.058244
-0.059171
-0.088110
-0.101774
-0.084459
-0.180745
-0.134436
-0.084775
-0.145122
-0.191218
-0.128620
-0.001306
-0.079579
0.007547
-0.104576
-0.078441
-0.011990
-0.040332
-0.057705
-0.089576
-0.120327
-0.117113
-0.121119
-0.176755
-0.064025
0.013713
-0.088372
0.019817
-0.157819
-0.087019
-0.080115
-0.190059
-0.048465
-0.168290
0.000436
-0.024586
-0.066669
0.002249
-0.124719
0.000546
-0.192191
0.000960
-0.186541
-0.098260
-0.093886
-0.158986
-0.131627
-0.133607
-0.093771
0.020870
0.007163
-0.139320
-0.098034
0.007496
-0.029108
-0.002053
-0.125309
-0.010331
-0.192939
0.000265
-0.006425
-0.121509
-0.192351
-0.024772
-0.075112
-0.059776
-0.130609
-0.015717
-0.031297
-0.075162
-0.021682
0.016213
-0.095169
0.000533
-0.192069
0.003135
-0.058060
0.011021
-0.188603
-0.061927
-0.152169
-0.173694
0.000570
-0.025555
-0.059644
-0.182041
-0.120235
-0.045902
-0.061175
-0.069403
-0.093610
-0.087293
-0.119819
-0.123024
-0.085508
-0.114267
-0.098511
-0.042426
-0.083900
-0.088382
-0.100141
-0.087191
-0.102922
-0.102589
-0.153031
-0.095316
-0.059742
-0.088117
-0.086836
-0.058891
-0.124025
-0.087724
-0.123233
-0.061087
-0.084973
-0.121334
-0.086313
-0.071926
-0.087821
-0.102547
-0.090624
-0.082255
0.009839
-0.013956
-0.132084
-0.092662
-0.031118
-0.108890
0.000405
-0.126661
-0.168201
-0.187973
0.002577
-0.085445
-0.085722
0.000711
-0.117235
-0.119795
-0.163889
-0.063279
0.005180
-0.083808
-0.191239
-0.102073
0.014508
-0.026931
-0.021510
-0.083621
-0.083679
-0.185979
-0.173374
-0.100242
-0.149809
-0.173894
-0.095499
-0.188256
-0.072129
-0.003557
-0.009415
-0.058294
0.020843
-0.123101
-0.123335
-0.036783
-0.086196
-0.124020
-0.153733
-0.084720
-0.097371
-0.002929
-0.122035
-0.162672
0.018059
-0.054619
-0.132080
-0.086386
-0.018478
-0.190673
-0.077012
-0.120329
-0.122605
-0.131626
-0.047951
-0.044938
-0.025113
-0.127445
-0.138414
-0.041546
-0.187990
-0.109542
0.011490
0.008900
-0.183980
-0.071536
0.000766
0.001624
-0.062172
-0.180329
-0.189401
0.000740
-0.191923
-0.089624
-0.049274
-0.000510
-0.100180
-0.069148
-0.076999
-0.093091
-0.121522
-0.082748
-0.089074
-0.062725
-0.120437
-0.085686
-0.091070
-0.097482
-0.101900
-0.128827
-0.085013
-0.103101
-0.115461
-0.086731
-0.060927
-0.073792
-0.122905
-0.096583
0.018121
-0.089123
-0.186648
-0.083149
-0.002312
-0.063667
-0.086065
-0.062907
-0.086609
-0.119283
-0.093599
-0.187560
0.011470
-0.083953
-0.092317
-0.128825
-0.003306
-0.125599
0.006626
-0.042986
-0.120795
-0.051564
-0.096251
-0.024089
-0.185383
-0.052403
-0.172578
-0.147809
-0.119732
-0.116404
-0.065673
-0.118666
-0.093006
-0.187559
-0.129399
0.000996
-0.083971
-0.164232
-0.136218
-0.089329
-0.130466
0.001754
-0.181920
0.018617
-0.101875
-0.118265
-0.068778
-0.049223
-0.118330
-0.096975
0.003509
-0.088599
-0.104645
-0.021897
-0.120707
-0.190187
0.016324
-0.031914
-0.158871
-0.123393
-0.046775
-0.030514
-0.010021
-0.005747
-0.028075
-0.187396
0.003046
0.000053
0.001091
-0.091899
-0.041853
0.000642
-0.176235
-0.177563
-0.131862
0.000759
-0.170686
-0.122242
-0.035175
0.009004
-0.075893
-0.080871
-0.161832
-0.155149
-0.012213
-0.184622
-0.181548
-0.188283
-0.091150
-0.099738
-0.189016
-0.082923
0.016343
-0.144474
-0.048037
-0.092289
-0.082669
-0.101242
-0.102739
-0.094528
-0.086187
-0.098365
-0.086663
-0.077139
-0.091631
-0.073266
-0.094646
-0.064045
-0.064673
-0.083458
-0.103795
-0.059651
-0.002185
-0.120358
-0.089906
-0.083257
-0.119775
-0.125634
-0.168290
-0.056954
-0.081454
-0.186095
-0.098192
-0.119485
-0.124642
-0.067814
-0.086498
-0.085274
-0.118599
-0.085260
-0.112182
-0.065097
-0.062075
-0.102878
-0.103111
-0.081729
-0.081831
0.002013
-0.170833
-0.126029
-0.032649
-0.005491
-0.183661
-0.081089
-0.055181
-0.113064
-0.133627
-0.119118
-0.162633
-0.180836
-0.169923
0.013502
-0.019459
-0.118980
-0.048126
-0.114209
-0.181144
-0.059088
0.017263
-0.098435
-0.186896
0.002960
-0.082997
-0.147633
-0.036006
-0.000187
0.001343
-0.176811
-0.182602
0.000887
-0.185149
-0.060583
0.014382
-0.008287
-0.069745
-0.066502
-0.028904
-0.099068
-0.036493
0.018608
-0.051681
-0.046561
0.005085
-0.116092
-0.138683
-0.012632
-0.126785
-0.118495
-0.028310
-0.094223
-0.121308
-0.062497
-0.141178
-0.122257
-0.127199
-0.001192
-0.092262
-0.129460
0.001021
-0.095007
-0.117723
-0.183678
-0.123779
-0.052197
-0.154242
-0.082209
-0.152915
-0.186632
0.008965
0.007602
-0.127568
-0.129470
-0.015830
-0.087403
-0.080068
-0.095136
0.000977
-0.093779
-0.085920
-0.085797
-0.085043
-0.183570
-0.086250
-0.121118
-0.119752
-0.092536
-0.097683
-0.095012
-0.095877
-0.094212
-0.103688
-0.004698
-0.068474
-0.077086
-0.088165
-0.118016
-0.072865
-0.100471
-0.115383
-0.080697
-0.168347
-0.104060
-0.065744
-0.083269
-0.090449
-0.099549
-0.107489
-0.079751
-0.117742
-0.056469
-0.065323
-0.088087
-0.083565
-0.099766
-0.126183
-0.082155
-0.061287
-0.082917
-0.183227
-0.098035
-0.104664
-0.083442
-0.078289
-0.079641
-0.123298
-0.094326
-0.122934
-0.133588
-0.085085
0.006353
-0.047955
-0.109726
-0.052895
-0.103878
-0.084989
-0.147352
-0.015558
-0.060310
-0.080783
-0.177490
-0.104396
-0.120899
-0.152579
-0.134214
-0.119414
-0.183323
-0.100028
0.001014
-0.001604
0.001307
-0.053778
-0.121410
-0.160162
-0.082016
0.015040
-0.105369
-0.175061
-0.062593
-0.031458
-0.126079
-0.119386
-0.068380
-0.115049
-0.005147
-0.035636
-0.088295
-0.126320
-0.157855
-0.101063
-0.041108
-0.079848
-0.124086
-0.088126
-0.089681
-0.003451
0.001877
-0.177060
0.009522
-0.072313
-0.025327
-0.172593
-0.181935
-0.052755
0.000686
-0.125378
-0.167438
-0.080017
0.017121
0.007875
-0.073585
-0.020262
0.005139
-0.096348
-0.178875
-0.141235
0.008024
-0.183384
-0.096327
-0.116426
-0.098707
-0.166137
-0.007527
-0.124689
-0.090487
-0.097260
-0.081336
-0.094819
-0.092020
-0.104647
-0.117351
-0.118683
-0.102083
-0.056705
-0.178130
-0.101310
-0.086203
-0.103856
-0.095058
-0.078627
-0.094882
-0.064160
-0.107060
-0.065073
-0.117009
-0.083764
-0.051634
-0.031249
0.021522
-0.067048
-0.082921
-0.078160
-0.085039
-0.066099
-0.032706
-0.141184
-0.080376
-0.180322
-0.100923
-0.118216
-0.116118
-0.055241
-0.086471
-0.084407
-0.080292
-0.006894
-0.077293
-0.076636
-0.099069
-0.179823
-0.144301
-0.041805
-0.031609
-0.087914
-0.105658
-0.004500
-0.177980
0.003977
-0.056213
-0.107381
-0.082619
-0.058277
-0.017871
-0.052404
-0.164229
-0.113836
0.013327
-0.062517
-0.045858
-0.116434
-0.120968
-0.077449
-0.139054
-0.116214
-0.165491
-0.172020
0.006128
0.000550
-0.152655
-0.067329
-0.059558
-0.179580
0.016971
-0.112304
-0.122740
-0.072280
-0.105688
-0.050771
-0.091626
-0.122204
-0.124922
-0.111666
0.003847
-0.102063
-0.147354
-0.121905
-0.123067
-0.056524
-0.115157
0.002057
-0.137050
-0.161669
0.001319
-0.093084
-0.007686
0.011210
-0.083439
-0.081145
-0.053389
-0.103025
-0.178456
-0.036955
-0.083447
-0.182682
-0.119643
-0.027038
-0.127515
0.006923
-0.000198
-0.127481
-0.000889
-0.157163
-0.169335
-0.174495
-0.177274
-0.100673
-0.043017
-0.023323
-0.090401
-0.098704
-0.011498
-0.118861
-0.076480
-0.083631
-0.080057
-0.078153
-0.098898
-0.083831
0.016180
-0.075541
-0.098674
-0.089105
-0.087438
-0.100595
-0.093737
-0.097695
-0.119821
-0.067514
-0.068159
-0.105489
-0.096126
-0.093702
-0.084046
-0.077177
-0.100456
-0.090713
-0.103632
-0.110562
-0.065457
-0.118154
-0.103394
-0.034176
-0.115859
-0.049016
-0.085548
-0.082772
-0.068951
-0.174678
-0.121224
0.019035
-0.118087
-0.118490
-0.117887
-0.080428
-0.123336
-0.013079
-0.079691
-0.080627
-0.106516
-0.014094
-0.080839
-0.118317
-0.076429
-0.141166
-0.172222
-0.096043
-0.090866
-0.119956
-0.049756
-0.008398
-0.117411
-0.054606
-0.138335
-0.059394
-0.174020
-0.117286
-0.163479
-0.157043
-0.062284
-0.045756
-0.075367
0.000040
-0.105018
-0.069821
0.001792
-0.175693
-0.116392
-0.082115
-0.178615
-0.118376
-0.076718
-0.010657
-0.089749
-0.080077
0.014253
0.011853
-0.119356
-0.117871
-0.075097
-0.119371
-0.085528
0.002504
-0.104348
-0.043791
-0.056274
-0.162444
-0.101553
-0.028676
-0.173427
-0.120394
-0.025163
-0.086654
-0.097096
-0.179131
-0.168820
-0.039911
0.006048
-0.131709
0.005190
0.007399
-0.132047
-0.121184
-0.086295
-0.057554
-0.151612
-0.077865
-0.013313
-0.172922
-0.158036
-0.008698
-0.178746
-0.076824
-0.053529
-0.028041
0.003639
-0.110769
-0.116381
-0.117183
-0.172084
-0.080562
-0.101097
-0.117971
-0.118819
-0.101947
0.013912
-0.059876
-0.002059
-0.070923
-0.150098
-0.098902
-0.082099
-0.078361
-0.077815
-0.085668
-0.079866
-0.032396
-0.034507
-0.100620
-0.125894
-0.074727
-0.019095
-0.097500
-0.091545
-0.067009
-0.102409
-0.094921
-0.106944
-0.092405
-0.056407
-0.055983
-0.075965
-0.105231
-0.052502
-0.069412
-0.118990
-0.071762
-0.105608
-0.143315
-0.119906
-0.091059
-0.081652
-0.081846
-0.078546
-0.088894
-0.068643
-0.076404
-0.047355
0.003179
-0.114353
-0.095918
-0.117168
-0.037271
-0.114678
-0.111915
-0.122055
-0.108145
-0.113402
-0.095137
-0.079145
0.010639
-0.106757
-0.014461
-0.098811
-0.116718
-0.074184
-0.093043
-0.045456
-0.089743
-0.037894
-0.133043
-0.116400
0.002897
-0.077323
-0.056168
-0.151250
-0.060958
-0.048983
-0.170624
-0.119504
-0.097297
-0.080531
-0.146887
0.001972
-0.058956
-0.082905
-0.170650
-0.016951
-0.091981
-0.026067
-0.112632
-0.174946
-0.121057
-0.114670
-0.102961
-0.078180
-0.075317
0.002745
-0.142952
-0.059295
-0.073521
-0.123339
-0.115800
-0.108258
-0.158325
-0.059231
-0.117140
-0.098892
-0.064344
-0.167248
-0.012435
-0.034277
0.013004
-0.170016
-0.166445
-0.116479
-0.157154
-0.110430
0.001317
-0.090942
-0.113674
-0.174906
-0.002880
-0.020322
-0.118443
-0.125899
-0.135835
-0.057131
-0.038977
-0.093912
-0.050652
-0.176033
0.006166
-0.034554
-0.075123
-0.048495
0.009037
-0.000904
0.009441
-0.174739
0.002241
-0.021522
-0.073196
-0.077621
-0.064980
-0.112357
-0.173166
-0.121261
-0.005153
-0.103456
-0.064190
-0.043610
-0.102938
-0.080159
-0.081629
-0.085064
-0.088797
-0.078092
-0.102814
-0.126348
-0.076558
-0.100787
-0.099403
-0.119028
-0.117081
-0.119394
-0.093859
-0.084614
-0.096212
-0.079347
-0.093675
-0.107742
-0.058351
-0.104265
-0.040358
-0.073799
-0.074193
-0.081078
-0.087015
-0.106816
-0.104721
-0.118017
-0.146635
-0.074318
-0.110800
-0.070254
-0.068765
-0.071430
-0.070391
-0.116381
0.003892
-0.115481
-0.082057
-0.078029
-0.116708
-0.114825
-0.061780
0.005713
-0.083086
-0.096951
-0.172247
-0.095844
-0.041094
-0.049137
-0.118295
-0.052575
-0.151694
-0.080596
-0.019202
0.000043
-0.171204
-0.116570
-0.062033
-0.064272
-0.115757
-0.062151
-0.072503
-0.161274
-0.168109
-0.117857
-0.168882
-0.046843
0.004885
-0.009337
-0.072320
-0.001845
0.001337
-0.113943
-0.076092
-0.072130
-0.115542
-0.045612
-0.040658
-0.094815
-0.027227
0.010276
0.009746
-0.009584
-0.114718
-0.174541
-0.171508
-0.092649
-0.117173
-0.129620
-0.115761
-0.054061
-0.116829
-0.060250
-0.115934
-0.120508
-0.079014
-0.047137
-0.088832
0.003972
-0.021434
-0.051649
-0.140668
-0.068457