# vtk DataFile Version 2.0
Test
ASCII
DATASET POLYDATA
POINTS 4677 float
0.000000 0.000000 0.000000
0.080000 0.000000 0.000000
0.080000 0.160000 0.000000
0.000000 0.160000 0.000000
0.036000 0.073072 0.000000
0.044000 0.086928 0.000000
0.024500 0.065566 0.000000
0.055500 0.093560 0.000000
0.001000 0.050000 0.000000
0.079000 0.110000 0.000000
0.002963 0.000000 0.000000
0.005926 0.000000 0.000000
0.008889 0.000000 0.000000
0.011852 0.000000 0.000000
0.014815 0.000000 0.000000
0.017778 0.000000 0.000000
0.020741 0.000000 0.000000
0.023704 0.000000 0.000000
0.026667 0.000000 0.000000
0.029630 0.000000 0.000000
0.032593 0.000000 0.000000
0.035556 0.000000 0.000000
0.038519 0.000000 0.000000
0.041481 0.000000 0.000000
0.044444 0.000000 0.000000
0.047407 0.000000 0.000000
0.050370 0.000000 0.000000
0.053333 0.000000 0.000000
0.056296 0.000000 0.000000
0.059259 0.000000 0.000000
0.062222 0.000000 0.000000
0.065185 0.000000 0.000000
0.068148 0.000000 0.000000
0.071111 0.000000 0.000000
0.074074 0.000000 0.000000
0.077037 0.000000 0.000000
0.080000 0.002963 0.000000
0.080000 0.005926 0.000000
0.080000 0.008889 0.000000
0.080000 0.011852 0.000000
0.080000 0.014815 0.000000
0.080000 0.017778 0.000000
0.080000 0.020741 0.000000
0.080000 0.023704 0.000000
0.080000 0.026667 0.000000
0.080000 0.029630 0.000000
0.080000 0.032593 0.000000
0.080000 0.035556 0.000000
0.080000 0.038519 0.000000
0.080000 0.041481 0.000000
0.080000 0.044444 0.000000
0.080000 0.047407 0.000000
0.080000 0.050370 0.000000
0.080000 0.053333 0.000000
0.080000 0.056296 0.000000
0.080000 0.059259 0.000000
0.080000 0.062222 0.000000
0.080000 0.065185 0.000000
0.080000 0.068148 0.000000
0.080000 0.071111 0.000000
0.080000 0.074074 0.000000
0.080000 0.077037 0.000000
0.080000 0.080000 0.000000
0.080000 0.082963 0.000000
0.080000 0.085926 0.000000
0.080000 0.088889 0.000000
0.080000 0.091852 0.000000
0.080000 0.094815 0.000000
0.080000 0.097778 0.000000
0.080000 0.100741 0.000000
0.080000 0.103704 0.000000
0.080000 0.106667 0.000000
0.080000 0.109630 0.000000
0.080000 0.112593 0.000000
0.080000 0.115556 0.000000
0.080000 0.118519 0.000000
0.080000 0.121481 0.000000
0.080000 0.124444 0.000000
0.080000 0.127407 0.000000
0.080000 0.130370 0.000000
0.080000 0.133333 0.000000
0.080000 0.136296 0.000000
0.080000 0.139259 0.000000
0.080000 0.142222 0.000000
0.080000 0.145185 0.000000
0.080000 0.148148 0.000000
0.080000 0.151111 0.000000
0.080000 0.154074 0.000000
0.080000 0.157037 0.000000
0.077037 0.160000 0.000000
0.074074 0.160000 0.000000
0.071111 0.160000 0.000000
0.068148 0.160000 0.000000
0.065185 0.160000 0.000000
0.062222 0.160000 0.000000
0.059259 0.160000 0.000000
0.056296 0.160000 0.000000
0.053333 0.160000 0.000000
0.050370 0.160000 0.000000
0.047407 0.160000 0.000000
0.044444 0.160000 0.000000
0.041481 0.160000 0.000000
0.038519 0.160000 0.000000
0.035556 0.160000 0.000000
0.032593 0.160000 0.000000
0.029630 0.160000 0.000000
0.026667 0.160000 0.000000
0.023704 0.160000 0.000000
0.020741 0.160000 0.000000
0.017778 0.160000 0.000000
0.014815 0.160000 0.000000
0.011852 0.160000 0.000000
0.008889 0.160000 0.000000
0.005926 0.160000 0.000000
0.002963 0.160000 0.000000
0.000000 0.157037 0.000000
0.000000 0.154074 0.000000
0.000000 0.151111 0.000000
0.000000 0.148148 0.000000
0.000000 0.145185 0.000000
0.000000 0.142222 0.000000
0.000000 0.139259 0.000000
0.000000 0.136296 0.000000
0.000000 0.133333 0.000000
0.000000 0.130370 0.000000
0.000000 0.127407 0.000000
0.000000 0.124444 0.000000
0.000000 0.121481 0.000000
0.000000 0.118519 0.000000
0.000000 0.115556 0.000000
0.000000 0.112593 0.000000
0.000000 0.109630 0.000000
0.000000 0.106667 0.000000
0.000000 0.103704 0.000000
0.000000 0.100741 0.000000
0.000000 0.097778 0.000000
0.000000 0.094815 0.000000
0.000000 0.091852 0.000000
0.000000 0.088889 0.000000
0.000000 0.085926 0.000000
0.000000 0.082963 0.000000
0.000000 0.080000 0.000000
0.000000 0.077037 0.000000
0.000000 0.074074 0.000000
0.000000 0.071111 0.000000
0.000000 0.068148 0.000000
0.000000 0.065185 0.000000
0.000000 0.062222 0.000000
0.000000 0.059259 0.000000
0.000000 0.056296 0.000000
0.000000 0.053333 0.000000
0.000000 0.050370 0.000000
0.000000 0.047407 0.000000
0.000000 0.044444 0.000000
0.000000 0.041481 0.000000
0.000000 0.038519 0.000000
0.000000 0.035556 0.000000
0.000000 0.032593 0.000000
0.000000 0.029630 0.000000
0.000000 0.026667 0.000000
0.000000 0.023704 0.000000
0.000000 0.020741 0.000000
0.000000 0.017778 0.000000
0.000000 0.014815 0.000000
0.000000 0.011852 0.000000
0.000000 0.008889 0.000000
0.000000 0.005926 0.000000
0.000000 0.002963 0.000000
0.035500 0.072746 0.000000
0.035000 0.072419 0.000000
0.034500 0.072093 0.000000
0.034000 0.071767 0.000000
0.033500 0.071440 0.000000
0.033000 0.071114 0.000000
0.032500 0.070788 0.000000
0.032000 0.070461 0.000000
0.031500 0.070135 0.000000
0.031000 0.069809 0.000000
0.030500 0.069482 0.000000
0.030000 0.069156 0.000000
0.029500 0.068829 0.000000
0.029000 0.068503 0.000000
0.028500 0.068177 0.000000
0.028000 0.067850 0.000000
0.027500 0.067524 0.000000
0.027000 0.067198 0.000000
0.026500 0.066871 0.000000
0.026000 0.066545 0.000000
0.025500 0.066219 0.000000
0.025000 0.065892 0.000000
0.044500 0.087216 0.000000
0.045000 0.087505 0.000000
0.045500 0.087793 0.000000
0.046000 0.088081 0.000000
0.046500 0.088370 0.000000
0.047000 0.088658 0.000000
0.047500 0.088946 0.000000
0.048000 0.089235 0.000000
0.048500 0.089523 0.000000
0.049000 0.089811 0.000000
0.049500 0.090100 0.000000
0.050000 0.090388 0.000000
0.050500 0.090677 0.000000
0.051000 0.090965 0.000000
0.051500 0.091253 0.000000
0.052000 0.091542 0.000000
0.052500 0.091830 0.000000
0.053000 0.092118 0.000000
0.053500 0.092407 0.000000
0.054000 0.092695 0.000000
0.054500 0.092983 0.000000
0.055000 0.093272 0.000000
0.043704 0.086415 0.000000
0.043407 0.085902 0.000000
0.043111 0.085388 0.000000
0.042815 0.084875 0.000000
0.042519 0.084362 0.000000
0.042222 0.083849 0.000000
0.041926 0.083336 0.000000
0.041630 0.082823 0.000000
0.041333 0.082309 0.000000
0.041037 0.081796 0.000000
0.040741 0.081283 0.000000
0.040444 0.080770 0.000000
0.040148 0.080257 0.000000
0.039852 0.079743 0.000000
0.039556 0.079230 0.000000
0.039259 0.078717 0.000000
0.038963 0.078204 0.000000
0.038667 0.077691 0.000000
0.038370 0.077177 0.000000
0.038074 0.076664 0.000000
0.037778 0.076151 0.000000
0.037481 0.075638 0.000000
0.037185 0.075125 0.000000
0.036889 0.074612 0.000000
0.036593 0.074098 0.000000
0.036296 0.073585 0.000000
0.024000 0.065235 0.000000
0.023500 0.064904 0.000000
0.023000 0.064572 0.000000
0.022500 0.064241 0.000000
0.022000 0.063910 0.000000
0.021500 0.063579 0.000000
0.021000 0.063248 0.000000
0.020500 0.062916 0.000000
0.020000 0.062585 0.000000
0.019500 0.062254 0.000000
0.019000 0.061923 0.000000
0.018500 0.061592 0.000000
0.018000 0.061261 0.000000
0.017500 0.060929 0.000000
0.017000 0.060598 0.000000
0.016500 0.060267 0.000000
0.016000 0.059936 0.000000
0.015500 0.059605 0.000000
0.015000 0.059273 0.000000
0.014500 0.058942 0.000000
0.014000 0.058611 0.000000
0.013500 0.058280 0.000000
0.013000 0.057949 0.000000
0.012500 0.057617 0.000000
0.012000 0.057286 0.000000
0.011500 0.056955 0.000000
0.011000 0.056624 0.000000
0.010500 0.056293 0.000000
0.010000 0.055961 0.000000
0.009500 0.055630 0.000000
0.009000 0.055299 0.000000
0.008500 0.054968 0.000000
0.008000 0.054637 0.000000
0.007500 0.054305 0.000000
0.007000 0.053974 0.000000
0.006500 0.053643 0.000000
0.006000 0.053312 0.000000
0.005500 0.052981 0.000000
0.005000 0.052650 0.000000
0.004500 0.052318 0.000000
0.004000 0.051987 0.000000
0.003500 0.051656 0.000000
0.003000 0.051325 0.000000
0.002500 0.050994 0.000000
0.002000 0.050662 0.000000
0.001500 0.050331 0.000000
0.055990 0.093902 0.000000
0.056479 0.094245 0.000000
0.056969 0.094587 0.000000
0.057458 0.094930 0.000000
0.057948 0.095272 0.000000
0.058437 0.095615 0.000000
0.058927 0.095957 0.000000
0.059417 0.096300 0.000000
0.059906 0.096642 0.000000
0.060396 0.096985 0.000000
0.060885 0.097327 0.000000
0.061375 0.097670 0.000000
0.061865 0.098012 0.000000
0.062354 0.098355 0.000000
0.062844 0.098697 0.000000
0.063333 0.099040 0.000000
0.063823 0.099382 0.000000
0.064312 0.099725 0.000000
0.064802 0.100067 0.000000
0.065292 0.100410 0.000000
0.065781 0.100752 0.000000
0.066271 0.101095 0.000000
0.066760 0.101437 0.000000
0.067250 0.101780 0.000000
0.067740 0.102122 0.000000
0.068229 0.102465 0.000000
0.068719 0.102807 0.000000
0.069208 0.103150 0.000000
0.069698 0.103492 0.000000
0.070187 0.103835 0.000000
0.070677 0.104177 0.000000
0.071167 0.104520 0.000000
0.071656 0.104862 0.000000
0.072146 0.105205 0.000000
0.072635 0.105547 0.000000
0.073125 0.105890 0.000000
0.073615 0.106232 0.000000
0.074104 0.106575 0.000000
0.074594 0.106917 0.000000
0.075083 0.107260 0.000000
0.075573 0.107602 0.000000
0.076062 0.107945 0.000000
0.076552 0.108287 0.000000
0.077042 0.108630 0.000000
0.077531 0.108972 0.000000
0.078021 0.109315 0.000000
0.078510 0.109658 0.000000
0.043942 0.087469 0.000000
0.035556 0.157037 0.000000
0.044420 0.002920 0.000000
0.077037 0.038519 0.000000
0.002963 0.121481 0.000000
0.077037 0.059259 0.000000
0.002963 0.109630 0.000000
0.002923 0.098139 0.000000
0.077153 0.126913 0.000000
0.002808 0.032596 0.000000
0.077140 0.071061 0.000000
0.002963 0.085926 0.000000
0.002963 0.136296 0.000000
0.077041 0.023701 0.000000
0.056296 0.157037 0.000000
0.032593 0.002963 0.000000
0.077037 0.080000 0.000000
0.002813 0.077135 0.000000
0.077037 0.142222 0.000000
0.017778 0.157037 0.000000
0.062222 0.002963 0.000000
0.076992 0.088722 0.000000
0.002945 0.020743 0.000000
0.017777 0.002962 0.000000
0.002801 0.068434 0.000000
0.002959 0.011851 0.000000
0.065186 0.157038 0.000000
0.002963 0.148148 0.000000
0.077037 0.011852 0.000000
0.076887 0.094740 0.000000
0.077092 0.115875 0.000000
0.002677 0.044265 0.000000
0.077038 0.148148 0.000000
0.002985 0.062165 0.000000
0.077037 0.047407 0.000000
0.011852 0.002963 0.000000
[...]
POINT_DATA 4677
SCALARS UX float 1
LOOKUP_TABLE default
-0.000000
0.000001
-0.026863
-0.094546
-0.029676
-0.039272
-0.048410
-0.013014
-0.051627
-0.016311
-0.000000
-0.000000
-0.000000
-0.000000
-0.000000
-0.000000
-0.000000
-0.000000
-0.000000
-0.000000
-0.000000
-0.000000
-0.000000
0.000000
0.000000
0.000000
0.000000
0.000000
0.000000
0.000000
0.000000
0.000000
0.000000
0.000000
0.000000
-0.000000
0.003847
0.005978
0.007572
0.008957
0.010205
0.011336
0.012322
0.013113
0.013736
0.014177
0.014613
0.014787
0.014834
0.014778
0.014519
0.014344
0.013851
0.012592
0.011193
0.009451
0.008198
0.007234
0.006635
0.006966
0.007615
0.007200
0.006117
0.004837
0.003330
0.001965
-0.000241
-0.002760
-0.005238
-0.007654
-0.010078
-0.012335
-0.015106
-0.018688
-0.022898
-0.024124
-0.025460
-0.031814
-0.033847
-0.035899
-0.037701
-0.038654
-0.038729
-0.038967
-0.037346
-0.037416
-0.035552
-0.032389
-0.029571
-0.029864
-0.033965
-0.039271
-0.042599
-0.047139
-0.051738
-0.055588
-0.058519
-0.061185
-0.063832
-0.066529
-0.069159
-0.071659
-0.074098
-0.076399
-0.078448
-0.080376
-0.082106
-0.083714
-0.085222
-0.086643
-0.088003
-0.089335
-0.090649
-0.091942
-0.093259
-0.094433
-0.094205
-0.093867
-0.093450
-0.092993
-0.092543
-0.092153
-0.091846
-0.091652
-0.091574
-0.091558
-0.091411
-0.091061
-0.090373
-0.089363
-0.088046
-0.086456
-0.084655
-0.082723
-0.080732
-0.078829
-0.077125
-0.075614
-0.074529
-0.073791
-0.073174
-0.071942
-0.070034
-0.067952
-0.065686
-0.063426
-0.061195
-0.059088
-0.057037
-0.055265
-0.053663
-0.052240
-0.051187
-0.050562
-0.050372
-0.050433
-0.047314
-0.040235
-0.034788
-0.030959
-0.028460
-0.026249
-0.024300
-0.022299
-0.019769
-0.016576
-0.012152
-0.006407
-0.029799
-0.031451
-0.031995
-0.035460
-0.034631
-0.031329
-0.034568
-0.035781
-0.037436
-0.038594
-0.039703
-0.040174
-0.039754
-0.038438
-0.041440
-0.041545
-0.041594
-0.041300
-0.042276
-0.044230
-0.043763
-0.046504
-0.036808
-0.035749
-0.042557
-0.039742
-0.037507
-0.035909
-0.033963
-0.035627
-0.032829
-0.024323
-0.025496
-0.028484
-0.026619
-0.029036
-0.031579
-0.023408
-0.021443
-0.023389
-0.021937
-0.020591
-0.017427
-0.013364
-0.039986
-0.036544
-0.034946
-0.033862
-0.032063
-0.031215
-0.030766
-0.030399
-0.030430
-0.030194
-0.030156
-0.030429
-0.030722
-0.031025
-0.031319
-0.031570
-0.031675
-0.031671
-0.031527
-0.031530
-0.031524
-0.031347
-0.030831
-0.030244
-0.029238
-0.028397
-0.048313
-0.049033
-0.049605
-0.049845
-0.049997
-0.050154
-0.050268
-0.050368
-0.050383
-0.050394
-0.050384
-0.050350
-0.050309
-0.050288
-0.050181
-0.050094
-0.050010
-0.049937
-0.049881
-0.049843
-0.049825
-0.049826
-0.049847
-0.049888
-0.049940
-0.050010
-0.050092
-0.050186
-0.050282
-0.050386
-0.050487
-0.050584
-0.050677
-0.050762
-0.050842
-0.050916
-0.050985
-0.051047
-0.051104
-0.051161
-0.051217
-0.051275
-0.051334
-0.051398
-0.051464
-0.051543
-0.012340
-0.012180
-0.012077
-0.011917
-0.012090
-0.012273
-0.012516
-0.012746
-0.012995
-0.013246
-0.013501
-0.013761
-0.014035
-0.014314
-0.014585
-0.014858
-0.015117
-0.015365
-0.015595
-0.015806
-0.015988
-0.016136
-0.016257
-0.016358
-0.016436
-0.016511
-0.016571
-0.016620
-0.016670
-0.016707
-0.016726
-0.016726
-0.016715
-0.016693
-0.016660
-0.016629
-0.016597
-0.016564
-0.016520
-0.016485
-0.016468
-0.016437
-0.016403
-0.016354
-0.016322
-0.016294
-0.016300
-0.041380
-0.076337
0.000203
0.013539
-0.089252
0.007343
-0.084854
-0.077130
-0.037087
-0.036851
0.003895
-0.070861
-0.090192
0.011510
-0.059267
-0.000042
0.004324
-0.068030
-0.041500
-0.086534
0.000408
0.000569
-0.024156
-0.000768
-0.062006
-0.017601
-0.050915
-0.092098
0.007265
-0.004113
-0.027152
-0.049122
-0.039421
-0.057416
0.012731
-0.001243
-0.042384
-0.091901
0.001147
-0.055074
-0.009135
-0.040910
-0.071790
-0.066602
-0.000316
-0.089745
0.012703
-0.083564
0.000232
-0.032917
-0.028734
-0.048544
-0.035412
-0.030766
-0.047101
-0.054453
-0.065963
0.003243
-0.073440
-0.070032
0.004582
0.004255
0.010998
-0.081156
-0.011819
-0.087735
-0.032087
-0.028798
0.013283
-0.080169
-0.041904
0.000188
0.000243
-0.089637
0.013110
0.000232
-0.022278
-0.000670
-0.057081
-0.064005
-0.091058
0.009694
-0.013853
-0.001587
-0.007604
-0.089240
0.000717
-0.039483
-0.002547
-0.002838
-0.092938
0.003869
-0.093186
0.001616
-0.017614
-0.043697
-0.050954
-0.052232
-0.014654
-0.044853
0.000257
0.012099
0.000835
-0.030240
-0.067503
-0.033085
-0.064650
-0.087907
-0.044482
-0.000646
-0.047266
-0.020346
-0.055067
0.001906
-0.012575
-0.060356
-0.014985
-0.003357
-0.006435
-0.042414
-0.091640
0.002417
-0.021154
-0.049995
-0.006285
-0.059957
-0.001393
-0.064113
-0.051888
0.002123
-0.035655
-0.044568
-0.015455
-0.069667
0.004727
-0.072228
-0.075376
0.004154
0.005710
-0.079248
-0.083122
0.009529
-0.086497
0.012054
-0.038714
0.013094
-0.088696
-0.074142
-0.089524
0.013414
-0.078288
0.000195
-0.069165
-0.026350
-0.081927
0.000194
0.000135
-0.041625
-0.089902
0.012185
-0.061589
-0.000271
-0.085088
0.000301
-0.020162
-0.000639
-0.054705
-0.090576
0.010696
-0.000966
-0.091581
0.008560
-0.046302
-0.039755
-0.087909
0.000542
-0.039145
-0.036655
-0.090577
0.000917
-0.092563
0.005762
-0.051181
-0.017222
-0.017131
-0.053081
-0.051065
-0.039062
-0.044557
-0.013100
-0.053197
-0.033231
-0.046769
-0.034469
-0.032369
-0.031397
0.004078
-0.072984
-0.081593
-0.034711
-0.045350
-0.078024
-0.084705
-0.062683
0.000373
0.010555
-0.002508
-0.089038
-0.087595
-0.007451
0.006879
-0.090166
0.001142
-0.018434
-0.050575
-0.039275
0.007848
-0.084908
0.010420
-0.086921
-0.069577
-0.088174
-0.056508
-0.001428
-0.002558
-0.091233
-0.050133
-0.043843
-0.050614
-0.018729
-0.048790
-0.025342
0.002348
-0.058014
-0.036385
-0.067161
-0.052387
0.000121
0.001340
-0.077499
-0.014029
-0.038037
-0.043620
-0.047891
0.001363
0.000632
-0.069450
0.012043
0.000044
0.000192
-0.027385
0.011432
0.011666
0.000306
0.000305
-0.068274
-0.042885
-0.066935
-0.081508
-0.062389
-0.087613
-0.087734
-0.044372
-0.042457
-0.043522
-0.074428
-0.024459
-0.000532
-0.058235
-0.018104
-0.001279
0.008964
0.000638
-0.022368
-0.011305
-0.004422
-0.043311
-0.090318
0.001814
0.004023
-0.033643
-0.046541
-0.042432
-0.017699
-0.050778
-0.051706
-0.017342
-0.051173
-0.015684
-0.040049
-0.041678
-0.032994
-0.035435
-0.045798
0.000041
0.009999
-0.002380
-0.067052
-0.069558
-0.085643
-0.030448
-0.045712
-0.000244
-0.001116
-0.062797
-0.022595
-0.018426
-0.004972
-0.050168
-0.019387
-0.040734
-0.029046
-0.064056
0.011785
0.000253
-0.047784
-0.002153
-0.058454
-0.045643
-0.086063
-0.089878
0.002874
-0.031070
-0.060762
-0.004406
-0.034725
-0.056637
-0.079998
-0.065760
-0.071073
-0.074530
0.011244
0.002648
-0.031866
0.005865
-0.083557
0.009785
-0.000671
-0.086165
-0.040969
-0.000958
-0.065933
-0.072353
-0.000198
-0.079777
-0.088543
0.010884
0.000321
-0.083126
-0.024811
-0.067460
0.010635
-0.087326
0.000478
-0.086162
-0.044471
0.009830
-0.015867
-0.008505
0.008003
-0.047577
-0.053048
-0.001847
-0.089588
0.000856
-0.076239
-0.088980
-0.090729
-0.046536
0.005565
0.001453
-0.044099
-0.035755
-0.046579
-0.045853
-0.051898
-0.047131
-0.038946
-0.015202
-0.049388
-0.022354
-0.037147
-0.042040
-0.017160
-0.051614
-0.050014
-0.015736
-0.020175
-0.034239
-0.029034
-0.031274
-0.050940
-0.047916
-0.047029
-0.027350
0.003635
-0.075194
-0.064936
-0.030644
-0.037185
-0.070019
-0.063001
-0.044912
-0.080967
-0.003183
-0.087524
0.000530
0.008891
-0.022760
-0.055865
-0.085615
-0.081975
0.001328
0.006375
0.008058
-0.000099
-0.024182
-0.074195
-0.084423
-0.085543
-0.047798
-0.016499
-0.003622
0.004075
-0.088494
-0.002754
-0.048712
-0.033005
-0.043945
-0.060893
-0.071169
-0.065189
-0.068660
-0.000447
-0.000247
0.010221
-0.078269
0.009763
-0.071675
0.000151
-0.040719
-0.038532
-0.046293
-0.064880
-0.001153
-0.000541
-0.064868
0.009385
-0.047018
-0.027708
-0.086470
-0.082621
-0.001569
0.010404
-0.020627
-0.060787
-0.002424
-0.001531
0.000722
-0.077889
-0.055004
-0.051595
-0.085797
0.008143
-0.012626
-0.044983
-0.006529
0.000318
-0.088125
-0.089339
0.001731
0.002214
-0.043490
-0.042531
-0.029528
-0.030116
-0.050417
-0.050839
-0.018450
-0.017276
-0.041730
-0.051428
-0.048817
-0.015848
-0.059204
-0.043694
-0.028377
-0.001381
-0.043044
-0.001188
-0.046901
-0.049495
-0.031628
-0.040737
-0.021503
-0.035268
-0.039787
0.008081
-0.002737
-0.083595
-0.000003
-0.003315
-0.043234
-0.047427
-0.035129
-0.003213
-0.063465
-0.084289
-0.080508
-0.001678
-0.048070
-0.050005
0.000657
0.007619
-0.022862
-0.059143
-0.086001
-0.087922
-0.026881
-0.024563
0.008870
-0.041298
-0.005396
-0.004702
0.001794
-0.018868
-0.010221
0.003055
-0.028716
-0.029743
-0.066176
0.007492
-0.028534
-0.028188
-0.000620
-0.073514
0.009470
0.001641
-0.072339
-0.039090
-0.080625
-0.034096
-0.083552
0.000145
-0.085268
-0.048577
-0.065989
-0.063359
-0.002572
-0.043777
-0.059475
-0.004627
0.000396
-0.003054
-0.063828
-0.020891
-0.041311
-0.083614
0.008863
-0.013746
-0.076194
-0.048680
-0.084121
0.007308
-0.002975
-0.052806
0.000984
-0.086951
-0.067925
-0.006322
-0.051038
-0.079406
0.005292
-0.088743
-0.087071
0.009557
-0.017414
-0.050812
-0.046142
-0.056950
-0.048987
-0.043962
-0.027935
-0.040155
-0.037893
-0.048328
-0.048054
-0.045797
-0.028962
-0.041875
-0.037511
-0.068000
-0.061713
-0.064768
-0.051318
-0.046465
0.005396
-0.017899
0.000491
0.001840
-0.049771
-0.051380
-0.015961
-0.031047
-0.020259
-0.050622
-0.036913
-0.015377
-0.016945
-0.035700
-0.046206
-0.026021
-0.078565
-0.063077
-0.039469
-0.071314
-0.081405
-0.061439
-0.000200
-0.028423
0.007202
-0.044444
-0.032775
-0.002788
-0.005152
-0.021515
-0.050114
-0.065760
-0.048494
-0.055054
-0.083471
-0.021061
0.001307
-0.044046
0.007229
-0.075952
-0.026943
-0.053141
-0.081946
-0.016929
-0.079007
0.000425
-0.007345
-0.053117
0.005724
-0.059848
0.001338
-0.085387
0.003973
-0.087304
-0.041016
-0.040583
-0.072358
-0.062670
-0.063014
-0.036746
0.005226
-0.001108
-0.064719
-0.040720
0.008517
-0.002492
-0.000260
-0.058515
-0.004096
-0.083261
0.000264
-0.001246
-0.051300
-0.083893
-0.004627
-0.049318
-0.018783
-0.068130
-0.003570
-0.011468
-0.057273
-0.006607
0.008480
-0.061221
0.000950
-0.084816
0.006528
-0.049130
0.008398
-0.086650
-0.017424
-0.074275
-0.081957
0.002345
-0.008153
-0.015286
-0.086477
-0.050569
-0.004316
-0.018410
-0.026075
-0.033963
-0.032193
-0.049265
-0.050381
-0.045796
-0.047300
-0.043893
-0.003779
-0.026191
-0.028081
-0.044298
-0.032271
-0.047270
-0.048824
-0.070613
-0.042254
-0.017894
-0.027143
-0.032288
-0.015072
-0.051837
-0.032996
-0.050780
-0.017503
-0.027401
-0.050680
-0.041738
-0.026468
-0.029960
-0.046560
-0.044139
-0.025283
-0.000963
-0.007101
-0.061635
-0.036249
-0.006997
-0.046239
0.000400
-0.066753
-0.078414
-0.082615
0.005302
-0.028762
-0.025940
0.001189
-0.049030
-0.050260
-0.073762
-0.022733
0.006678
-0.029910
-0.081244
-0.061570
0.006526
-0.009045
-0.005563
-0.055814
-0.052203
-0.085173
-0.081296
-0.045276
-0.068642
-0.076637
-0.040762
-0.081026
-0.026294
-0.000738
-0.002060
-0.014069
0.005670
-0.057369
-0.058524
-0.005485
-0.028161
-0.052156
-0.073614
-0.025782
-0.040648
-0.004452
-0.055988
-0.077411
0.007797
-0.019657
-0.062736
-0.051279
-0.004512
-0.081633
-0.051645
-0.049776
-0.054637
-0.061995
-0.005294
-0.005118
-0.009378
-0.060607
-0.069801
-0.014461
-0.083227
-0.063647
0.006278
0.006878
-0.085844
-0.050490
0.003015
0.004954
-0.019358
-0.084976
-0.083857
0.001682
-0.082550
-0.046185
-0.005046
-0.000038
-0.043236
-0.024192
-0.029305
-0.040561
-0.050393
-0.036853
-0.048453
-0.018758
-0.051155
-0.026253
-0.032952
-0.041502
-0.048338
-0.061488
-0.033978
-0.048061
-0.048082
-0.026557
-0.015691
-0.027905
-0.051688
-0.042286
0.003428
-0.041685
-0.079881
-0.025937
-0.000452
-0.018514
-0.027858
-0.017150
-0.033166
-0.050487
-0.043792
-0.079096
0.004615
-0.025436
-0.036380
-0.060427
-0.000775
-0.059911
0.005298
-0.006860
-0.056610
-0.005974
-0.052659
-0.006364
-0.080964
-0.020114
-0.075645
-0.071500
-0.054024
-0.048619
-0.019939
-0.050137
-0.054475
-0.080354
-0.060470
0.001402
-0.025350
-0.077140
-0.063015
-0.055742
-0.061293
0.004576
-0.083734
0.003781
-0.047038
-0.054520
-0.022625
-0.006044
-0.049564
-0.041035
0.005938
-0.033195
-0.044869
-0.009237
-0.065045
-0.080862
0.006279
-0.005388
-0.075579
-0.058573
-0.017465
-0.010173
-0.005694
-0.001292
-0.008149
-0.079363
-0.003071
0.000131
0.003814
-0.058878
-0.015011
0.000754
-0.082791
-0.077090
-0.068337
0.002267
-0.079808
-0.051686
-0.012221
0.006367
-0.026775
-0.031903
-0.072424
-0.070354
-0.002791
-0.081679
-0.084364
-0.084489
-0.047605
-0.042213
-0.082052
-0.035021
0.001996
-0.066616
-0.004772
-0.046103
-0.025251
-0.045594
-0.048362
-0.040896
-0.026143
-0.042573
-0.028284
-0.027798
-0.038189
-0.025792
-0.036700
-0.018186
-0.017833
-0.025032
-0.047570
-0.014164
-0.000507
-0.055479
-0.032619
-0.031763
-0.050002
-0.053028
-0.075130
-0.012560
-0.025051
-0.080001
-0.042146
-0.050999
-0.055488
-0.024720
-0.038634
-0.030403
-0.050451
-0.030767
-0.047627
-0.020499
-0.016012
-0.046761
-0.047545
-0.024953
-0.024436
-0.003978
-0.074274
-0.058949
-0.010343
-0.001564
-0.076952
-0.030065
-0.006787
-0.048131
-0.068292
-0.055349
-0.076384
-0.079370
-0.079195
0.004460
-0.009910
-0.053150
-0.017929
-0.063574
-0.078104
-0.021485
0.004875
-0.043575
-0.078807
0.004553
-0.025757
-0.067070
-0.012798
-0.000071
0.003481
-0.082261
-0.083045
0.000840
-0.080330
-0.013685
0.000064
-0.002037
-0.024947
-0.019062
-0.011978
-0.059632
-0.008241
0.004798
-0.006292
-0.006427
0.004972
-0.049240
-0.070219
-0.007870
-0.059802
-0.053688
-0.008406
-0.037720
-0.057658
-0.015642
-0.064806
-0.053877
-0.059635
-0.000283
-0.055367
-0.060755
0.002023
-0.054136
-0.050356
-0.082336
-0.058793
-0.006334
-0.069105
-0.024160
-0.073485
-0.079744
0.004508
0.004879
-0.066689
-0.060180
-0.004255
-0.033034
-0.027939
-0.045773
0.002814
-0.047821
-0.026890
-0.028519
-0.034152
-0.078739
-0.036623
-0.051552
-0.051256
-0.035629
-0.042452
-0.050564
-0.040998
-0.038787
-0.048287
-0.001254
-0.021564
-0.025992
-0.035213
-0.049779
-0.024088
-0.045052
-0.053929
-0.024751
-0.074523
-0.047057
-0.019206
-0.025276
-0.040715
-0.044552
-0.046733
-0.024530
-0.050085
-0.011391
-0.017570
-0.032032
-0.029229
-0.042130
-0.053882
-0.029116
-0.014932
-0.030416
-0.078653
-0.045356
-0.047753
-0.030644
-0.023735
-0.024537
-0.057514
-0.038029
-0.058062
-0.068289
-0.032348
0.003245
-0.007568
-0.047517
-0.006613
-0.054927
-0.027053
-0.065931
-0.004220
-0.012515
-0.023864
-0.076391
-0.048220
-0.057532
-0.072855
-0.061659
-0.052414
-0.076757
-0.045006
0.000839
-0.000497
0.002599
-0.019792
-0.052025
-0.070967
-0.025017
0.003381
-0.058260
-0.075528
-0.014821
-0.010075
-0.058549
-0.056383
-0.020369
-0.048843
-0.006134
-0.009931
-0.033573
-0.058967
-0.074408
-0.058034
-0.015302
-0.028400
-0.058106
-0.035987
-0.038792
-0.000938
0.003945
-0.081618
0.003044
-0.022641
-0.011464
-0.080628
-0.078696
-0.006328
0.000336
-0.065022
-0.077846
-0.027784
0.001873
0.004631
-0.025544
-0.005904
0.003310
-0.047538
-0.080141
-0.069851
-0.002051
-0.077365
-0.049567
-0.049585
-0.043390
-0.073065
-0.002242
-0.053899
-0.034864
-0.042581
-0.023708
-0.038857
-0.036594
-0.047646
-0.050078
-0.050960
-0.046758
-0.011072
-0.076577
-0.045971
-0.031765
-0.045527
-0.039928
-0.024094
-0.042791
-0.015987
-0.061864
-0.023359
-0.050089
-0.025885
-0.006512
-0.010939
0.006337
-0.018694
-0.026562
-0.024230
-0.029050
-0.017307
-0.010945
-0.063963
-0.025990
-0.076774
-0.052712
-0.052921
-0.053213
-0.006862
-0.031381
-0.023588
-0.028936
-0.007443
-0.024096
-0.023545
-0.044292
-0.074702
-0.064122
-0.011607
-0.013574
-0.033968
-0.046697
-0.001394
-0.077074
0.001603
-0.007753
-0.054993
-0.025723
-0.007581
-0.005915
-0.018199
-0.071304
-0.052721
-0.001265
-0.013479
-0.008233
-0.052534
-0.056583
-0.023037
-0.069801
-0.049832
-0.076983
-0.080178
0.003135
0.000180
-0.067470
-0.023672
-0.011365
-0.074800
0.002873
-0.061360
-0.056830
-0.021727
-0.048116
-0.006538
-0.038178
-0.058008
-0.058157
-0.048270
0.003420
-0.045944
-0.071606
-0.052887
-0.057336
-0.007020
-0.049246
0.003077
-0.061798
-0.075141
0.001585
-0.040486
-0.002301
0.002635
-0.028598
-0.026622
-0.009256
-0.056950
-0.081138
-0.013310
-0.029736
-0.077978
-0.057041
-0.007768
-0.066616
0.002883
-0.000328
-0.058931
-0.005423
-0.073929
-0.072881
-0.075292
-0.077887
-0.051379
-0.016079
-0.011885
-0.035112
-0.047105
-0.003128
-0.063142
-0.026545
-0.027352
-0.024638
-0.023329
-0.049448
-0.025470
0.003033
-0.024279
-0.043765
-0.033507
-0.033050
-0.045670
-0.037788
-0.043173
-0.051469
-0.018307
-0.017935
-0.048345
-0.040686
-0.037118
-0.030641
-0.023873
-0.043206
-0.032728
-0.047736
-0.061099
-0.015774
-0.052136
-0.046905
-0.012474
-0.049716
-0.006812
-0.031701
-0.031625
-0.020000
-0.074606
-0.057590
0.004887
-0.050187
-0.055654
-0.050715
-0.024265
-0.052249
-0.009278
-0.025455
-0.026141
-0.047740
-0.010521
-0.029221
-0.055271
-0.023876
-0.062306
-0.072507
-0.039531
-0.036178
-0.056462
-0.008709
-0.003132
-0.055865
-0.007115
-0.069314
-0.007630
-0.075474
-0.054715
-0.070024
-0.073354
-0.012370
-0.016486
-0.023165
-0.000131
-0.053275
-0.019216
0.001899
-0.078531
-0.051919
-0.027090
-0.076296
-0.051708
-0.023917
-0.003384
-0.035034
-0.024798
0.001476
0.001844
-0.063184
-0.050928
-0.022693
-0.055094
-0.033009
0.003139
-0.046603
-0.009057
-0.008683
-0.074831
-0.045232
-0.010152
-0.079661
-0.056054
-0.008016
-0.031667
-0.042130
-0.075431
-0.078533
-0.012407
-0.003178
-0.067027
0.001491
0.001307
-0.060175
-0.056282
-0.031974
-0.007695
-0.072349
-0.024498
-0.004249
-0.074322
-0.069353
-0.008690
-0.074454
-0.027155
-0.020127
-0.013049
0.001619
-0.057255
-0.049992
-0.049794
-0.073773
-0.025048
-0.048978
-0.056170
-0.056382
-0.046705
0.000264
-0.021685
-0.000821
-0.024255
-0.065706
-0.045100
-0.026171
-0.026161
-0.024282
-0.032345
-0.029365
-0.012025
-0.013379
-0.044593
-0.064913
-0.023408
-0.010924
-0.042187
-0.037011
-0.015779
-0.047179
-0.038558
-0.048509
-0.035309
-0.009536
-0.007939
-0.023083
-0.048189
-0.007191
-0.019603
-0.051288
-0.021119
-0.047457
-0.070465
-0.051960
-0.035768
-0.028112
-0.025076
-0.025443
-0.032854
-0.017562
-0.023049
-0.006212
0.003767
-0.052042
-0.042580
-0.050089
-0.014022
-0.049342
-0.059086
-0.056398
-0.047634
-0.048810
-0.039937
-0.025036
-0.001343
-0.047293
-0.011509
-0.041212
-0.054407
-0.023510
-0.036948
-0.013589
-0.033850
-0.015518
-0.066492
-0.055254
-0.000269
-0.024649
-0.007659
-0.071716
-0.008758
-0.019039
-0.071866
-0.054797
-0.043760
-0.026598
-0.063883
0.001908
-0.009118
-0.030379
-0.072939
-0.005562
-0.038229
-0.013449
-0.051768
-0.072208
-0.056218
-0.051479
-0.045639
-0.024543
-0.023941
0.001609
-0.070168
-0.010525
-0.022555
-0.064079
-0.059633
-0.048461
-0.068409
-0.007814
-0.054278
-0.042316
-0.013781
-0.071512
-0.004235
-0.011404
0.001812
-0.078043
-0.076651
-0.055294
-0.072854
-0.055008
0.000708
-0.033958
-0.048959
-0.074865
-0.006494
-0.012113
-0.061855
-0.057703
-0.060519
-0.007347
-0.014004
-0.038036
-0.007809
-0.072416
0.001330
-0.015232
-0.023414
-0.009809
0.001025
-0.000561
-0.002837
-0.072802
-0.000168
-0.007615
-0.025390
-0.027676
-0.014689
-0.056836
-0.076404
-0.056092
-0.002440
-0.048401
-0.022353
-0.014596
-0.051069
-0.025294
-0.027568
-0.031339
-0.035181
-0.024420
-0.045276
-0.065462
-0.023145
-0.046188
-0.043026
-0.051736
-0.050705
-0.056508
-0.039806
-0.032504
-0.040459
-0.031185
-0.036922
-0.048177
-0.009566
-0.047915
-0.007719
-0.022021
-0.023000
-0.026007
-0.032430
-0.048521
-0.046904
-0.054638
-0.071239
-0.022393
-0.048307
-0.018709
-0.015952
-0.020398
-0.017903
-0.051304
0.005064
-0.049959
-0.029370
-0.028067
-0.049753
-0.049450
-0.008378
-0.004317
-0.030580
-0.039225
-0.070257
-0.039498
-0.016835
-0.015352
-0.054796
-0.008955
-0.070812
-0.025889
-0.006992
-0.002035
-0.073164
-0.054265
-0.008536
-0.009784
-0.056800
-0.011594
-0.019554
-0.068734
-0.071578
-0.054202
-0.070330
-0.010638
-0.000399
-0.004391
-0.017630
-0.001230
0.000576
-0.048542
-0.024234
-0.022505
-0.053818
-0.016678
-0.014046
-0.043008
-0.014577
0.000010
0.000500
-0.009768
-0.050947
-0.073744
-0.077339
-0.035805
-0.059164
-0.065264
-0.055117
-0.007977
-0.053542
-0.008999
-0.050807
-0.055438
-0.025621
-0.012752
-0.031574
-0.000299
-0.013115
-0.010011
-0.061269
-0.015313