# vtk DataFile Version 2.0
Test
ASCII
DATASET POLYDATA
POINTS 4677 float
0.000000 0.000000 0.000000
0.080000 0.000000 0.000000
0.080000 0.160000 0.000000
0.000000 0.160000 0.000000
0.036000 0.073072 0.000000
0.044000 0.086928 0.000000
0.024500 0.065566 0.000000
0.055500 0.093560 0.000000
0.001000 0.050000 0.000000
0.079000 0.110000 0.000000
0.002963 0.000000 0.000000
0.005926 0.000000 0.000000
0.008889 0.000000 0.000000
0.011852 0.000000 0.000000
0.014815 0.000000 0.000000
0.017778 0.000000 0.000000
0.020741 0.000000 0.000000
0.023704 0.000000 0.000000
0.026667 0.000000 0.000000
0.029630 0.000000 0.000000
0.032593 0.000000 0.000000
0.035556 0.000000 0.000000
0.038519 0.000000 0.000000
0.041481 0.000000 0.000000
0.044444 0.000000 0.000000
0.047407 0.000000 0.000000
0.050370 0.000000 0.000000
0.053333 0.000000 0.000000
0.056296 0.000000 0.000000
0.059259 0.000000 0.000000
0.062222 0.000000 0.000000
0.065185 0.000000 0.000000
0.068148 0.000000 0.000000
0.071111 0.000000 0.000000
0.074074 0.000000 0.000000
0.077037 0.000000 0.000000
0.080000 0.002963 0.000000
0.080000 0.005926 0.000000
0.080000 0.008889 0.000000
0.080000 0.011852 0.000000
0.080000 0.014815 0.000000
0.080000 0.017778 0.000000
0.080000 0.020741 0.000000
0.080000 0.023704 0.000000
0.080000 0.026667 0.000000
0.080000 0.029630 0.000000
0.080000 0.032593 0.000000
0.080000 0.035556 0.000000
0.080000 0.038519 0.000000
0.080000 0.041481 0.000000
0.080000 0.044444 0.000000
0.080000 0.047407 0.000000
0.080000 0.050370 0.000000
0.080000 0.053333 0.000000
0.080000 0.056296 0.000000
0.080000 0.059259 0.000000
0.080000 0.062222 0.000000
0.080000 0.065185 0.000000
0.080000 0.068148 0.000000
0.080000 0.071111 0.000000
0.080000 0.074074 0.000000
0.080000 0.077037 0.000000
0.080000 0.080000 0.000000
0.080000 0.082963 0.000000
0.080000 0.085926 0.000000
0.080000 0.088889 0.000000
0.080000 0.091852 0.000000
0.080000 0.094815 0.000000
0.080000 0.097778 0.000000
0.080000 0.100741 0.000000
0.080000 0.103704 0.000000
0.080000 0.106667 0.000000
0.080000 0.109630 0.000000
0.080000 0.112593 0.000000
0.080000 0.115556 0.000000
0.080000 0.118519 0.000000
0.080000 0.121481 0.000000
0.080000 0.124444 0.000000
0.080000 0.127407 0.000000
0.080000 0.130370 0.000000
0.080000 0.133333 0.000000
0.080000 0.136296 0.000000
0.080000 0.139259 0.000000
0.080000 0.142222 0.000000
0.080000 0.145185 0.000000
0.080000 0.148148 0.000000
0.080000 0.151111 0.000000
0.080000 0.154074 0.000000
0.080000 0.157037 0.000000
0.077037 0.160000 0.000000
0.074074 0.160000 0.000000
0.071111 0.160000 0.000000
0.068148 0.160000 0.000000
0.065185 0.160000 0.000000
0.062222 0.160000 0.000000
0.059259 0.160000 0.000000
0.056296 0.160000 0.000000
0.053333 0.160000 0.000000
0.050370 0.160000 0.000000
0.047407 0.160000 0.000000
0.044444 0.160000 0.000000
0.041481 0.160000 0.000000
0.038519 0.160000 0.000000
0.035556 0.160000 0.000000
0.032593 0.160000 0.000000
0.029630 0.160000 0.000000
0.026667 0.160000 0.000000
0.023704 0.160000 0.000000
0.020741 0.160000 0.000000
0.017778 0.160000 0.000000
0.014815 0.160000 0.000000
0.011852 0.160000 0.000000
0.008889 0.160000 0.000000
0.005926 0.160000 0.000000
0.002963 0.160000 0.000000
0.000000 0.157037 0.000000
0.000000 0.154074 0.000000
0.000000 0.151111 0.000000
0.000000 0.148148 0.000000
0.000000 0.145185 0.000000
0.000000 0.142222 0.000000
0.000000 0.139259 0.000000
0.000000 0.136296 0.000000
0.000000 0.133333 0.000000
0.000000 0.130370 0.000000
0.000000 0.127407 0.000000
0.000000 0.124444 0.000000
0.000000 0.121481 0.000000
0.000000 0.118519 0.000000
0.000000 0.115556 0.000000
0.000000 0.112593 0.000000
0.000000 0.109630 0.000000
0.000000 0.106667 0.000000
0.000000 0.103704 0.000000
0.000000 0.100741 0.000000
0.000000 0.097778 0.000000
0.000000 0.094815 0.000000
0.000000 0.091852 0.000000
0.000000 0.088889 0.000000
0.000000 0.085926 0.000000
0.000000 0.082963 0.000000
0.000000 0.080000 0.000000
0.000000 0.077037 0.000000
0.000000 0.074074 0.000000
0.000000 0.071111 0.000000
0.000000 0.068148 0.000000
0.000000 0.065185 0.000000
0.000000 0.062222 0.000000
0.000000 0.059259 0.000000
0.000000 0.056296 0.000000
0.000000 0.053333 0.000000
0.000000 0.050370 0.000000
0.000000 0.047407 0.000000
0.000000 0.044444 0.000000
0.000000 0.041481 0.000000
0.000000 0.038519 0.000000
0.000000 0.035556 0.000000
0.000000 0.032593 0.000000
0.000000 0.029630 0.000000
0.000000 0.026667 0.000000
0.000000 0.023704 0.000000
0.000000 0.020741 0.000000
0.000000 0.017778 0.000000
0.000000 0.014815 0.000000
0.000000 0.011852 0.000000
0.000000 0.008889 0.000000
0.000000 0.005926 0.000000
0.000000 0.002963 0.000000
0.035500 0.072746 0.000000
0.035000 0.072419 0.000000
0.034500 0.072093 0.000000
0.034000 0.071767 0.000000
0.033500 0.071440 0.000000
0.033000 0.071114 0.000000
0.032500 0.070788 0.000000
0.032000 0.070461 0.000000
0.031500 0.070135 0.000000
0.031000 0.069809 0.000000
0.030500 0.069482 0.000000
0.030000 0.069156 0.000000
0.029500 0.068829 0.000000
0.029000 0.068503 0.000000
0.028500 0.068177 0.000000
0.028000 0.067850 0.000000
0.027500 0.067524 0.000000
0.027000 0.067198 0.000000
0.026500 0.066871 0.000000
0.026000 0.066545 0.000000
0.025500 0.066219 0.000000
0.025000 0.065892 0.000000
0.044500 0.087216 0.000000
0.045000 0.087505 0.000000
0.045500 0.087793 0.000000
0.046000 0.088081 0.000000
0.046500 0.088370 0.000000
0.047000 0.088658 0.000000
0.047500 0.088946 0.000000
0.048000 0.089235 0.000000
0.048500 0.089523 0.000000
0.049000 0.089811 0.000000
0.049500 0.090100 0.000000
0.050000 0.090388 0.000000
0.050500 0.090677 0.000000
0.051000 0.090965 0.000000
0.051500 0.091253 0.000000
0.052000 0.091542 0.000000
0.052500 0.091830 0.000000
0.053000 0.092118 0.000000
0.053500 0.092407 0.000000
0.054000 0.092695 0.000000
0.054500 0.092983 0.000000
0.055000 0.093272 0.000000
0.043704 0.086415 0.000000
0.043407 0.085902 0.000000
0.043111 0.085388 0.000000
0.042815 0.084875 0.000000
0.042519 0.084362 0.000000
0.042222 0.083849 0.000000
0.041926 0.083336 0.000000
0.041630 0.082823 0.000000
0.041333 0.082309 0.000000
0.041037 0.081796 0.000000
0.040741 0.081283 0.000000
0.040444 0.080770 0.000000
0.040148 0.080257 0.000000
0.039852 0.079743 0.000000
0.039556 0.079230 0.000000
0.039259 0.078717 0.000000
0.038963 0.078204 0.000000
0.038667 0.077691 0.000000
0.038370 0.077177 0.000000
0.038074 0.076664 0.000000
0.037778 0.076151 0.000000
0.037481 0.075638 0.000000
0.037185 0.075125 0.000000
0.036889 0.074612 0.000000
0.036593 0.074098 0.000000
0.036296 0.073585 0.000000
0.024000 0.065235 0.000000
0.023500 0.064904 0.000000
0.023000 0.064572 0.000000
0.022500 0.064241 0.000000
0.022000 0.063910 0.000000
0.021500 0.063579 0.000000
0.021000 0.063248 0.000000
0.020500 0.062916 0.000000
0.020000 0.062585 0.000000
0.019500 0.062254 0.000000
0.019000 0.061923 0.000000
0.018500 0.061592 0.000000
0.018000 0.061261 0.000000
0.017500 0.060929 0.000000
0.017000 0.060598 0.000000
0.016500 0.060267 0.000000
0.016000 0.059936 0.000000
0.015500 0.059605 0.000000
0.015000 0.059273 0.000000
0.014500 0.058942 0.000000
0.014000 0.058611 0.000000
0.013500 0.058280 0.000000
0.013000 0.057949 0.000000
0.012500 0.057617 0.000000
0.012000 0.057286 0.000000
0.011500 0.056955 0.000000
0.011000 0.056624 0.000000
0.010500 0.056293 0.000000
0.010000 0.055961 0.000000
0.009500 0.055630 0.000000
0.009000 0.055299 0.000000
0.008500 0.054968 0.000000
0.008000 0.054637 0.000000
0.007500 0.054305 0.000000
0.007000 0.053974 0.000000
0.006500 0.053643 0.000000
0.006000 0.053312 0.000000
0.005500 0.052981 0.000000
0.005000 0.052650 0.000000
0.004500 0.052318 0.000000
0.004000 0.051987 0.000000
0.003500 0.051656 0.000000
0.003000 0.051325 0.000000
0.002500 0.050994 0.000000
0.002000 0.050662 0.000000
0.001500 0.050331 0.000000
0.055990 0.093902 0.000000
0.056479 0.094245 0.000000
0.056969 0.094587 0.000000
0.057458 0.094930 0.000000
0.057948 0.095272 0.000000
0.058437 0.095615 0.000000
0.058927 0.095957 0.000000
0.059417 0.096300 0.000000
0.059906 0.096642 0.000000
0.060396 0.096985 0.000000
0.060885 0.097327 0.000000
0.061375 0.097670 0.000000
0.061865 0.098012 0.000000
0.062354 0.098355 0.000000
0.062844 0.098697 0.000000
0.063333 0.099040 0.000000
0.063823 0.099382 0.000000
0.064312 0.099725 0.000000
0.064802 0.100067 0.000000
0.065292 0.100410 0.000000
0.065781 0.100752 0.000000
0.066271 0.101095 0.000000
0.066760 0.101437 0.000000
0.067250 0.101780 0.000000
0.067740 0.102122 0.000000
0.068229 0.102465 0.000000
0.068719 0.102807 0.000000
0.069208 0.103150 0.000000
0.069698 0.103492 0.000000
0.070187 0.103835 0.000000
0.070677 0.104177 0.000000
0.071167 0.104520 0.000000
0.071656 0.104862 0.000000
0.072146 0.105205 0.000000
0.072635 0.105547 0.000000
0.073125 0.105890 0.000000
0.073615 0.106232 0.000000
0.074104 0.106575 0.000000
0.074594 0.106917 0.000000
0.075083 0.107260 0.000000
0.075573 0.107602 0.000000
0.076062 0.107945 0.000000
0.076552 0.108287 0.000000
0.077042 0.108630 0.000000
0.077531 0.108972 0.000000
0.078021 0.109315 0.000000
0.078510 0.109658 0.000000
0.043942 0.087469 0.000000
0.035556 0.157037 0.000000
0.044420 0.002920 0.000000
0.077037 0.038519 0.000000
0.002963 0.121481 0.000000
0.077037 0.059259 0.000000
0.002963 0.109630 0.000000
0.002923 0.098139 0.000000
0.077153 0.126913 0.000000
0.002808 0.032596 0.000000
0.077140 0.071061 0.000000
0.002963 0.085926 0.000000
0.002963 0.136296 0.000000
0.077041 0.023701 0.000000
0.056296 0.157037 0.000000
0.032593 0.002963 0.000000
0.077037 0.080000 0.000000
0.002813 0.077135 0.000000
0.077037 0.142222 0.000000
0.017778 0.157037 0.000000
0.062222 0.002963 0.000000
0.076992 0.088722 0.000000
0.002945 0.020743 0.000000
0.017777 0.002962 0.000000
0.002801 0.068434 0.000000
0.002959 0.011851 0.000000
0.065186 0.157038 0.000000
0.002963 0.148148 0.000000
0.077037 0.011852 0.000000
0.076887 0.094740 0.000000
0.077092 0.115875 0.000000
0.002677 0.044265 0.000000
0.077038 0.148148 0.000000
0.002985 0.062165 0.000000
0.077037 0.047407 0.000000
0.011852 0.002963 0.000000
[...]
POINT_DATA 4677
SCALARS UX float 1
LOOKUP_TABLE default
-0.000000
0.000000
0.023556
0.000036
-0.000199
0.001245
-0.008189
0.010589
-0.013730
0.018748
-0.000000
-0.000000
-0.000000
-0.000000
-0.000000
-0.000000
-0.000000
-0.000000
-0.000000
-0.000000
-0.000000
-0.000000
-0.000000
0.000000
0.000000
0.000000
0.000000
0.000000
0.000000
0.000000
0.000000
0.000000
0.000000
0.000000
0.000000
-0.000000
0.002236
0.003418
0.004291
0.005037
0.005705
0.006318
0.006884
0.007411
0.007922
0.008424
0.008932
0.009431
0.009942
0.010458
0.010806
0.011454
0.011869
0.012224
0.012527
0.012816
0.013144
0.013517
0.013911
0.014230
0.014581
0.015263
0.015646
0.016276
0.016530
0.016876
0.017334
0.017563
0.017889
0.018236
0.018589
0.018865
0.018988
0.019212
0.019291
0.019302
0.019490
0.019653
0.020038
0.020271
0.020345
0.020710
0.021086
0.021259
0.021618
0.022110
0.022421
0.022640
0.023027
0.022692
0.021623
0.020820
0.020157
0.019127
0.018173
0.017451
0.016459
0.015717
0.014742
0.014006
0.013038
0.012386
0.011609
0.010817
0.009778
0.009078
0.008062
0.007326
0.006381
0.005524
0.004659
0.003782
0.002879
0.001941
0.001008
-0.000045
-0.000216
-0.000482
-0.000836
-0.001263
-0.001730
-0.002115
-0.002829
-0.003608
-0.004165
-0.004605
-0.005068
-0.005565
-0.006094
-0.006406
-0.006909
-0.007373
-0.007867
-0.008089
-0.008596
-0.009108
-0.009636
-0.010199
-0.010768
-0.011245
-0.011924
-0.012415
-0.012938
-0.013266
-0.013553
-0.013844
-0.013945
-0.014185
-0.014372
-0.014571
-0.014374
-0.014019
-0.013586
-0.013331
-0.013055
-0.012790
-0.012387
-0.012081
-0.011689
-0.011210
-0.010859
-0.010312
-0.010000
-0.009228
-0.008120
-0.006950
-0.005552
-0.003874
0.000293
-0.000244
-0.000561
-0.001096
-0.001490
-0.002199
-0.001844
-0.002360
-0.002742
-0.003102
-0.003473
-0.003910
-0.004325
-0.004768
-0.005171
-0.005584
-0.006054
-0.006443
-0.006781
-0.007063
-0.007449
-0.007832
0.001837
0.002302
0.002898
0.002523
0.003006
0.003800
0.004401
0.004392
0.004391
0.005148
0.006151
0.006652
0.007024
0.005397
0.006058
0.007463
0.007968
0.008436
0.010597
0.008110
0.008761
0.009650
0.001400
0.001341
0.001341
0.001371
0.001351
0.001313
0.001237
0.001157
0.001193
0.001120
0.001074
0.001035
0.000959
0.000901
0.000809
0.000743
0.000681
0.000617
0.000548
0.000508
0.000442
0.000418
0.000409
0.000400
0.000401
0.000321
-0.008250
-0.008534
-0.008607
-0.008703
-0.008799
-0.008913
-0.009039
-0.009171
-0.009311
-0.009443
-0.009570
-0.009728
-0.009860
-0.010030
-0.010180
-0.010290
-0.010438
-0.010620
-0.010751
-0.010902
-0.011046
-0.011194
-0.011308
-0.011434
-0.011560
-0.011684
-0.011804
-0.011920
-0.012033
-0.012141
-0.012250
-0.012361
-0.012471
-0.012582
-0.012687
-0.012790
-0.012891
-0.012990
-0.013086
-0.013179
-0.013267
-0.013352
-0.013435
-0.013512
-0.013588
-0.013660
0.010828
0.010895
0.010939
0.011030
0.011105
0.011277
0.011436
0.011556
0.011702
0.011833
0.012003
0.012095
0.012316
0.012508
0.012662
0.012809
0.012987
0.013161
0.013356
0.013549
0.013731
0.013907
0.014078
0.014253
0.014417
0.014618
0.014814
0.015015
0.015221
0.015378
0.015599
0.015766
0.015956
0.016142
0.016327
0.016511
0.016695
0.016878
0.017060
0.017240
0.017421
0.017598
0.017791
0.017944
0.018186
0.018418
0.018548
0.001626
0.010348
0.000017
0.009254
-0.004686
0.011801
-0.006576
-0.008178
0.019004
-0.011411
0.013193
-0.010428
-0.001909
0.006682
0.016087
-0.000220
0.014836
-0.012203
0.020508
0.005385
0.000319
0.016139
-0.009776
-0.000591
-0.013163
-0.007373
0.018753
0.000168
0.004230
0.016683
0.018279
-0.012699
0.021240
-0.013571
0.010677
-0.001039
0.020486
0.001929
0.000760
-0.013661
0.017322
0.019536
0.012031
0.013713
-0.000324
-0.003176
0.007713
0.007020
0.000214
0.022267
0.018254
-0.012377
0.001924
0.018567
-0.012138
-0.014019
-0.012603
0.015460
-0.009211
-0.011143
0.012398
0.013483
0.011319
-0.007251
0.017657
-0.005678
-0.011050
-0.010712
0.009685
0.008692
0.019831
0.000123
-0.000035
-0.003772
0.008221
-0.000105
-0.009237
-0.000485
0.017145
0.014366
-0.000736
0.005562
-0.006077
-0.001293
-0.004112
0.003707
0.000487
0.021560
-0.001944
-0.002080
0.000791
0.002387
0.000964
0.001083
0.018353
0.001364
-0.013388
-0.013772
0.018210
0.001393
-0.000120
0.008578
0.012516
-0.010489
-0.010094
0.017752
0.014082
-0.002213
0.018916
-0.000861
-0.011914
-0.008532
-0.013298
0.014144
0.016759
0.015696
-0.006511
-0.002189
-0.003628
0.020428
0.001758
0.001616
0.018457
-0.013026
0.017073
-0.013378
0.016568
-0.012938
-0.013784
0.015779
0.018750
-0.011893
0.018532
-0.011674
0.014294
-0.009736
-0.008645
0.012836
0.012091
-0.007783
-0.007030
0.011586
-0.006220
0.011017
0.019328
0.010163
-0.005160
0.011278
-0.004222
0.008731
0.009434
0.000073
0.012713
-0.010291
0.007764
0.000167
-0.000162
0.020202
-0.002605
0.007203
0.015398
-0.000272
0.006188
0.000261
-0.008480
-0.000466
0.017844
-0.001234
0.006146
-0.000656
-0.000256
0.004933
0.019799
0.020910
0.004570
0.000387
0.021195
0.021873
0.002837
0.000613
0.000521
0.003417
-0.013523
0.018561
0.018136
-0.013300
-0.013386
0.001967
0.001142
0.018094
-0.013949
0.017588
-0.011845
0.002161
0.002043
0.002378
0.011046
-0.008039
-0.006245
0.016817
-0.011468
0.009195
0.005794
-0.012254
0.000324
0.006471
0.015751
-0.000306
0.004331
0.016426
0.004140
0.000709
0.000823
0.018098
-0.013185
0.018006
0.010668
-0.005291
0.010148
-0.004384
0.012410
-0.001732
0.017580
-0.001158
-0.001636
0.001482
0.019381
0.020702
-0.013262
0.018416
-0.012481
0.017761
0.013901
-0.012836
0.017692
-0.010984
-0.013517
0.015400
0.014632
-0.007042
0.017524
-0.011217
-0.011472
-0.012169
0.011762
0.012169
-0.009062
0.008102
-0.000364
-0.000233
-0.010126
0.009498
0.009036
0.000125
0.000011
-0.009552
0.018495
0.013400
0.007496
0.015023
-0.003376
-0.002860
0.019314
0.019907
0.018599
0.010879
-0.009632
-0.000557
0.016763
-0.007719
-0.000863
0.005365
0.000533
-0.009040
-0.005259
-0.002804
0.020912
0.002676
0.001224
0.002567
-0.010799
0.001083
0.002003
0.017898
-0.013211
-0.013611
0.018784
-0.013558
0.018175
0.001116
0.002631
0.001902
0.002519
0.001676
-0.000369
0.008314
0.011077
-0.008300
0.012289
-0.002327
-0.010074
0.017568
0.013806
-0.001006
0.014654
-0.008836
-0.007763
-0.002952
-0.012943
0.017692
0.017220
0.002717
-0.011917
0.007653
-0.000039
0.018168
-0.001609
0.016325
0.019196
-0.001183
0.002392
0.001940
0.001914
-0.012498
0.015974
-0.010721
-0.013030
-0.006542
-0.011547
-0.008408
-0.007596
0.007047
0.011293
0.017318
0.010864
-0.005659
0.010456
0.012816
-0.004848
0.018278
0.015325
-0.008845
0.011566
-0.000454
0.008248
-0.000899
0.009809
0.000226
0.006594
-0.009349
0.012905
0.007413
-0.003786
0.000425
0.005052
0.019592
0.005930
-0.006838
-0.004326
0.004779
0.019696
0.018464
-0.001442
0.000228
0.000658
0.009963
0.003548
0.001129
0.020118
0.003417
0.001002
-0.011332
0.016978
-0.011822
0.000901
-0.013486
0.001151
0.002435
0.017691
-0.012654
0.017800
0.001114
0.003321
0.017660
-0.013490
-0.012952
0.017856
0.017983
0.002763
0.002774
0.002853
-0.013206
-0.012032
0.001374
0.003214
0.009999
-0.006082
-0.007589
-0.009984
0.016183
0.011894
-0.011275
-0.011285
0.007201
0.015129
0.000602
0.000479
0.005717
-0.008572
-0.012638
0.004784
-0.005040
0.001015
0.004006
0.009560
-0.000518
0.017335
0.010537
-0.003853
-0.002894
0.018844
-0.006986
-0.002436
0.002678
0.003245
0.011320
-0.012259
0.016759
0.017494
-0.011913
-0.007211
-0.009373
-0.007739
-0.000752
0.010445
0.006808
-0.005718
0.008650
0.011432
-0.000215
-0.011006
0.016941
0.017925
-0.010621
0.014650
0.013264
0.013962
0.009382
0.018465
-0.009779
-0.000735
0.006306
-0.001354
0.007900
-0.008323
0.015567
-0.002077
0.010728
0.000639
0.008838
0.017230
0.018906
-0.001800
0.005162
-0.005685
0.019372
-0.003587
0.000148
0.001139
0.002038
0.001249
0.001537
-0.010972
0.002250
0.002243
0.003193
-0.012989
-0.013092
0.017530
0.017394
0.000804
-0.013192
0.000861
0.017168
-0.012736
0.003018
0.017040
0.014156
0.017382
0.012259
-0.011703
-0.012640
0.001708
0.002696
0.017604
0.001124
0.003632
0.007473
0.009558
-0.002186
-0.000318
0.012364
-0.010833
0.016996
0.016147
0.014034
0.014299
-0.000320
0.006691
-0.001539
-0.011912
0.017669
0.000634
0.005149
0.017152
0.015988
0.001485
0.002894
0.002880
-0.008937
0.006243
0.016353
0.010170
-0.002872
0.001373
-0.007601
-0.004859
0.002115
0.002091
0.016596
-0.007085
0.009910
0.001789
-0.009523
-0.000861
-0.006659
0.008993
0.010149
0.010851
0.016286
-0.005455
0.003221
-0.004487
-0.000065
-0.003402
0.017094
0.013392
-0.010677
0.014720
0.016499
-0.011905
0.011340
0.000313
0.013431
-0.008052
-0.008092
-0.010753
-0.001560
0.006726
-0.006005
0.009717
0.018579
0.005504
0.004593
-0.001820
0.018136
0.000811
-0.000012
0.012529
-0.003475
0.017965
0.007926
0.003375
0.001622
0.004041
0.006263
0.017038
-0.012936
0.001956
-0.012420
-0.012310
0.002617
0.003345
0.000798
0.000838
0.000713
0.000944
-0.011230
0.001920
0.003364
0.003551
-0.006590
-0.011644
-0.010023
-0.013028
0.016942
0.009885
0.017460
0.015061
0.013318
-0.012677
-0.013266
0.016973
0.003159
0.017402
-0.013036
-0.010418
0.017401
0.017196
0.002996
0.001643
0.003337
-0.004757
-0.006814
0.015614
0.010855
-0.001273
-0.010576
-0.000349
-0.009338
0.005513
-0.010832
0.016053
-0.002007
0.013209
-0.007971
0.016139
0.013257
-0.011983
-0.012186
0.005243
0.016983
0.009156
0.015672
0.008263
0.009329
0.002216
0.016824
-0.003869
-0.006840
0.007558
0.000400
-0.003855
0.017790
0.003797
-0.011371
0.001101
0.000879
0.002705
0.002480
0.000649
0.002970
-0.005878
-0.009896
-0.008562
-0.010183
0.009005
0.009264
-0.006201
-0.010509
0.005852
0.012856
-0.000591
-0.012185
0.009829
-0.002735
0.000165
-0.001144
-0.012911
-0.000970
0.011775
0.017340
0.017258
0.012309
-0.002388
-0.005187
0.016864
0.010505
0.007955
0.015273
0.000852
0.000210
0.004365
0.018259
0.007086
0.001997
0.016690
0.010058
0.005998
0.001697
-0.004110
0.016888
0.003701
-0.012678
0.014401
0.016986
0.016852
0.001061
0.003856
-0.012355
-0.012880
0.016625
-0.011532
0.002362
0.014181
0.003545
0.002427
0.000689
0.003409
0.001161
0.000702
-0.006237
0.002872
0.017181
0.002325
0.003552
0.017182
-0.013275
-0.009809
-0.012993
0.016847
0.003655
-0.012810
0.015553
-0.009339
0.003400
0.001397
0.014909
0.003639
0.008307
0.009143
-0.006024
-0.009937
0.011320
-0.011025
0.000489
0.012714
0.007221
0.000533
0.003703
0.003989
0.002601
0.001082
-0.012117
-0.012586
-0.005590
-0.008135
0.004803
-0.009180
-0.001880
0.014861
0.007177
0.010205
-0.003151
0.016617
0.016682
0.002836
0.005642
0.000483
-0.005617
-0.004979
0.002957
-0.004164
-0.008914
-0.000851
-0.001499
0.017125
0.008751
-0.011884
-0.011477
0.012615
0.001825
-0.013300
0.009772
0.003045
-0.010323
0.008708
-0.012015
0.008547
0.008050
-0.007553
-0.009119
0.016470
-0.002408
-0.000665
0.017078
-0.012531
-0.012563
-0.007270
0.013925
0.013549
-0.004468
-0.010916
0.011567
-0.006155
0.001113
0.014144
0.006706
0.005880
0.003311
0.017435
0.002173
0.003293
0.016978
0.004486
0.001727
0.001388
-0.003277
0.015821
0.014644
-0.000072
0.002210
0.016698
0.015979
0.003805
-0.012772
0.015652
0.016270
0.016799
-0.012757
0.003947
0.001009
0.000574
0.000552
-0.010159
0.004152
0.000762
-0.011671
0.002635
0.016631
0.016412
-0.013116
0.002634
0.009265
0.014915
-0.004431
0.003899
-0.000631
0.016624
0.003825
0.016475
0.004019
-0.012572
0.014270
-0.001003
0.006168
0.004347
-0.009807
-0.006491
-0.000644
-0.010064
0.004614
0.012321
-0.011285
0.014211
0.015447
-0.003139
0.001403
-0.007359
-0.004349
0.010204
-0.012226
-0.011832
0.016521
-0.012455
0.015896
-0.002921
-0.009044
0.001308
0.002998
0.008075
-0.005653
0.016382
-0.007763
0.003213
0.003662
0.008145
0.000364
-0.011793
0.016549
0.013329
-0.012323
0.002888
0.004215
-0.009587
-0.010642
0.009502
0.013518
-0.002394
0.007223
0.012029
0.008813
-0.010841
-0.006737
-0.004689
0.008984
-0.001170
0.010795
-0.000367
0.008432
0.000186
0.002706
0.015756
-0.006186
0.000784
0.004906
-0.003863
0.012030
0.001739
0.006346
-0.013023
-0.005334
0.006253
-0.008675
0.015518
-0.005018
-0.005360
-0.001976
0.001965
0.004101
0.002312
0.015990
-0.010352
-0.000097
0.015437
0.008498
-0.005940
0.015249
0.015026
0.003430
0.001913
0.000500
0.003302
0.002323
0.000426
0.001599
0.015816
0.004115
0.016271
0.000715
0.016451
0.016277
0.004162
0.000906
0.016789
-0.000414
-0.011550
0.000902
0.005120
-0.012535
-0.013635
-0.005288
0.017126
0.003971
-0.003464
0.002571
-0.012611
-0.013035
-0.008740
0.014994
0.004397
-0.012479
0.004390
-0.011317
0.016703
0.016404
0.001650
0.000320
0.003406
0.004254
0.007741
-0.003797
-0.005816
0.010290
-0.000990
-0.000056
0.015301
0.014321
-0.011486
0.011627
-0.011252
0.007764
0.002251
0.005935
0.006466
0.008472
-0.012346
-0.006588
0.014054
-0.002843
-0.007610
0.007393
0.002735
-0.001435
0.003432
0.004883
-0.005132
-0.005360
0.000255
0.002594
0.004447
0.003156
0.000954
0.000807
0.016470
0.007666
-0.001428
-0.008291
0.016231
0.009281
0.015544
0.011480
0.008002
0.013591
0.012872
0.004202
-0.012071
0.011213
0.008240
-0.009398
-0.011909
-0.003941
-0.009880
-0.011019
0.016256
-0.005542
-0.012774
-0.006987
-0.000098
0.016144
-0.008333
0.001681
0.015649
-0.012351
0.002540
-0.010332
0.015394
-0.004601
0.004491
0.009445
0.000203
0.005796
0.005036
0.012508
-0.005421
-0.002406
-0.009358
-0.008577
0.014373
0.002140
0.015204
0.002056
0.001533
0.014944
-0.003679
0.014861
-0.012857
-0.012638
0.000682
0.000301
0.015482
0.003232
0.003869
0.000542
-0.001019
0.016353
0.015714
0.004608
-0.012343
0.016139
0.000275
-0.011409
0.003780
-0.004769
0.001160
0.016396
0.004571
0.014414
0.002340
-0.010960
0.004026
-0.012355
0.017121
0.016109
0.000846
0.005256
-0.010152
-0.013609
0.004885
0.016459
-0.008970
-0.002229
0.013497
0.001410
-0.008760
0.004609
0.003736
-0.005233
-0.009695
-0.009335
0.011373
0.014758
0.004258
0.012209
-0.011122
0.013132
0.014655
0.002084
-0.004484
-0.002390
0.016383
0.005187
-0.001900
0.000349
-0.010361
0.009114
-0.005066
-0.012532
-0.000580
0.002556
0.001136
-0.000074
0.002111
-0.006939
-0.012901
-0.004350
0.003118
0.006670
0.015227
-0.003401
0.016140
-0.004208
-0.008182
-0.010870
0.016168
-0.011780
0.007930
0.010507
-0.009253
-0.007532
0.008678
0.015475
-0.005966
-0.008360
-0.006284
0.014375
0.014319
-0.000520
0.002915
0.003972
0.005414
0.016016
0.008720
0.005254
0.001662
0.014786
0.000601
0.013217
0.006855
0.015288
0.007479
0.005473
-0.008086
-0.002888
0.003881
0.014405
0.002938
0.010808
0.007668
0.000497
0.015212
-0.012158
0.000186
-0.004305
-0.001348
-0.013274
0.000689
0.003108
0.004843
0.003657
0.004294
0.000685
-0.012289
-0.012430
0.000172
0.016723
-0.003016
0.002143
0.004987
-0.010529
0.000480
0.004320
0.013745
0.016027
0.014736
-0.008078
-0.012177
0.002444
0.016014
0.009815
0.008544
0.016056
0.005126
0.004076
0.001300
0.015936
-0.004756
-0.004772
0.005006
-0.001207
0.014746
-0.012034
-0.011600
0.013828
0.000886
0.006000
-0.008166
0.007215
0.004020
0.004655
0.013000
-0.000370
-0.004036
0.010350
0.008534
0.014241
-0.010720
-0.000555
0.002496
0.003428
0.014835
0.013962
0.002400
0.013992
-0.002661
-0.006295
-0.003557
-0.011295
0.006748
0.016000
0.011713
-0.011727
-0.005666
0.005238
0.010676
-0.012112
0.006661
0.004750
0.004483
0.000737
-0.004063
-0.007774
0.016187
0.000795
0.007125
0.014395
-0.007297
0.015862
0.000463
0.012865
0.013719
-0.009736
-0.008589
-0.011412
0.003549
0.002303
0.009764
-0.012883
-0.006770
0.013390
-0.011930
0.002511
-0.004312
0.007491
0.001549
0.013699
-0.001154
0.005551
0.001319
0.005623
0.016620
0.014938
0.003394
0.009422
0.014797
0.001061
-0.010607
-0.003601
0.012301
0.004926
0.000335
-0.004873
0.007031
0.008293
-0.003153
-0.002263
0.003081
0.014531
-0.005879
0.007882
-0.009322
0.013664
-0.001758
0.013930
-0.008016
0.001789
0.003441
0.004933
0.014431
0.002708
0.006855
0.015641
0.003013
0.000638
0.000632
0.000062
0.000402
0.000080
-0.012637
0.015892
0.015727
0.000874
0.003471
0.004108
-0.008613
0.004372
-0.010124
0.004671
0.000135
0.014643
0.015793
-0.012129
0.001885
-0.005122
-0.012135
0.012574
0.006024
0.006475
0.015982
-0.001127
-0.010004
0.007825
-0.012164
-0.011038
-0.012256
0.005549
-0.013179
0.007474
0.005200
0.005813
0.001111
0.006854
-0.008014
-0.005091
0.004261
-0.003635
-0.000209
-0.009696
0.013694
-0.009189
0.011696
-0.001132
-0.010471
0.012737
0.010330
0.013521
0.003338
-0.010957
-0.002950
0.007962
0.015779
-0.005565
0.015480
0.000858
0.013726
0.015661
0.001890
0.003630
-0.011824
0.001788
0.001920
-0.012252
0.005838
-0.001591
0.000310
0.003144
0.006511
0.005563
0.013630
-0.012249
0.005291
-0.006428
0.005631
0.002822
0.002034
0.011357
0.015881
0.006792
-0.010245
-0.004074
0.004031
-0.006105
-0.003457
0.014269
0.013066
0.001337
0.005532
0.009771
0.006791
0.011399
0.003714
0.004398
-0.004601
-0.004705
-0.008730
0.014450
0.008726
0.006379
-0.002178
-0.002785
-0.003923
0.006650
0.000293
-0.007794
-0.006649
0.008075
0.003107
0.014010
-0.011956
-0.012003
-0.001358
0.002821
0.013685
-0.010198
-0.009931
0.012883
0.006621
-0.007294
-0.000062
-0.007566
-0.003725
-0.000053
0.002239
0.015229
0.003771
0.000762
0.006753
-0.004800
0.008982
0.002829
0.012899
0.004689
0.007637
0.003450
0.000350
0.015560
-0.000027
0.003919
0.000629
0.004529
0.016157
0.015458
0.005000
0.000162
0.012465
0.015812
-0.012434
0.015692
0.001605
0.010054
-0.012654
-0.009155
0.001440
0.002854
0.005824
0.005457
0.015586
0.005529
0.013035
0.003324
-0.011468
0.000141
-0.012065
-0.005435
-0.011905
0.014347
-0.007763
-0.011060
-0.011667
0.013106
0.005719
0.005728
0.001811
0.006138
0.012522
-0.004597
0.004544
-0.009174
0.009517
0.013713
0.008272
0.010837
-0.009833
0.002954
0.015120
0.012372
0.008212
0.014073
-0.006029
-0.000433
-0.007028
-0.000131
0.001896
-0.003288
0.002200
0.014994
-0.008195
-0.001974
-0.002461
0.000026
0.007274
-0.011230
0.001097
-0.008683
-0.011582
0.012411
0.003217
0.004066
0.002855
0.009648
0.015820
0.005308
0.012677
0.013377
0.000826
-0.003281
0.013162
-0.005601
-0.009854
0.015689
-0.002469
-0.001615
-0.004274
0.005992
0.004957
0.005887
-0.010681
0.007335
0.013049
0.001325
0.005247
-0.011677
0.002728
0.006477
0.006982
0.013487
-0.004347
-0.003808
0.012952
-0.005219
0.013101
0.012077
0.000373
0.004172
0.007864
0.006570
0.011124
0.004628
0.000383
0.006052
0.001630
0.002664
-0.002990
-0.007543
-0.007590
0.015842
0.013273
0.003904
-0.008189
-0.000640
0.012968
-0.007144
0.008933
0.013777
0.002541
0.014725
0.006226
0.000179
0.003508
0.002587
0.012062
0.005849
-0.000155
0.003329
-0.012430
-0.012095
-0.009610
0.000122
0.000687
0.003815
0.007306
0.004386
0.001311
0.015436
-0.000061
0.011783
0.015412
0.005002
0.002201
-0.008560
0.000259
-0.010704
-0.011244
0.009487
0.005566
-0.011403
0.015539
0.015271
0.015606
0.015404
-0.011915
0.003872
-0.011859
0.001163
0.005983
-0.011912
-0.011893
0.013667
0.005330
-0.008001
0.012519
0.001890
-0.009421
0.007629
0.008788
-0.008627
0.011550
0.007768
0.014692
-0.002550
0.002185
0.003518
-0.010580
0.013323
0.013783
0.012276
0.015398
0.015265
-0.002298
-0.001166
-0.007367
0.000473
0.010817
0.003589
-0.001268
0.014985
0.000457
0.001619
-0.011431
0.003524
0.005300
-0.011005
-0.005332
-0.004911
-0.000152
0.006593
0.005447
0.004874
0.005943
-0.011673
0.002279
0.004488
0.013160
0.012666
0.011233
-0.010098
0.012045
-0.005926
0.014576
-0.011958
-0.004239
0.002207
0.009912
0.013729
0.003335
0.006371
0.011005
-0.003089
0.015194
-0.004091
0.014246
-0.000140
0.015189
0.007369
0.012863
0.006480
0.004860
-0.008650
0.006277
-0.007311
0.004159
-0.006954
-0.006161
0.002438
-0.007666
-0.011751
0.012160
0.013049
-0.007469
-0.003754
0.008720
0.006264
0.015451
0.010038
0.004854
0.002907
0.001571
0.015063
0.012399
0.005049
-0.000276
0.000359
0.001246
0.002341
0.006832
-0.009519
0.005870
0.003137
-0.010335
0.003786
0.012631
0.002544
0.004287
-0.000236
-0.000029
0.014943
-0.003171
-0.012281
0.003778
0.005854
0.009065
0.004272
-0.001704
0.015465
-0.000034
-0.006640
-0.011105
0.000404
-0.004894
0.000611
0.007641
-0.011355
0.005597
-0.011684
-0.011932
0.015434
0.015203
0.012595
-0.008844
0.001530
0.001025
0.006043
0.002466
0.006186
-0.003647
0.011108
0.012992
-0.011757
-0.007113
0.005667
0.001233
-0.008821
0.012570
-0.001563
-0.009443
0.011084
-0.000049
0.011987
-0.010716
0.010404
0.009195
0.012492
0.014599
0.004345
0.002594
-0.005512
-0.011167
0.013443
-0.004533
0.011754
0.006781
0.001705
-0.011517
0.008342
0.006480
0.005515
0.008637