# vtk DataFile Version 2.0
Test
ASCII
DATASET POLYDATA
POINTS 4677 float
0.000000 0.000000 0.000000
0.080000 0.000000 0.000000
0.080000 0.160000 0.000000
0.000000 0.160000 0.000000
0.036000 0.073072 0.000000
0.044000 0.086928 0.000000
0.024500 0.065566 0.000000
0.055500 0.093560 0.000000
0.001000 0.050000 0.000000
0.079000 0.110000 0.000000
0.002963 0.000000 0.000000
0.005926 0.000000 0.000000
0.008889 0.000000 0.000000
0.011852 0.000000 0.000000
0.014815 0.000000 0.000000
0.017778 0.000000 0.000000
0.020741 0.000000 0.000000
0.023704 0.000000 0.000000
0.026667 0.000000 0.000000
0.029630 0.000000 0.000000
0.032593 0.000000 0.000000
0.035556 0.000000 0.000000
0.038519 0.000000 0.000000
0.041481 0.000000 0.000000
0.044444 0.000000 0.000000
0.047407 0.000000 0.000000
0.050370 0.000000 0.000000
0.053333 0.000000 0.000000
0.056296 0.000000 0.000000
0.059259 0.000000 0.000000
0.062222 0.000000 0.000000
0.065185 0.000000 0.000000
0.068148 0.000000 0.000000
0.071111 0.000000 0.000000
0.074074 0.000000 0.000000
0.077037 0.000000 0.000000
0.080000 0.002963 0.000000
0.080000 0.005926 0.000000
0.080000 0.008889 0.000000
0.080000 0.011852 0.000000
0.080000 0.014815 0.000000
0.080000 0.017778 0.000000
0.080000 0.020741 0.000000
0.080000 0.023704 0.000000
0.080000 0.026667 0.000000
0.080000 0.029630 0.000000
0.080000 0.032593 0.000000
0.080000 0.035556 0.000000
0.080000 0.038519 0.000000
0.080000 0.041481 0.000000
0.080000 0.044444 0.000000
0.080000 0.047407 0.000000
0.080000 0.050370 0.000000
0.080000 0.053333 0.000000
0.080000 0.056296 0.000000
0.080000 0.059259 0.000000
0.080000 0.062222 0.000000
0.080000 0.065185 0.000000
0.080000 0.068148 0.000000
0.080000 0.071111 0.000000
0.080000 0.074074 0.000000
0.080000 0.077037 0.000000
0.080000 0.080000 0.000000
0.080000 0.082963 0.000000
0.080000 0.085926 0.000000
0.080000 0.088889 0.000000
0.080000 0.091852 0.000000
0.080000 0.094815 0.000000
0.080000 0.097778 0.000000
0.080000 0.100741 0.000000
0.080000 0.103704 0.000000
0.080000 0.106667 0.000000
0.080000 0.109630 0.000000
0.080000 0.112593 0.000000
0.080000 0.115556 0.000000
0.080000 0.118519 0.000000
0.080000 0.121481 0.000000
0.080000 0.124444 0.000000
0.080000 0.127407 0.000000
0.080000 0.130370 0.000000
0.080000 0.133333 0.000000
0.080000 0.136296 0.000000
0.080000 0.139259 0.000000
0.080000 0.142222 0.000000
0.080000 0.145185 0.000000
0.080000 0.148148 0.000000
0.080000 0.151111 0.000000
0.080000 0.154074 0.000000
0.080000 0.157037 0.000000
0.077037 0.160000 0.000000
0.074074 0.160000 0.000000
0.071111 0.160000 0.000000
0.068148 0.160000 0.000000
0.065185 0.160000 0.000000
0.062222 0.160000 0.000000
0.059259 0.160000 0.000000
0.056296 0.160000 0.000000
0.053333 0.160000 0.000000
0.050370 0.160000 0.000000
0.047407 0.160000 0.000000
0.044444 0.160000 0.000000
0.041481 0.160000 0.000000
0.038519 0.160000 0.000000
0.035556 0.160000 0.000000
0.032593 0.160000 0.000000
0.029630 0.160000 0.000000
0.026667 0.160000 0.000000
0.023704 0.160000 0.000000
0.020741 0.160000 0.000000
0.017778 0.160000 0.000000
0.014815 0.160000 0.000000
0.011852 0.160000 0.000000
0.008889 0.160000 0.000000
0.005926 0.160000 0.000000
0.002963 0.160000 0.000000
0.000000 0.157037 0.000000
0.000000 0.154074 0.000000
0.000000 0.151111 0.000000
0.000000 0.148148 0.000000
0.000000 0.145185 0.000000
0.000000 0.142222 0.000000
0.000000 0.139259 0.000000
0.000000 0.136296 0.000000
0.000000 0.133333 0.000000
0.000000 0.130370 0.000000
0.000000 0.127407 0.000000
0.000000 0.124444 0.000000
0.000000 0.121481 0.000000
0.000000 0.118519 0.000000
0.000000 0.115556 0.000000
0.000000 0.112593 0.000000
0.000000 0.109630 0.000000
0.000000 0.106667 0.000000
0.000000 0.103704 0.000000
0.000000 0.100741 0.000000
0.000000 0.097778 0.000000
0.000000 0.094815 0.000000
0.000000 0.091852 0.000000
0.000000 0.088889 0.000000
0.000000 0.085926 0.000000
0.000000 0.082963 0.000000
0.000000 0.080000 0.000000
0.000000 0.077037 0.000000
0.000000 0.074074 0.000000
0.000000 0.071111 0.000000
0.000000 0.068148 0.000000
0.000000 0.065185 0.000000
0.000000 0.062222 0.000000
0.000000 0.059259 0.000000
0.000000 0.056296 0.000000
0.000000 0.053333 0.000000
0.000000 0.050370 0.000000
0.000000 0.047407 0.000000
0.000000 0.044444 0.000000
0.000000 0.041481 0.000000
0.000000 0.038519 0.000000
0.000000 0.035556 0.000000
0.000000 0.032593 0.000000
0.000000 0.029630 0.000000
0.000000 0.026667 0.000000
0.000000 0.023704 0.000000
0.000000 0.020741 0.000000
0.000000 0.017778 0.000000
0.000000 0.014815 0.000000
0.000000 0.011852 0.000000
0.000000 0.008889 0.000000
0.000000 0.005926 0.000000
0.000000 0.002963 0.000000
0.035500 0.072746 0.000000
0.035000 0.072419 0.000000
0.034500 0.072093 0.000000
0.034000 0.071767 0.000000
0.033500 0.071440 0.000000
0.033000 0.071114 0.000000
0.032500 0.070788 0.000000
0.032000 0.070461 0.000000
0.031500 0.070135 0.000000
0.031000 0.069809 0.000000
0.030500 0.069482 0.000000
0.030000 0.069156 0.000000
0.029500 0.068829 0.000000
0.029000 0.068503 0.000000
0.028500 0.068177 0.000000
0.028000 0.067850 0.000000
0.027500 0.067524 0.000000
0.027000 0.067198 0.000000
0.026500 0.066871 0.000000
0.026000 0.066545 0.000000
0.025500 0.066219 0.000000
0.025000 0.065892 0.000000
0.044500 0.087216 0.000000
0.045000 0.087505 0.000000
0.045500 0.087793 0.000000
0.046000 0.088081 0.000000
0.046500 0.088370 0.000000
0.047000 0.088658 0.000000
0.047500 0.088946 0.000000
0.048000 0.089235 0.000000
0.048500 0.089523 0.000000
0.049000 0.089811 0.000000
0.049500 0.090100 0.000000
0.050000 0.090388 0.000000
0.050500 0.090677 0.000000
0.051000 0.090965 0.000000
0.051500 0.091253 0.000000
0.052000 0.091542 0.000000
0.052500 0.091830 0.000000
0.053000 0.092118 0.000000
0.053500 0.092407 0.000000
0.054000 0.092695 0.000000
0.054500 0.092983 0.000000
0.055000 0.093272 0.000000
0.043704 0.086415 0.000000
0.043407 0.085902 0.000000
0.043111 0.085388 0.000000
0.042815 0.084875 0.000000
0.042519 0.084362 0.000000
0.042222 0.083849 0.000000
0.041926 0.083336 0.000000
0.041630 0.082823 0.000000
0.041333 0.082309 0.000000
0.041037 0.081796 0.000000
0.040741 0.081283 0.000000
0.040444 0.080770 0.000000
0.040148 0.080257 0.000000
0.039852 0.079743 0.000000
0.039556 0.079230 0.000000
0.039259 0.078717 0.000000
0.038963 0.078204 0.000000
0.038667 0.077691 0.000000
0.038370 0.077177 0.000000
0.038074 0.076664 0.000000
0.037778 0.076151 0.000000
0.037481 0.075638 0.000000
0.037185 0.075125 0.000000
0.036889 0.074612 0.000000
0.036593 0.074098 0.000000
0.036296 0.073585 0.000000
0.024000 0.065235 0.000000
0.023500 0.064904 0.000000
0.023000 0.064572 0.000000
0.022500 0.064241 0.000000
0.022000 0.063910 0.000000
0.021500 0.063579 0.000000
0.021000 0.063248 0.000000
0.020500 0.062916 0.000000
0.020000 0.062585 0.000000
0.019500 0.062254 0.000000
0.019000 0.061923 0.000000
0.018500 0.061592 0.000000
0.018000 0.061261 0.000000
0.017500 0.060929 0.000000
0.017000 0.060598 0.000000
0.016500 0.060267 0.000000
0.016000 0.059936 0.000000
0.015500 0.059605 0.000000
0.015000 0.059273 0.000000
0.014500 0.058942 0.000000
0.014000 0.058611 0.000000
0.013500 0.058280 0.000000
0.013000 0.057949 0.000000
0.012500 0.057617 0.000000
0.012000 0.057286 0.000000
0.011500 0.056955 0.000000
0.011000 0.056624 0.000000
0.010500 0.056293 0.000000
0.010000 0.055961 0.000000
0.009500 0.055630 0.000000
0.009000 0.055299 0.000000
0.008500 0.054968 0.000000
0.008000 0.054637 0.000000
0.007500 0.054305 0.000000
0.007000 0.053974 0.000000
0.006500 0.053643 0.000000
0.006000 0.053312 0.000000
0.005500 0.052981 0.000000
0.005000 0.052650 0.000000
0.004500 0.052318 0.000000
0.004000 0.051987 0.000000
0.003500 0.051656 0.000000
0.003000 0.051325 0.000000
0.002500 0.050994 0.000000
0.002000 0.050662 0.000000
0.001500 0.050331 0.000000
0.055990 0.093902 0.000000
0.056479 0.094245 0.000000
0.056969 0.094587 0.000000
0.057458 0.094930 0.000000
0.057948 0.095272 0.000000
0.058437 0.095615 0.000000
0.058927 0.095957 0.000000
0.059417 0.096300 0.000000
0.059906 0.096642 0.000000
0.060396 0.096985 0.000000
0.060885 0.097327 0.000000
0.061375 0.097670 0.000000
0.061865 0.098012 0.000000
0.062354 0.098355 0.000000
0.062844 0.098697 0.000000
0.063333 0.099040 0.000000
0.063823 0.099382 0.000000
0.064312 0.099725 0.000000
0.064802 0.100067 0.000000
0.065292 0.100410 0.000000
0.065781 0.100752 0.000000
0.066271 0.101095 0.000000
0.066760 0.101437 0.000000
0.067250 0.101780 0.000000
0.067740 0.102122 0.000000
0.068229 0.102465 0.000000
0.068719 0.102807 0.000000
0.069208 0.103150 0.000000
0.069698 0.103492 0.000000
0.070187 0.103835 0.000000
0.070677 0.104177 0.000000
0.071167 0.104520 0.000000
0.071656 0.104862 0.000000
0.072146 0.105205 0.000000
0.072635 0.105547 0.000000
0.073125 0.105890 0.000000
0.073615 0.106232 0.000000
0.074104 0.106575 0.000000
0.074594 0.106917 0.000000
0.075083 0.107260 0.000000
0.075573 0.107602 0.000000
0.076062 0.107945 0.000000
0.076552 0.108287 0.000000
0.077042 0.108630 0.000000
0.077531 0.108972 0.000000
0.078021 0.109315 0.000000
0.078510 0.109658 0.000000
0.043942 0.087469 0.000000
0.035556 0.157037 0.000000
0.044420 0.002920 0.000000
0.077037 0.038519 0.000000
0.002963 0.121481 0.000000
0.077037 0.059259 0.000000
0.002963 0.109630 0.000000
0.002923 0.098139 0.000000
0.077153 0.126913 0.000000
0.002808 0.032596 0.000000
0.077140 0.071061 0.000000
0.002963 0.085926 0.000000
0.002963 0.136296 0.000000
0.077041 0.023701 0.000000
0.056296 0.157037 0.000000
0.032593 0.002963 0.000000
0.077037 0.080000 0.000000
0.002813 0.077135 0.000000
0.077037 0.142222 0.000000
0.017778 0.157037 0.000000
0.062222 0.002963 0.000000
0.076992 0.088722 0.000000
0.002945 0.020743 0.000000
0.017777 0.002962 0.000000
0.002801 0.068434 0.000000
0.002959 0.011851 0.000000
0.065186 0.157038 0.000000
0.002963 0.148148 0.000000
0.077037 0.011852 0.000000
0.076887 0.094740 0.000000
0.077092 0.115875 0.000000
0.002677 0.044265 0.000000
0.077038 0.148148 0.000000
0.002985 0.062165 0.000000
0.077037 0.047407 0.000000
0.011852 0.002963 0.000000
[...]
POINT_DATA 4677
SCALARS UX float 1
LOOKUP_TABLE default
-0.000000
0.000000
0.030532
0.004466
0.001224
0.002702
-0.008421
0.014052
-0.014930
0.024442
-0.000000
-0.000000
-0.000000
-0.000000
-0.000000
-0.000000
-0.000000
-0.000000
-0.000000
-0.000000
-0.000000
-0.000000
-0.000000
0.000000
0.000000
0.000000
0.000000
0.000000
0.000000
0.000000
0.000000
0.000000
0.000000
0.000000
0.000000
-0.000000
0.002408
0.003680
0.004620
0.005432
0.006168
0.006855
0.007500
0.008112
0.008717
0.009319
0.009933
0.010540
0.011165
0.011815
0.012445
0.013291
0.013770
0.014227
0.014712
0.015260
0.015897
0.016476
0.016896
0.017559
0.018729
0.019517
0.019884
0.020686
0.021223
0.021399
0.021917
0.022126
0.022675
0.023378
0.023947
0.024338
0.024750
0.025032
0.025243
0.025364
0.025706
0.025852
0.026308
0.026586
0.026671
0.027110
0.027566
0.027779
0.028210
0.028796
0.029184
0.029453
0.029910
0.029591
0.028416
0.027545
0.026845
0.025710
0.024662
0.023888
0.022792
0.021993
0.020915
0.020122
0.019052
0.018365
0.017529
0.016679
0.015524
0.014776
0.013641
0.012917
0.011793
0.010805
0.009789
0.008798
0.007768
0.006681
0.005603
0.004337
0.004061
0.003644
0.003106
0.002474
0.001808
0.001288
0.000304
-0.000772
-0.001579
-0.002232
-0.002778
-0.003416
-0.004277
-0.004666
-0.005350
-0.005936
-0.006499
-0.007268
-0.007877
-0.008277
-0.009028
-0.009999
-0.011189
-0.011948
-0.012610
-0.013242
-0.013821
-0.014144
-0.014424
-0.014744
-0.014813
-0.015025
-0.015166
-0.015254
-0.015318
-0.015195
-0.015001
-0.014697
-0.014356
-0.014016
-0.013510
-0.013122
-0.012626
-0.011995
-0.011576
-0.011038
-0.010651
-0.009938
-0.009162
-0.008221
-0.006499
-0.004741
0.001815
0.001035
-0.000076
-0.000446
-0.000459
-0.000835
-0.001240
-0.001674
-0.002000
-0.002354
-0.002726
-0.003214
-0.003690
-0.004223
-0.004726
-0.005265
-0.005858
-0.006402
-0.006863
-0.007455
-0.007650
-0.007969
0.003405
0.003965
0.004725
0.004482
0.005141
0.006210
0.007340
0.007603
0.006836
0.007878
0.007651
0.008752
0.008709
0.009277
0.009519
0.007687
0.009606
0.010174
0.011131
0.010935
0.011786
0.012803
0.002825
0.002727
0.002701
0.002717
0.002674
0.002612
0.002510
0.002406
0.002446
0.002344
0.002280
0.002226
0.002125
0.002049
0.001929
0.001847
0.001767
0.001685
0.001598
0.001548
0.001464
0.001430
0.001418
0.001414
0.001419
0.001452
-0.008693
-0.008722
-0.008852
-0.008962
-0.009094
-0.009229
-0.009365
-0.009515
-0.009672
-0.009818
-0.009955
-0.010129
-0.010272
-0.010458
-0.010620
-0.010735
-0.010895
-0.011094
-0.011231
-0.011391
-0.011542
-0.011693
-0.011799
-0.011949
-0.012124
-0.012264
-0.012421
-0.012567
-0.012713
-0.012852
-0.012995
-0.013151
-0.013285
-0.013433
-0.013546
-0.013681
-0.013838
-0.013990
-0.014095
-0.014201
-0.014312
-0.014423
-0.014531
-0.014635
-0.014737
-0.014834
0.014352
0.014435
0.014468
0.014630
0.014756
0.014957
0.015160
0.015307
0.015463
0.015689
0.015891
0.016009
0.016283
0.016520
0.016707
0.016886
0.017103
0.017315
0.017553
0.017789
0.018012
0.018229
0.018440
0.018657
0.018860
0.019112
0.019360
0.019620
0.019875
0.020072
0.020310
0.020521
0.020811
0.021086
0.021380
0.021645
0.021847
0.022060
0.022281
0.022517
0.022762
0.023009
0.023227
0.023432
0.023723
0.023996
0.024240
0.003124
0.016103
0.000017
0.010436
-0.002430
0.013991
-0.005045
-0.007207
0.025117
-0.012353
0.016498
-0.010824
0.001413
0.007292
0.022346
-0.000221
0.018840
-0.012932
0.026951
0.010661
0.000322
0.020471
-0.010487
-0.000591
-0.013961
-0.008380
0.025263
0.004313
0.004527
0.021236
0.024116
-0.014000
0.027843
-0.014362
0.012511
-0.000900
0.027148
0.006664
0.000783
-0.014396
0.022301
0.025758
0.017935
0.019769
-0.000335
-0.000367
0.008524
0.012412
0.000216
0.029093
0.024308
-0.013586
0.003466
0.024610
-0.013276
-0.014730
-0.013314
0.019544
-0.008848
-0.011682
0.015104
0.017360
0.013198
-0.006282
0.022846
-0.003796
-0.011903
-0.011412
0.011053
0.014302
0.026118
0.000126
-0.000036
-0.001184
0.009150
-0.000106
-0.009871
-0.000500
0.023518
0.020463
0.003021
0.006004
-0.007203
-0.001431
-0.004851
0.008678
0.000495
0.028237
-0.002473
-0.002612
0.005258
0.002525
0.005533
0.001126
0.023979
0.002783
-0.014601
-0.014777
0.023674
0.002845
-0.000125
0.009715
0.016011
-0.011362
-0.010391
0.023683
0.020116
0.000829
0.025074
-0.000894
-0.013063
-0.009019
-0.014034
0.017936
0.021666
0.021878
-0.007519
-0.002320
-0.004188
0.026953
0.006391
0.001671
0.024199
-0.014396
0.021845
-0.014179
0.020893
-0.013628
-0.014910
0.020178
0.024812
-0.012958
0.024116
-0.012319
0.018263
-0.009774
-0.007952
0.015607
0.014533
-0.006898
-0.005644
0.013587
-0.004540
0.012849
0.025504
0.011798
-0.003265
0.017124
-0.001732
0.009785
0.015103
0.000075
0.018660
-0.010997
0.013246
0.000169
-0.000160
0.026574
0.000448
0.007910
0.021610
-0.000278
0.011418
0.000264
-0.009193
-0.000471
0.024269
0.002341
0.006668
-0.000643
0.003699
0.005300
0.026414
0.027439
0.009665
0.000391
0.027911
0.028621
0.007704
0.000627
0.004840
0.003640
-0.014745
0.024268
0.023697
-0.013977
-0.014549
0.003554
0.002504
0.023418
-0.014780
0.023387
-0.012962
0.003780
0.003586
0.004020
0.013139
-0.007134
-0.004672
0.022505
-0.012529
0.014795
0.010929
-0.012848
0.000332
0.007089
0.019941
0.003458
0.009215
0.020892
0.004413
0.004861
0.000838
0.023653
-0.014405
0.023968
0.012511
-0.003422
0.011891
-0.002175
0.018290
0.001501
0.023942
-0.001173
-0.001607
0.005973
0.025909
0.027297
-0.014538
0.023983
-0.013773
0.023456
0.017664
-0.013544
0.023544
-0.011454
-0.014398
0.019590
0.018607
-0.005977
0.022707
-0.012170
-0.012505
-0.013376
0.014183
0.015000
-0.009113
0.009107
-0.000367
-0.000238
-0.010834
0.010990
0.010423
0.000129
0.000012
-0.009899
0.024549
0.019389
0.012924
0.021157
-0.000710
0.000116
0.025572
0.026317
0.024685
0.016633
-0.010258
-0.000565
0.023059
-0.008383
-0.000886
0.005794
0.000542
-0.009648
-0.006370
-0.002841
0.027566
0.007448
0.001253
0.002691
-0.011698
0.002453
0.003563
0.023401
-0.014367
-0.014688
0.024493
-0.014839
0.023692
0.002457
0.004393
0.003397
0.004213
0.003166
-0.000383
0.009562
0.013810
-0.008001
0.018122
0.000570
-0.010871
0.023478
0.017594
-0.001040
0.020693
-0.009400
-0.008227
-0.003201
-0.014152
0.023227
0.023089
0.004391
-0.012488
0.008533
-0.000039
0.024239
-0.001669
0.022518
0.025547
0.002081
0.007029
0.002005
0.003389
-0.013212
0.020324
-0.011627
-0.013761
-0.005304
-0.012098
-0.007903
-0.006673
0.007783
0.013566
0.023023
0.012828
-0.003945
0.012208
0.016316
-0.002756
0.024295
0.019460
-0.008821
0.017371
-0.000459
0.013758
0.002639
0.011498
0.000232
0.011863
-0.009981
0.018778
0.008321
-0.001334
0.000434
0.010042
0.025924
0.006449
-0.007574
-0.005096
0.005127
0.026186
0.024907
-0.001445
0.004193
0.000669
0.015622
0.008430
0.005455
0.026704
0.003615
0.001023
-0.012371
0.022797
-0.012962
0.002232
-0.014425
0.002579
0.004118
0.022957
-0.013995
0.023452
0.002434
0.005249
0.023089
-0.014527
-0.014245
0.023305
0.023605
0.004597
0.004492
0.004631
-0.014310
-0.013305
0.002845
0.004963
0.011807
-0.004881
-0.007299
-0.010784
0.021767
0.017636
-0.011730
-0.012292
0.012627
0.019241
0.004552
0.000496
0.006247
-0.009133
-0.013326
0.009796
-0.003238
0.001040
0.004267
0.011180
-0.000524
0.022935
0.016193
-0.001566
-0.000240
0.025105
-0.007372
-0.002559
0.002798
0.008007
0.014481
-0.013625
0.022404
0.023381
-0.012499
-0.006416
-0.009515
-0.007162
-0.000773
0.012451
0.007565
-0.004479
0.010070
0.017170
-0.000223
-0.011970
0.022792
0.023925
-0.010994
0.018658
0.016892
0.019946
0.011062
0.024621
-0.010503
0.002708
0.011507
-0.001413
0.008975
-0.008862
0.021698
-0.002149
0.013026
0.000658
0.014333
0.023509
0.025329
0.001142
0.005591
-0.006708
0.025780
-0.004028
0.000153
0.005284
0.006520
0.001279
0.001578
-0.011931
0.003876
0.003797
0.005073
-0.014146
-0.014178
0.022992
0.022780
0.002102
-0.014138
0.002214
0.022357
-0.013447
0.004866
0.022653
0.018093
0.023242
0.015659
-0.012844
-0.013902
0.003122
0.004628
0.023193
0.002421
0.005714
0.008604
0.011464
0.000606
-0.000331
0.015796
-0.011753
0.022832
0.021695
0.017883
0.020255
0.003126
0.011888
-0.001618
-0.013138
0.023745
0.000662
0.005620
0.022690
0.022096
0.005608
0.007508
0.004536
-0.009563
0.006956
0.022124
0.012807
-0.003085
0.001417
-0.008132
-0.005639
0.002191
0.003573
0.022171
-0.006605
0.011626
0.003185
-0.010252
-0.000896
-0.005451
0.010655
0.012017
0.016483
0.022034
-0.003807
0.005456
-0.002437
-0.000073
-0.000981
0.022979
0.019272
-0.011009
0.018748
0.022194
-0.012504
0.014508
0.000325
0.017118
-0.007874
-0.008595
-0.011680
0.001542
0.007564
-0.006671
0.015298
0.024919
0.010564
0.004931
-0.001899
0.024497
0.000832
0.003704
0.018314
-0.003811
0.024132
0.013343
0.003564
0.005943
0.008921
0.006904
0.022315
-0.013989
0.003508
-0.013080
-0.013594
0.004363
0.005171
0.002071
0.002085
0.002023
0.002311
-0.012239
0.003357
0.005362
0.005654
-0.005812
-0.012172
-0.010329
-0.013950
0.022743
0.011656
0.022876
0.019234
0.016980
-0.013879
-0.014257
0.022129
0.005100
0.022895
-0.014158
-0.011287
0.022607
0.022492
0.005085
0.003160
0.005061
-0.003134
-0.006428
0.021048
0.016442
0.001727
-0.010924
-0.000399
-0.010052
0.006150
-0.011758
0.021612
-0.002159
0.016946
-0.008489
0.021853
0.019062
-0.013115
-0.012814
0.010101
0.022390
0.010805
0.021239
0.009819
0.014801
0.003696
0.022814
-0.001720
-0.007249
0.012814
0.000420
-0.004215
0.024063
0.004049
-0.011867
0.001138
0.004783
0.002829
0.006946
0.001900
0.005009
-0.004735
-0.010077
-0.008421
-0.011011
0.010695
0.010944
-0.005652
-0.011381
0.006475
0.016421
-0.000593
-0.012816
0.012016
-0.000231
0.000172
-0.001197
-0.013781
0.002215
0.015047
0.023307
0.022658
0.018032
-0.002437
-0.005872
0.023051
0.013399
0.009326
0.021327
0.000885
0.003863
0.004702
0.024509
0.008058
0.006297
0.021882
0.015606
0.011174
0.001751
-0.004631
0.021964
0.008429
-0.013614
0.018388
0.022294
0.022392
0.002329
0.006099
-0.013556
-0.014006
0.022339
-0.012635
0.004026
0.018101
0.005326
0.003991
0.001973
0.005638
0.002541
0.002015
-0.005333
0.004752
0.022527
0.003841
0.005982
0.022322
-0.014151
-0.010587
-0.014057
0.022077
0.005570
-0.013805
0.021080
-0.010024
0.005445
0.002864
0.020354
0.005385
0.009818
0.011351
-0.005518
-0.010713
0.014522
-0.011993
0.000520
0.018413
0.012383
0.004179
0.003978
0.006179
0.004148
0.001134
-0.013237
-0.013593
-0.004384
-0.008677
0.005287
-0.009869
0.000823
0.020808
0.008375
0.013035
-0.003428
0.022722
0.022592
0.007285
0.010611
0.001729
-0.004733
-0.003586
0.004695
-0.002177
-0.009570
-0.000872
-0.001597
0.022180
0.010328
-0.012473
-0.012005
0.016180
0.003215
-0.014102
0.015241
0.004697
-0.011148
0.010491
-0.012616
0.013929
0.009592
-0.008029
-0.009189
0.022291
-0.002636
0.002610
0.023152
-0.013689
-0.013237
-0.006978
0.017838
0.017335
-0.005015
-0.011335
0.017220
-0.006541
0.004977
0.020034
0.007729
0.006625
0.007910
0.023613
0.002262
0.003482
0.022313
0.009306
0.005812
0.001448
-0.000874
0.021397
0.018699
-0.000088
0.003802
0.022190
0.021352
0.005891
-0.013838
0.021101
0.021965
0.022065
-0.013558
0.005904
0.002254
0.001792
0.001828
-0.010403
0.006495
0.002081
-0.012778
0.004218
0.021697
0.021885
-0.013956
0.004403
0.010981
0.020078
-0.002615
0.005768
-0.000652
0.021839
0.005908
0.021622
0.006718
-0.013500
0.019386
0.001897
0.007184
0.006365
-0.010555
-0.006082
-0.000667
-0.010367
0.005136
0.015911
-0.011773
0.018183
0.021088
-0.003395
0.005253
-0.007833
-0.002834
0.015672
-0.012865
-0.012858
0.021740
-0.013414
0.021727
-0.000605
-0.009095
0.001384
0.004616
0.013343
-0.004914
0.022404
-0.007544
0.003416
0.008251
0.009749
0.001606
-0.012370
0.021891
0.017124
-0.013412
0.004566
0.004575
-0.010322
-0.011531
0.012032
0.019294
0.000241
0.008596
0.015425
0.014164
-0.011257
-0.007121
-0.004949
0.010930
-0.001230
0.013824
0.002840
0.010001
0.000198
0.002844
0.021784
-0.006404
0.000827
0.009741
-0.002129
0.017676
0.001809
0.011366
-0.013839
-0.005656
0.007119
-0.009302
0.020795
-0.003808
-0.004325
-0.002124
0.006024
0.008819
0.006586
0.021593
-0.011185
0.003319
0.020697
0.010169
-0.005170
0.019424
0.020521
0.005132
0.003477
0.001773
0.005148
0.003803
0.001643
0.002937
0.021032
0.006261
0.021747
0.001930
0.021605
0.021304
0.006055
0.002285
0.021756
-0.000471
-0.012082
0.002111
0.008526
-0.013625
-0.014384
-0.003982
0.022236
0.005787
-0.001355
0.004206
-0.013381
-0.013763
-0.009362
0.020262
0.006493
-0.013363
0.006885
-0.012364
0.021989
0.021448
0.003156
0.001571
0.005082
0.006107
0.009307
-0.002234
-0.005310
0.013206
-0.001057
0.003084
0.020425
0.018300
-0.012529
0.017172
-0.011739
0.012959
0.006293
0.010880
0.007660
0.010552
-0.012998
-0.006917
0.019867
-0.000734
-0.008083
0.008806
0.004402
0.001241
0.003713
0.007169
-0.004243
-0.005656
0.000282
0.002747
0.009164
0.007589
0.001016
0.004445
0.021313
0.008937
-0.001526
-0.008865
0.021337
0.011799
0.021490
0.014800
0.009540
0.017482
0.016573
0.004633
-0.013107
0.016780
0.010038
-0.009546
-0.012512
-0.004239
-0.010634
-0.011464
0.021190
-0.004757
-0.013458
-0.006676
-0.000097
0.022076
-0.008325
0.001769
0.021385
-0.013200
0.006795
-0.010665
0.019664
-0.003525
0.006411
0.014831
0.003649
0.006682
0.005682
0.018141
-0.004866
-0.002602
-0.010044
-0.009184
0.019608
0.002245
0.020673
0.003478
0.002842
0.019928
-0.001760
0.020039
-0.013618
-0.013323
0.001877
0.001482
0.021063
0.004935
0.005677
0.001839
-0.001088
0.021566
0.020820
0.007041
-0.013349
0.021487
0.001488
-0.011931
0.005512
-0.003396
0.002572
0.021559
0.006732
0.019420
0.003945
-0.011934
0.005801
-0.013241
0.022128
0.021070
0.002031
0.008201
-0.010955
-0.014318
0.007130
0.021430
-0.009619
0.000161
0.018584
0.002844
-0.009367
0.006504
0.005440
-0.004675
-0.010429
-0.009460
0.016846
0.019601
0.004801
0.015824
-0.012124
0.016996
0.020253
0.003492
-0.003516
-0.002565
0.021138
0.007351
0.000388
0.001617
-0.010688
0.014422
-0.004311
-0.013181
0.002307
0.004175
0.001219
-0.000078
0.002240
-0.007260
-0.013582
-0.003115
0.004729
0.007949
0.021006
-0.001654
0.020976
-0.004482
-0.008129
-0.011286
0.021331
-0.012696
0.009659
0.013533
-0.009913
-0.007378
0.013978
0.021359
-0.006255
-0.008928
-0.005878
0.019297
0.019231
-0.000570
0.003114
0.008543
0.006315
0.021184
0.010988
0.010116
0.005496
0.018909
0.000646
0.018896
0.011925
0.020256
0.008812
0.006252
-0.008632
-0.003099
0.004308
0.019797
0.007228
0.016296
0.009028
0.003892
0.020711
-0.013090
0.001367
-0.002922
-0.001438
-0.013991
0.001875
0.004827
0.006944
0.005380
0.006141
0.002017
-0.013142
-0.013138
0.001386
0.021587
-0.001093
0.003641
0.008146
-0.011412
0.001669
0.006146
0.018712
0.020884
0.020606
-0.008622
-0.013013
0.003925
0.020329
0.012555
0.010118
0.021066
0.007457
0.005830
0.002549
0.020765
-0.005024
-0.003908
0.007618
0.001406
0.020269
-0.012657
-0.012157
0.017792
0.002068
0.007470
-0.008700
0.008717
0.005728
0.006549
0.017910
0.002428
-0.003060
0.013434
0.010803
0.018989
-0.011694
-0.000589
0.006503
0.003861
0.018994
0.019364
0.003832
0.018016
-0.002834
-0.006571
-0.002134
-0.011801
0.008073
0.020760
0.015223
-0.012302
-0.005190
0.007427
0.016090
-0.012983
0.011670
0.009439
0.005103
0.000795
-0.002978
-0.008284
0.020721
0.004117
0.008474
0.020109
-0.007120
0.020878
0.001767
0.016634
0.018435
-0.009990
-0.008591
-0.012338
0.003899
0.003904
0.015128
-0.013553
-0.006491
0.017245
-0.012803
0.002697
-0.003458
0.012597
0.001654
0.018571
-0.001223
0.006536
0.002556
0.007846
0.021280
0.020600
0.007849
0.012099
0.019617
0.004686
-0.010977
-0.003852
0.017863
0.005678
0.000362
-0.004269
0.008447
0.013501
-0.001538
-0.000209
0.007299
0.019981
-0.006160
0.009816
-0.009996
0.018879
-0.001879
0.019663
-0.008546
0.003125
0.005090
0.006901
0.019835
0.004246
0.008160
0.020658
0.004752
0.001800
0.001775
0.001243
0.001560
0.001235
-0.013268
0.020743
0.020529
0.002254
0.005227
0.005892
-0.009195
0.006194
-0.010936
0.006754
0.001359
0.020448
0.020546
-0.012745
0.003392
-0.005403
-0.012969
0.016271
0.008089
0.008971
0.020976
0.001308
-0.010275
0.009317
-0.012954
-0.011488
-0.012945
0.007735
-0.013876
0.009033
0.007849
0.008489
0.002517
0.008381
-0.008527
-0.004553
0.006064
-0.002698
0.002441
-0.010444
0.018298
-0.009292
0.015239
-0.001209
-0.010819
0.016481
0.015654
0.017477
0.007506
-0.011400
-0.001462
0.013091
0.020348
-0.005813
0.020369
0.000931
0.019105
0.020543
0.002034
0.008045
-0.012407
0.003103
0.005724
-0.012868
0.008521
-0.001687
0.001417
0.004755
0.007756
0.006606
0.019283
-0.012884
0.007384
-0.006129
0.007474
0.003060
0.003595
0.014752
0.020286
0.011753
-0.011102
-0.004321
0.008638
-0.005725
-0.003676
0.018997
0.017868
0.004903
0.010359
0.012621
0.008282
0.016826
0.004229
0.005113
-0.003853
-0.004087
-0.009328
0.018562
0.013936
0.008402
-0.002320
-0.000964
-0.002685
0.008111
0.003374
-0.008288
-0.006969
0.010142
0.003436
0.019551
-0.012681
-0.012826
0.000868
0.004293
0.018997
-0.010495
-0.010181
0.017915
0.007889
-0.007726
-0.000074
-0.008038
-0.002622
0.001089
0.003647
0.020011
0.005433
0.001916
0.010093
-0.005064
0.011457
0.004548
0.018493
0.006556
0.009442
0.005306
0.001485
0.020207
0.001157
0.005769
0.001952
0.006350
0.020698
0.019736
0.007003
0.001407
0.016155
0.020816
-0.013059
0.020651
0.003085
0.015414
-0.013309
-0.009817
0.002684
0.004390
0.007845
0.007054
0.020356
0.007970
0.016785
0.003623
-0.012001
0.001288
-0.012812
-0.005710
-0.012712
0.019989
-0.007664
-0.011896
-0.012484
0.017804
0.008180
0.007003
0.003344
0.007597
0.017154
-0.003992
0.006350
-0.009855
0.012396
0.018325
0.010527
0.016158
-0.010071
0.003378
0.019882
0.016053
0.013301
0.018170
-0.006302
0.001991
-0.006836
0.000997
0.003211
-0.002195
0.002388
0.019242
-0.008730
-0.000035
-0.002606
0.001116
0.009051
-0.011730
0.004337
-0.008736
-0.012127
0.017266
0.004753
0.005678
0.003135
0.014913
0.020244
0.007394
0.018201
0.018887
0.002192
-0.001938
0.017032
-0.005170
-0.010637
0.020248
-0.000779
-0.001709
-0.004502
0.007152
0.009791
0.010734
-0.011069
0.012322
0.018366
0.001433
0.007148
-0.012428
0.006693
0.007825
0.008710
0.019065
-0.003710
-0.002991
0.016730
-0.005483
0.017703
0.015693
0.003303
0.004812
0.009920
0.008969
0.014547
0.005437
0.000414
0.007385
0.005123
0.003015
-0.003157
-0.008012
-0.008054
0.020464
0.018659
0.008272
-0.008167
-0.000635
0.018115
-0.007551
0.011548
0.019132
0.003965
0.019480
0.008020
0.001251
0.005120
0.004274
0.017535
0.008357
0.000990
0.005173
-0.013061
-0.012723
-0.009812
0.001239
0.001815
0.005800
0.009287
0.006319
0.002757
0.019786
0.001141
0.015221
0.020211
0.006976
0.003583
-0.009147
0.001525
-0.011563
-0.011733
0.014781
0.007878
-0.012230
0.020317
0.019938
0.020460
0.020134
-0.012488
0.004226
-0.012526
0.002355
0.008826
-0.012683
-0.012741
0.017689
0.006560
-0.008522
0.017055
0.005297
-0.010148
0.009695
0.011481
-0.008675
0.015082
0.012742
0.019386
-0.002677
0.002529
0.007620
-0.010962
0.017286
0.017874
0.017540
0.019830
0.019995
-0.000746
0.000932
-0.007239
0.003230
0.014143
0.004188
-0.001334
0.019608
0.000518
0.001765
-0.012181
0.005102
0.007318
-0.011461
-0.005577
-0.005145
0.000936
0.008206
0.006568
0.005821
0.007385
-0.012215
0.006052
0.009075
0.017658
0.018046
0.016577
-0.010387
0.015656
-0.005571
0.018764
-0.012503
-0.003516
0.003554
0.012974
0.018306
0.003852
0.007898
0.014436
-0.002053
0.019759
-0.003303
0.018911
-0.000121
0.019929
0.009231
0.016706
0.011331
0.006758
-0.009260
0.008839
-0.007751
0.008467
-0.007341
-0.006458
0.002694
-0.008143
-0.012559
0.017113
0.018287
-0.007920
-0.003960
0.011184
0.007498
0.019948
0.015274
0.006689
0.004382
0.002821
0.019402
0.017131
0.006969
0.000819
0.001444
0.002439
0.003991
0.008353
-0.009705
0.007748
0.004957
-0.011056
0.005363
0.016410
0.002776
0.006029
0.000927
0.001033
0.019649
-0.001941
-0.012888
0.005735
0.008281
0.014269
0.006294
0.000104
0.020031
0.001182
-0.006985
-0.011827
0.001701
-0.004368
0.001714
0.009362
-0.011863
0.007760
-0.012338
-0.012524
0.020211
0.019879
0.018049
-0.008916
0.003019
0.002441
0.008511
0.003858
0.009009
-0.002422
0.014413
0.018272
-0.012466
-0.007529
0.007042
0.002651
-0.009462
0.017016
0.000087
-0.009619
0.014545
-0.000018
0.015604
-0.011130
0.015607
0.012094
0.016278
0.019253
0.008595
0.003982
-0.005750
-0.011852
0.017477
-0.004731
0.017004
0.008466
0.002962
-0.012258
0.010818
0.009323
0.006745
0.013730
0.002145
0.017494
-0.003164
0.009229
0.005325
0.007572
0.010803