# vtk DataFile Version 2.0
Test
ASCII
DATASET POLYDATA
POINTS 4020 float
0.000000 0.000000 0.000000
13.300000 0.000000 0.000000
15.000000 1.700000 0.000000
15.000000 50.000000 0.000000
0.000000 50.000000 0.000000
0.271429 0.000000 0.000000
0.542857 0.000000 0.000000
0.814286 0.000000 0.000000
1.085714 0.000000 0.000000
1.357143 0.000000 0.000000
1.628571 0.000000 0.000000
1.900000 0.000000 0.000000
2.171429 0.000000 0.000000
2.442857 0.000000 0.000000
2.714286 0.000000 0.000000
2.985714 0.000000 0.000000
3.257143 0.000000 0.000000
3.528571 0.000000 0.000000
3.800000 0.000000 0.000000
4.071429 0.000000 0.000000
4.342857 0.000000 0.000000
4.614286 0.000000 0.000000
4.885714 0.000000 0.000000
5.157143 0.000000 0.000000
5.428571 0.000000 0.000000
5.700000 0.000000 0.000000
5.971429 0.000000 0.000000
6.242857 0.000000 0.000000
6.514286 0.000000 0.000000
6.785714 0.000000 0.000000
7.057143 0.000000 0.000000
7.328571 0.000000 0.000000
7.600000 0.000000 0.000000
7.871429 0.000000 0.000000
8.142857 0.000000 0.000000
8.414286 0.000000 0.000000
8.685714 0.000000 0.000000
8.957143 0.000000 0.000000
9.228571 0.000000 0.000000
9.500000 0.000000 0.000000
9.771429 0.000000 0.000000
10.042857 0.000000 0.000000
10.314286 0.000000 0.000000
10.585714 0.000000 0.000000
10.857143 0.000000 0.000000
11.128571 0.000000 0.000000
11.400000 0.000000 0.000000
11.671429 0.000000 0.000000
11.942857 0.000000 0.000000
12.214286 0.000000 0.000000
12.485714 0.000000 0.000000
12.757143 0.000000 0.000000
13.028571 0.000000 0.000000
13.300873 0.054488 0.000000
13.303493 0.108919 0.000000
13.307856 0.163239 0.000000
13.313957 0.217391 0.000000
13.321791 0.271320 0.000000
13.331349 0.324970 0.000000
13.342623 0.378286 0.000000
13.355599 0.431213 0.000000
13.370265 0.483697 0.000000
13.386605 0.535684 0.000000
13.404604 0.587121 0.000000
13.424242 0.637954 0.000000
13.445499 0.688132 0.000000
13.468353 0.737602 0.000000
13.492781 0.786315 0.000000
13.518758 0.834220 0.000000
13.546257 0.881267 0.000000
13.575250 0.927409 0.000000
13.605707 0.972598 0.000000
13.637597 1.016788 0.000000
13.670886 1.059933 0.000000
13.705542 1.101988 0.000000
13.741527 1.142912 0.000000
13.778806 1.182660 0.000000
13.817340 1.221194 0.000000
13.857088 1.258473 0.000000
13.898012 1.294458 0.000000
13.940067 1.329114 0.000000
13.983212 1.362403 0.000000
14.027402 1.394293 0.000000
14.072591 1.424750 0.000000
14.118733 1.453743 0.000000
14.165780 1.481242 0.000000
14.213685 1.507219 0.000000
14.262398 1.531647 0.000000
14.311868 1.554501 0.000000
14.362046 1.575758 0.000000
14.412879 1.595396 0.000000
14.464316 1.613395 0.000000
14.516303 1.629735 0.000000
14.568787 1.644401 0.000000
14.621714 1.657377 0.000000
14.675030 1.668651 0.000000
14.728680 1.678209 0.000000
14.782609 1.686043 0.000000
14.836761 1.692144 0.000000
14.891081 1.696507 0.000000
14.945512 1.699127 0.000000
15.000000 2.187879 0.000000
15.000000 2.675758 0.000000
15.000000 3.163636 0.000000
15.000000 3.651515 0.000000
15.000000 4.139394 0.000000
15.000000 4.627273 0.000000
15.000000 5.115152 0.000000
15.000000 5.603030 0.000000
15.000000 6.090909 0.000000
15.000000 6.578788 0.000000
15.000000 7.066667 0.000000
15.000000 7.554545 0.000000
15.000000 8.042424 0.000000
15.000000 8.530303 0.000000
15.000000 9.018182 0.000000
15.000000 9.506061 0.000000
15.000000 9.993939 0.000000
15.000000 10.481818 0.000000
15.000000 10.969697 0.000000
15.000000 11.457576 0.000000
15.000000 11.945455 0.000000
15.000000 12.433333 0.000000
15.000000 12.921212 0.000000
15.000000 13.409091 0.000000
15.000000 13.896970 0.000000
15.000000 14.384848 0.000000
15.000000 14.872727 0.000000
15.000000 15.360606 0.000000
15.000000 15.848485 0.000000
15.000000 16.336364 0.000000
15.000000 16.824242 0.000000
15.000000 17.312121 0.000000
15.000000 17.800000 0.000000
15.000000 18.287879 0.000000
15.000000 18.775758 0.000000
15.000000 19.263636 0.000000
15.000000 19.751515 0.000000
15.000000 20.239394 0.000000
15.000000 20.727273 0.000000
15.000000 21.215152 0.000000
15.000000 21.703030 0.000000
15.000000 22.190909 0.000000
15.000000 22.678788 0.000000
15.000000 23.166667 0.000000
15.000000 23.654545 0.000000
15.000000 24.142424 0.000000
15.000000 24.630303 0.000000
15.000000 25.118182 0.000000
15.000000 25.606061 0.000000
15.000000 26.093939 0.000000
15.000000 26.581818 0.000000
15.000000 27.069697 0.000000
15.000000 27.557576 0.000000
15.000000 28.045455 0.000000
15.000000 28.533333 0.000000
15.000000 29.021212 0.000000
15.000000 29.509091 0.000000
15.000000 29.996970 0.000000
15.000000 30.484848 0.000000
15.000000 30.972727 0.000000
15.000000 31.460606 0.000000
15.000000 31.948485 0.000000
15.000000 32.436364 0.000000
15.000000 32.924242 0.000000
15.000000 33.412121 0.000000
15.000000 33.900000 0.000000
15.000000 34.387879 0.000000
15.000000 34.875758 0.000000
15.000000 35.363636 0.000000
15.000000 35.851515 0.000000
15.000000 36.339394 0.000000
15.000000 36.827273 0.000000
15.000000 37.315152 0.000000
15.000000 37.803030 0.000000
15.000000 38.290909 0.000000
15.000000 38.778788 0.000000
15.000000 39.266667 0.000000
15.000000 39.754545 0.000000
15.000000 40.242424 0.000000
15.000000 40.730303 0.000000
15.000000 41.218182 0.000000
15.000000 41.706061 0.000000
15.000000 42.193939 0.000000
15.000000 42.681818 0.000000
15.000000 43.169697 0.000000
15.000000 43.657576 0.000000
15.000000 44.145455 0.000000
15.000000 44.633333 0.000000
15.000000 45.121212 0.000000
15.000000 45.609091 0.000000
15.000000 46.096970 0.000000
15.000000 46.584848 0.000000
15.000000 47.072727 0.000000
15.000000 47.560606 0.000000
15.000000 48.048485 0.000000
15.000000 48.536364 0.000000
15.000000 49.024242 0.000000
15.000000 49.512121 0.000000
14.693878 50.000000 0.000000
14.387755 50.000000 0.000000
14.081633 50.000000 0.000000
13.775510 50.000000 0.000000
13.469388 50.000000 0.000000
13.163265 50.000000 0.000000
12.857143 50.000000 0.000000
12.551020 50.000000 0.000000
12.244898 50.000000 0.000000
11.938776 50.000000 0.000000
11.632653 50.000000 0.000000
11.326531 50.000000 0.000000
11.020408 50.000000 0.000000
10.714286 50.000000 0.000000
10.408163 50.000000 0.000000
10.102041 50.000000 0.000000
9.795918 50.000000 0.000000
9.489796 50.000000 0.000000
9.183673 50.000000 0.000000
8.877551 50.000000 0.000000
8.571429 50.000000 0.000000
8.265306 50.000000 0.000000
7.959184 50.000000 0.000000
7.653061 50.000000 0.000000
7.346939 50.000000 0.000000
7.040816 50.000000 0.000000
6.734694 50.000000 0.000000
6.428571 50.000000 0.000000
6.122449 50.000000 0.000000
5.816327 50.000000 0.000000
5.510204 50.000000 0.000000
5.204082 50.000000 0.000000
4.897959 50.000000 0.000000
4.591837 50.000000 0.000000
4.285714 50.000000 0.000000
3.979592 50.000000 0.000000
3.673469 50.000000 0.000000
3.367347 50.000000 0.000000
3.061224 50.000000 0.000000
2.755102 50.000000 0.000000
2.448980 50.000000 0.000000
2.142857 50.000000 0.000000
1.836735 50.000000 0.000000
1.530612 50.000000 0.000000
1.224490 50.000000 0.000000
0.918367 50.000000 0.000000
0.612245 50.000000 0.000000
0.306122 50.000000 0.000000
0.000000 49.494949 0.000000
0.000000 48.989899 0.000000
0.000000 48.484848 0.000000
0.000000 47.979798 0.000000
0.000000 47.474747 0.000000
0.000000 46.969697 0.000000
0.000000 46.464646 0.000000
0.000000 45.959596 0.000000
0.000000 45.454545 0.000000
0.000000 44.949495 0.000000
0.000000 44.444444 0.000000
0.000000 43.939394 0.000000
0.000000 43.434343 0.000000
0.000000 42.929293 0.000000
0.000000 42.424242 0.000000
0.000000 41.919192 0.000000
0.000000 41.414141 0.000000
0.000000 40.909091 0.000000
0.000000 40.404040 0.000000
0.000000 39.898990 0.000000
0.000000 39.393939 0.000000
0.000000 38.888889 0.000000
0.000000 38.383838 0.000000
0.000000 37.878788 0.000000
0.000000 37.373737 0.000000
0.000000 36.868687 0.000000
0.000000 36.363636 0.000000
0.000000 35.858586 0.000000
0.000000 35.353535 0.000000
0.000000 34.848485 0.000000
0.000000 34.343434 0.000000
0.000000 33.838384 0.000000
0.000000 33.333333 0.000000
0.000000 32.828283 0.000000
0.000000 32.323232 0.000000
0.000000 31.818182 0.000000
0.000000 31.313131 0.000000
0.000000 30.808081 0.000000
0.000000 30.303030 0.000000
0.000000 29.797980 0.000000
0.000000 29.292929 0.000000
0.000000 28.787879 0.000000
0.000000 28.282828 0.000000
0.000000 27.777778 0.000000
0.000000 27.272727 0.000000
0.000000 26.767677 0.000000
0.000000 26.262626 0.000000
0.000000 25.757576 0.000000
0.000000 25.252525 0.000000
0.000000 24.747475 0.000000
0.000000 24.242424 0.000000
0.000000 23.737374 0.000000
0.000000 23.232323 0.000000
0.000000 22.727273 0.000000
0.000000 22.222222 0.000000
0.000000 21.717172 0.000000
0.000000 21.212121 0.000000
0.000000 20.707071 0.000000
0.000000 20.202020 0.000000
0.000000 19.696970 0.000000
0.000000 19.191919 0.000000
0.000000 18.686869 0.000000
0.000000 18.181818 0.000000
0.000000 17.676768 0.000000
0.000000 17.171717 0.000000
0.000000 16.666667 0.000000
0.000000 16.161616 0.000000
0.000000 15.656566 0.000000
0.000000 15.151515 0.000000
0.000000 14.646465 0.000000
0.000000 14.141414 0.000000
0.000000 13.636364 0.000000
0.000000 13.131313 0.000000
0.000000 12.626263 0.000000
0.000000 12.121212 0.000000
0.000000 11.616162 0.000000
0.000000 11.111111 0.000000
0.000000 10.606061 0.000000
0.000000 10.101010 0.000000
0.000000 9.595960 0.000000
0.000000 9.090909 0.000000
0.000000 8.585859 0.000000
0.000000 8.080808 0.000000
0.000000 7.575758 0.000000
0.000000 7.070707 0.000000
0.000000 6.565657 0.000000
0.000000 6.060606 0.000000
0.000000 5.555556 0.000000
0.000000 5.050505 0.000000
0.000000 4.545455 0.000000
0.000000 4.040404 0.000000
0.000000 3.535354 0.000000
0.000000 3.030303 0.000000
0.000000 2.525253 0.000000
0.000000 2.020202 0.000000
0.000000 1.515152 0.000000
0.000000 1.010101 0.000000
0.000000 0.505051 0.000000
14.512121 31.460606 0.000000
14.512121 8.042424 0.000000
14.512121 17.312121 0.000000
14.512121 21.215152 0.000000
14.512121 23.654545 0.000000
14.512121 26.093939 0.000000
14.512121 14.384848 0.000000
[...]
POINT_DATA 4020
SCALARS UX float 1
LOOKUP_TABLE default
24.093926
-145.169998
0.000000
0.000000
6.008164
24.005696
23.912846
23.814678
23.718990
23.614345
23.513401
23.406790
23.300884
23.199598
23.097054
22.997208
22.901432
22.811875
22.727737
22.651927
22.585078
22.531732
22.489433
22.466650
22.463235
22.475870
22.519478
22.583048
22.684091
22.816621
22.984330
23.181575
23.421943
23.696269
24.004797
24.330524
24.688766
25.019028
25.316314
25.619110
25.758012
25.868719
25.873384
25.707268
27.975781
37.757431
58.072366
87.498004
70.267089
36.665132
87.887305
51.517160
-21.778280
-148.633083
-62.107393
-208.929388
835.303638
266.689871
110.668600
11.939181
5.061931
-57.827441
-19.498794
-94.857127
-18.671361
-49.664779
83.788689
-90.963351
-29.252111
91.901339
134.552906
172.336907
90.605527
181.057429
234.512506
39.453451
220.163825
28.040609
129.584988
79.848195
-87.134900
-92.183217
94.169481
60.404651
87.210304
107.749126
117.101057
125.559738
135.832676
127.502221
253.236714
103.227883
-138.214269
-188.225678
-175.305303
-149.225061
-123.823242
-73.798576
-31.763402
-1.719893
27.812142
-0.000000
0.000000
-0.000000
0.000000
-0.000000
0.000000
0.000000
0.000000
-0.000000
0.000000
-0.000000
0.000000
-0.000000
0.000000
-0.000000
0.000000
-0.000000
0.000000
0.000000
0.000000
0.000000
0.000000
0.000000
0.000000
0.000000
0.000000
0.000000
0.000000
0.000000
0.000000
0.000000
0.000000
0.000000
0.000000
0.000000
0.000000
0.000000
0.000000
0.000000
0.000000
0.000000
0.000000
0.000000
0.000000
0.000000
0.000000
0.000000
0.000000
0.000000
0.000000
0.000000
0.000000
0.000000
0.000000
0.000000
0.000000
0.000000
0.000000
0.000000
0.000000
0.000000
0.000000
0.000000
0.000000
0.000000
0.000000
0.000000
0.000000
0.000000
0.000000
0.000000
0.000000
0.000000
0.000000
0.000000
0.000000
0.000000
0.000000
0.000000
0.000000
0.000000
0.000000
0.000000
0.000000
0.000000
0.000000
0.000000
0.000000
0.000000
0.000000
0.000000
0.000000
0.000000
0.000000
0.000000
0.000000
0.000000
0.000000
0.119520
0.239051
0.358603
0.478211
0.597883
0.717665
0.837522
0.957497
1.077625
1.197866
1.318299
1.438866
1.559659
1.680597
1.801724
1.923046
2.044572
2.166379
2.288341
2.410492
2.532855
2.655440
2.778301
2.901311
3.024560
3.147956
3.271586
3.395331
3.519219
3.643324
3.767526
3.891863
4.016282
4.140816
4.265399
4.390043
4.514713
4.639403
4.764082
4.888726
5.013363
5.137952
5.262464
5.386905
5.511282
5.635570
5.759807
5.883996
5.998582
5.989095
5.979633
5.970069
5.960071
5.949657
5.938524
5.926962
5.914511
5.901212
5.886990
5.871571
5.855016
5.837483
5.818797
5.798859
5.777063
5.754629
5.730319
5.704745
5.677921
5.648932
5.619032
5.587447
5.554338
5.519796
5.483626
5.446547
5.407836
5.367967
5.326821
5.284660
5.241390
5.197396
5.152663
5.108015
5.061728
5.016508
4.973428
4.931384
4.888853
4.849704
4.809724
4.775863
4.749202
4.727360
4.709709
4.697594
4.693108
4.700842
4.719092
4.744493
4.783774
4.840933
4.920881
5.011744
5.127618
5.254020
5.428912
5.620581
5.835997
6.089664
6.370372
6.690317
7.056979
7.451229
7.891385
8.357430
8.891205
9.449456
10.046607
10.677898
11.339518
12.047744
12.765393
13.504961
14.255184
15.006681
15.758807
16.499702
17.216852
17.913573
18.578781
19.208453
19.801455
20.352121
20.858353
21.329570
21.772824
22.160331
22.538698
22.871637
23.176449
23.444189
23.663043
23.842355
23.982424
24.060621
0.108846
0.419270
-0.093905
-0.020628
0.014553
0.046818
-0.177743
0.076860
0.131308
0.149401
0.168226
0.177769
0.755762
18.338567
4.923182
4.432959
4.436896
5.464899
4.640032
5.632730
5.522739
5.376252
5.190406
7.059139
9.664014
13.171275
23.636417
22.484545
2.531885
3.392840
135.548462
25.807351
0.183559
1.922772
5.709892
21.555694
22.512399
-0.757339
57.828476
-25.116937
4.758971
4.136820
-46.175363
22.890551
1.318340
0.188086
22.709017
5.765337
0.544006
96.250186
103.248318
23.293935
18.041703
84.299239
46.366749
0.837672
5.379736
23.529536
23.607866
4.675670
0.193073
0.481103
15.468249
0.158446
-0.086229
-0.063644
22.932641
3.022753
27.519368
0.665277
5.682186
5.593256
5.468852
5.306199
5.988512
19.576840
4.554421
5.105918
7.975607
10.977783
4.827259
4.404435
4.912352
0.139036
0.118353
-0.183741
-0.005881
0.027968
0.059424
-0.147630
0.088081
0.384957
22.435149
25.306671
3.888368
22.636245
254.957259
5.144272
126.820678
-173.315103
0.155315
5.753991
33.963201
-28.230405
-109.682510
23.809335
23.810335
1.528460
-74.174792
18.675682
3.158511
79.567641
22.990711
25.735879
5.806361
5.757758
21.967838
5.747397
0.186441
0.188777
20.688921
5.743254
0.395601
0.182052
0.402536
5.666533
5.570878
5.439913
4.468995
5.016765
4.406367
16.952964
4.778582
4.731392
4.514474
4.480238
5.062899
6.304242
4.518855
8.489066
11.684543
13.935259
5.269351
0.152128
0.163508
0.174268
0.170260
0.098822
0.000623
-0.118565
-0.052257
-0.037078
0.359099
-0.215642
0.179204
0.122371
0.034001
0.065352
0.334902
-0.082004
0.142332
2.776912
2.409671
2.287644
3.269293
2.166931
23.343782
24.273623
22.774215
3.640334
22.645010
1.806231
1.680460
24.961279
1.559564
25.870490
4.634477
4.385563
22.443010
22.986842
22.713123
1.077722
23.397504
23.093189
79.173969
5.007948
0.717782
0.368849
160.238710
55.711656
-9.483952
146.074111
1.939627
5.629765
129.523749
129.505577
87.717770
15.419011
113.228638
66.405828
0.256258
0.139640
5.869969
23.914022
24.004464
0.355278
0.298817
0.236862
-0.009380
-0.101876
0.057141
0.233672
0.131594
-0.362892
5.260080
5.092964
4.593649
4.161362
4.572000
4.300334
5.618624
12.837849
7.593323
23.461492
2.534861
3.393228
-0.371911
-8.188348
22.359551
5.480005
26.093142
1.925388
21.741886
22.587281
81.355248
40.426095
22.953048
4.758537
0.371790
5.549677
108.809343
23.260386
0.843426
22.785404
22.505152
0.599764
1.684521
-0.958151
46.582991
51.008406
87.534485
5.569742
23.698589
38.498617
5.792497
1.505458
0.176471
118.578228
23.353661
0.182360
22.387220
0.183023
5.726251
0.293059
21.132114
-131.480051
0.182516
5.698303
20.231656
0.181338
26.229774
0.503227
23.721795
0.179551
5.649996
18.981338
0.391839
5.613226
4.256171
4.542113
5.547817
5.496776
5.408744
5.342087
5.230542
5.258075
17.662305
4.970518
4.593663
4.597366
5.715105
16.223399
4.455681
4.418748
4.686547
4.415364
4.786598
4.876052
14.702656
5.061960
5.148899
7.501885
9.063348
10.302749
12.419908
6.670904
0.135153
0.155454
0.113545
0.127101
0.103840
0.145997
0.093196
0.165807
0.176057
-0.162151
-0.139934
-0.192656
0.052705
0.020312
-0.168844
-0.110651
-0.072106
-0.046156
-0.014528
0.172446
0.160981
0.040193
-0.029133
0.070878
0.046673
0.082806
0.007142
0.283041
0.410751
25.883856
2.653607
2.898146
3.144158
23.127398
22.549668
23.921445
2.042528
3.515537
22.438254
2.411356
24.606238
2.289625
3.768750
22.641273
25.582089
22.470581
4.010306
4.258614
4.507447
22.562853
22.800041
1.436710
0.958222
1.201966
4.880542
23.194662
0.594776
5.261803
23.498474
23.817406
66.612783
23.706425
5.497177
5.788948
94.537801
168.815704
119.366217
0.056900
211.210045
11.859202
0.382562
-24.908524
31.465212
-8.786920
-16.922863
116.219845
-108.642871
85.388601
5.503678
3.938576
23.934443
18.743544
0.336656
-0.227980
4.839736
4.362226
4.050184
22.542899
2.538722
16.816392
0.360255
145.149049
4.126975
104.879765
39.109567
4.137895
5.407371
0.198294
5.092691
106.940633
23.502947
0.316945
0.263019
-0.329015
1.321003
3.022043
-75.737454
72.618302
126.008405
1.396533
0.359151
5.531552
5.499946
-11.562005
20.891978
0.362097
17.402659
15.936246
4.443012
4.744274
4.121423
5.198551
5.014765
4.901846
4.271154
8.679723
9.934776
6.290520
0.176599
-0.039564
-0.206079
0.029991
0.305470
0.245652
-0.395635
25.788474
24.765964
3.886651
3.264515
2.162934
22.388294
1.552739
4.368583
22.460307
23.210859
5.359089
5.612554
5.626043
33.194863
23.053902
0.735087
4.864469
23.674383
83.342534
22.082733
34.455394
-10.917861
23.593905
4.575049
0.324827
0.519118
0.373710
5.569848
23.071369
0.362680
5.546201
21.336856
6.475244
1.649740
1.986153
0.268175
0.358401
5.631129
19.896506
22.794180
5.454585
5.467173
47.610076
0.358523
4.136241
5.288659
5.340693
5.130042
4.346284
4.449275
4.644758
5.344580
7.115215
12.072211
5.230179
5.054752
4.724009
4.209028
4.492433
5.937706
8.116942
14.396829
13.613256
4.185704
4.219544
4.930199
-0.122204
0.119470
0.094294
0.687525
0.327262
0.278381
0.292440
-0.284322
0.348679
0.352518
-0.069752
0.154431
0.069421
0.366227
0.003515
0.218323
-0.177780
0.340923
-0.155745
0.227962
-0.024870
0.043554
-0.345859
0.902231
-0.085952
0.143132
22.481088
26.015183
22.360394
22.671710
2.770547
24.057381
4.625456
2.415824
3.630851
1.069232
26.072452
23.371573
25.122380
1.805736
22.968987
2.650008
2.044691
23.709557
-133.125603
3.510039
22.349929
22.859426
22.511429
55.435667
0.953665
7.165969
23.153780
0.217082
180.230960
0.621443
93.550553
17.751397
154.375150
88.030409
-61.661871
-0.378620
45.685393
0.532643
2.109626
0.107524
0.010797
-0.212546
0.449388
-0.512151
5.080976
0.356476
0.234529
14.080352
4.993714
6.746983
4.918269
3.843448
2.543785
5.270318
10.581719
24.417102
21.085171
3.647262
22.212779
22.518256
26.246695
1.669173
5.362951
0.544060
4.756390
22.870372
1.147374
22.880480
23.210732
0.512135
5.404449
4.387243
-0.142420
23.569379
9.330153
23.195234
22.002317
30.004110
5.365520
4.099959
4.415656
5.020873
4.124778
10.618496
0.199717
0.050427
3.391694
1.922365
6.828100
115.876781
22.567543
-3.293131
5.429763
70.340449
-21.410711
1.362800
115.396499
0.845690
81.084805
0.698182
23.320481
83.218577
137.192113
85.500236
0.524824
5.517695
0.325399
37.179335
71.944121
0.361202
15.148195
20.438760
5.439048
0.359456
29.054985
22.598950
5.389423
4.654195
0.363830
5.306152
18.099301
0.535598
1.478933
5.315790
16.690307
19.342349
4.792676
4.128397
15.174829
4.885791
4.160369
9.291409
11.331167
4.118523
13.289030
11.730441
5.165002
4.973367
4.695045
4.394498
6.686754
4.354668
5.113375
4.840905
3.902283
4.255362
4.309300
3.961089
4.004226
7.740745
5.571234
0.523865
-0.010102
0.088093
0.322354
0.270772
-0.009104
0.166085
0.015752
-0.055768
-0.328766
0.081456
-0.139337
0.345194
0.332234
0.208685
0.187809
-0.207840
-0.261902
0.873267
0.107472
0.311355
0.254845
-0.366762
-0.050190
0.285403
-0.092813
0.329109
-0.343860
2.789658
25.466022
0.364176
44.882460
24.344768
107.204724
2.297646
2.890013
22.396444
3.746033
1.190385
26.013764
22.427472
22.410271
2.674981
5.485068
22.765053
4.493773
3.143298
4.007849
26.134101
1.436593
23.763365
2.178137
4.243737
22.232415
68.656684
6.054606
23.480474
22.353124
5.214685
87.450144
22.969690
-13.578203
34.507174
-76.084689
4.971713
131.909162
-83.930968
-12.842552
-22.582838
23.641164
18.494896
0.151149
0.026141
13.763512
3.856056
4.188356
12.754860
-17.660439
41.828234
26.460748
155.473140
22.664258
66.998731
30.753670
130.698301
22.952958
0.806653
4.618709
4.093123
3.865168
0.491806
-0.314896
0.395602
-0.453250
-35.237077
61.598539
0.536909
5.323921
5.248076
20.189012
5.186380
9.530560
16.408770
4.202682
4.765927
4.037719
6.316161
3.925017
4.954202
8.915472
4.712731
4.800128
4.078192
3.754275
0.476055
-73.296792
0.505692
-0.252400
0.418415
0.439682
-0.513279
0.370498
-0.163372
0.299445
0.145205
-0.066531
0.501863
0.528720
23.431355
4.353781
23.324251
67.566016
3.005103
22.243615
108.523703
22.218641
3.920382
5.371469
1.288898
-48.347087
21.716873
34.909983
5.075166
23.103056
5.345775
0.538437
28.836717
5.382385
4.895312
18.154908
5.340744
5.255851
22.318879
0.535140
0.526039
-4.689103
20.665290
2.629393
5.284608
3.195935
0.286254
5.111067
17.832265
4.150518
4.554780
3.956354
5.917486
5.162520
4.519307
4.988632
8.304763
10.980462
4.467863
5.051698
3.835862
19.664363
3.847114
14.871014
0.534516
12.503834
7.224185
9.567139
4.880349
3.867236
5.266505
4.249003
2.533587
0.529296
0.181348
-0.390341
-0.032435
0.068701
-0.120662
-0.518230
0.343282
0.216170
0.267572
0.459126
0.518509
-0.194315
0.126676
0.030385
0.314574
0.250782
-0.072861
0.263500
25.642836
22.250577
3.248586
2.416330
0.537983
24.831915
4.617357
2.059693
23.400539
38.554503
22.204025
22.413839
3.518348
1.788311
22.602722
23.325829
26.391599
1.537238
1.008119
23.086124
23.496498
2.658783
2.157634
3.746691
155.214804
37.822464
22.871039
5.471661
23.929672
2.893311
20.059648
7.607278
22.243959
3.856288
22.806526
9.875900
22.288354
139.142718
5.381517
-70.920888
41.451377
38.204006
21.425114
-11.045135
51.675423
0.712851
0.683963
-0.568948
0.601073
-0.163420
18.235726
6.849918
8.362877
4.985549
0.316275
0.441676
4.844314
4.586460
3.553081
3.723966
4.420108
2.538737
5.079945
20.854215
3.902677
22.068567
0.704749
5.183522
4.304737
22.425062
4.752517
0.709060
1.670230
23.837553
3.389487
40.644242
5.248754
8.544240
10.623007
-0.055519
-0.256148
22.883103
23.074391
22.657129
27.307777
25.556777
21.994887
22.102450
19.933976
3.027435
-1.883098
14.564970
5.942657
3.575966
4.779508
0.691064
3.575616
3.927893
11.016955
0.348616
0.478178
0.270357
0.699290
0.073883
58.804521
5.253086
22.191488
123.686943
47.912777
0.719049
0.519625
26.381796
22.404905
5.163417
5.064920
4.992293
46.600573
0.533713
24.061023
5.206790
-32.427046
0.951820
72.997132
4.904891
5.114863
0.665240
19.105993
131.870141
3.912172
4.023421
17.140378
15.652342
2.386449
10.263696
3.890346
4.244063
4.569543
3.837441
4.756906
5.136116
4.666476
-0.329885
4.133278
3.804420
12.162065
12.960789
4.648315
4.744335
4.707350
4.668559
0.710006
7.927168
4.912902
3.656502
4.224156
3.670331
3.710550
5.558959
21.719669
-0.004242
0.123118
0.467761
-0.437142
0.283704
0.706725
0.163880
0.484293
-0.109457
0.428971
-0.353786
0.499032
-0.283959
0.407027
-0.494157
0.383365
-0.191551
1.201335
0.175899
0.360731
0.402641
0.050262
-25.351362
23.356606
25.860186
22.242203
25.211930
22.045012
50.575954
3.121570
2.281234
4.475546
3.635911
5.201559
68.485820
40.851634
1.902228
22.703851
97.130468
23.213783
23.326156
41.859169
4.217074
63.507402
1.412059
2.775040
3.970927
123.653383
26.853259
2.031361
103.674251
3.041254
24.533237
23.117354
5.267819
-8.025877
18.009474
22.026015
22.034117
22.676955
22.794431
5.139451
5.203259
-46.258660
-10.535973
21.168620
0.891164
1.721008
0.046356
-0.164793
0.197986
4.571542
7.558227
3.676895
4.022183
14.260008
4.090893
3.426649
4.880232
30.867822
-30.054475
21.920734
27.223041
24.946537
1.883026
21.816473
4.995508
0.872826
22.544548
10.501937
21.709567
-12.462677
22.702643
0.953008
4.448887
0.559622
0.656987
-0.371796
-0.514970
78.551407
4.348742
21.033400
1.253451
18.861314
4.062330
4.932106
16.875473
3.794163
0.687419
4.542586
9.197362
3.631797
12.621196
4.498009
5.007333
3.564468
66.292859
0.636248
0.588036
0.675555
-0.295298
0.529159
-0.529302
82.361165
21.812077
2.135661
4.610155
3.272234
-44.214874
87.033481
84.556468
20.644778
108.642116
22.510271
1.118446
34.603815
0.687180
80.534145
20.422550
-19.699319
65.506263
19.426007
9.608090
4.960452
5.222249
0.718414
22.473129
17.577474
6.374314
5.092990
2.796448
3.564834
9.898107
3.599757
4.812529
4.874054
0.704534
4.349406
4.296936
5.032731
3.553566
0.705846
0.703191
-0.138052
3.965115
3.558648
3.814769
15.352094
4.308175
3.967973
4.628456
11.379193
5.219349
3.610990
4.067150
7.369905
3.462728
3.907860
5.632759
-0.453008
0.246091
5.138322
0.338769
0.100443
0.459947
-0.233851
-0.496295
-0.136583
-0.029660
0.421930
0.293274
0.691770
0.613450
0.496346
5.191276
145.947905
0.199237
-0.079350
0.108767
0.381856
33.919082
1.533594
0.796154
22.830850
26.196028
2.402939
22.817509
22.277764
25.276868
59.643321
21.979758
21.409945
2.909315
3.762657
21.995702
4.869422
1.787417
24.270450
3.517257
22.125079
11.238878
28.173385
4.072094
59.000814
2.809450
2.674258
28.864653
86.797748
23.282739
-53.904504
3.170527
22.368398
2.005038
27.132543
5.136589
39.692358
22.979678
88.242174
53.413127
18.625155
4.758593
0.856260
0.753841
-0.442980
0.456016
0.601742
3.296310
3.803008
3.761634
2.820798
-15.232008
26.173101
23.044033
0.345133
3.359957
0.868797
4.747844
16.339526
-0.992142
-0.271519
-0.051791
22.134078
-13.567927
22.517719
1.722830
22.254730
20.168680
0.857994
0.870621
1.264264
17.324508
15.063301
4.952136
3.742066
3.282095
3.508621
3.378279
5.060448
4.700480
0.507813
0.013214
0.168329
2.536579
3.636049
3.934496
67.649742
21.488007
28.691472
1.642717
3.033873
21.733570
21.715071
5.577602
4.843372
22.196250
1.099158
76.784097
27.417962
17.307246
0.944779
20.601601
22.699825
90.156330
34.566776
4.808700
22.370170
0.886042
0.875940
4.986815
4.130405
4.926957
4.885680
3.735636
16.136486
3.903305
3.419188
4.638168
4.495872
6.988356
7.006266
4.076637
0.883365
13.443963
4.535571
4.605352
0.665548
0.137575
3.619382
0.888104
0.882040
3.913155
4.417494
4.328982
4.864412
11.812763
10.257892
9.510638
8.166780
3.322808
3.365501
3.745850
4.458819
4.570680
3.852866
3.513190
4.400340
6.005276
28.557848
3.341507
15.919976
0.556231
0.625215
-0.207802
-0.490156
0.513093
0.734936
0.222831
0.073971
-0.233336
0.647080
0.574117
0.865636
0.402282
-0.401824
0.666648
-0.328681
0.544913
19.694265
-0.552279
-0.136218
0.259057
0.227993
0.136458
25.317327
-0.107508
22.693744
11.281777
5.048244
22.029044
4.209391
22.642069
2.259771
15.431620
24.742329
1.392601
-13.906945
21.641278
1.999398
22.876040
4.469442
21.841428
51.954844
99.904931
22.947369
0.629710
28.034852
49.419062
98.843477
2.933862
-6.677599
5.094839
21.262371
57.113821
1.760577
3.117586
27.429462
4.639729
3.865714
1.040510
1.393410
0.253931
0.076257
1.068512
4.328445
7.172400
-0.435586
3.508476
3.275392
14.774828
-0.085838
3.211855
3.589537
19.917082
4.769874
36.751434
21.400000
4.882182
1.036518
22.099119
1.615220
4.337532
0.823164
1.101036
9.139926
3.132462
11.454961
0.664748
2.134220
-37.008046
41.335581
1.028597
-3.245785
-1.424901
5.586544
3.081414
4.250204
-0.499920
-0.153778
0.797462
0.148021
0.702516
0.846168
0.623947
-0.371311
0.317119
20.818184
83.711346
2.397048
38.784230
4.600036
21.315512
21.257016
0.860876
0.890470
4.689647
4.895745
-25.833458
22.370926
2.982976
21.700695
7.561956
3.796837
22.371239
20.316906
18.115006
4.809926
19.192481
1.752838
0.878161
4.784878
5.056470
12.977815
7.627894
1.253416
17.996578
4.903823
3.628670
3.581699
22.239507
5.195636
4.668613
3.861209
3.282814
3.614717
4.281407
4.183096
4.729230
21.914872
13.110913
4.399841
5.013213
15.843329
16.618759
0.677324
3.447915
4.374044
11.022211
3.688399
8.819033
1.070433
1.065774
6.477826
3.317241
3.298357
4.225444
3.978156
3.174668
3.388460
5.927148
4.241299
0.874329
-0.309496
-0.300653
0.531446
-0.077453
0.769071
0.321815
-0.243263
0.482042
-0.014361
0.374293
0.737531
-0.470273
0.578619
0.286312
0.219347
0.428786
25.032219
22.113860
21.652549
22.101931
24.552449
2.669537
28.858450
27.122759
4.064065
22.547414
1.879305
55.736332
3.481068
1.521646
88.244941
3.226840
88.983640
0.794485
23.481528
64.739413
22.424753
57.661495
45.619375
20.733111
0.908209
0.555335
1.246540
4.084074
4.487819
1.997325
0.318239
0.727751
3.287981
3.276121
2.897382
2.804470
-8.626264
22.069783
23.841587
4.629637
3.626808
4.558472
3.020545
3.647279
-0.190573
15.294388
38.554556
4.744511
18.368632
5.217408
48.415952
-0.254474
0.425273
1.248899
21.445447
21.917145
4.852613
-1.313442
4.497865
3.917300
8.446687
3.308365
4.433590
9.875323
4.163887
3.471508
3.647483
22.268508
1.050933
0.615741
-0.191521
0.265153
0.357489
-0.023149
2.532217
3.355951
21.986236
1.487947
23.813840
1.014184
1.105122
21.074056
1.061228
21.303040
43.449404
-20.561074
-5.265852
18.537568
1.037344
20.360529
34.916899
4.610846
1.048047
1.051069
17.742369
-0.045115
16.334121
2.440395
4.744016
4.695839
7.776354
3.569242
3.431915
3.036748
3.094910
1.248910
4.117602
6.615978
4.812894
4.232796
13.953228
10.657176
19.463336
4.364756
15.571449
4.208355
3.530707
3.139458
12.276927
4.290168
3.330597
4.838245
4.513247
6.094808
1.048436
3.013607
3.051100
3.225319
5.084310
3.225807
3.916431
1.029350
0.783779
0.673268
0.040056
0.492211
2.526704
-0.532420
0.179992
1.058754
0.289174
-0.353928
-0.475637
-0.126810
0.810813
0.110938
0.683965
4.898417
0.835137
37.091522
0.720138
0.644766
-0.423683
21.793395
4.201291
1.383091
-0.059186
30.099722
21.072313
24.057619
40.702607
21.120433
-10.371476
21.519543
23.852679
1.732506
-15.841275
22.192259
2.259062
2.003644
76.564218
21.578423
4.460478
1.006331
76.816175
3.098628