# vtk DataFile Version 2.0
Test
ASCII
DATASET POLYDATA
POINTS 3011 float
0.000000 0.000000 0.000000
2.000000 0.000000 0.000000
2.000000 4.000000 0.000000
0.000000 4.000000 0.000000
0.000000 0.500000 0.000000
1.500000 2.000000 0.000000
2.000000 2.500000 0.000000
0.285714 0.000000 0.000000
0.571429 0.000000 0.000000
0.857143 0.000000 0.000000
1.142857 0.000000 0.000000
1.428571 0.000000 0.000000
1.714286 0.000000 0.000000
2.000000 0.276366 0.000000
2.000000 0.523709 0.000000
2.000000 0.745076 0.000000
2.000000 0.943195 0.000000
2.000000 1.120508 0.000000
2.000000 1.279199 0.000000
2.000000 1.421225 0.000000
2.000000 1.548336 0.000000
2.000000 1.662097 0.000000
2.000000 1.763911 0.000000
2.000000 1.855033 0.000000
2.000000 1.936585 0.000000
2.000000 2.009573 0.000000
2.000000 2.074896 0.000000
2.000000 2.133358 0.000000
2.000000 2.185681 0.000000
2.000000 2.232509 0.000000
2.000000 2.274419 0.000000
2.000000 2.311927 0.000000
2.000000 2.345497 0.000000
2.000000 2.375541 0.000000
2.000000 2.402430 0.000000
2.000000 2.426495 0.000000
2.000000 2.448033 0.000000
2.000000 2.467309 0.000000
2.000000 2.484560 0.000000
2.000000 2.516256 0.000000
2.000000 2.535859 0.000000
2.000000 2.559499 0.000000
2.000000 2.588006 0.000000
2.000000 2.622383 0.000000
2.000000 2.663839 0.000000
2.000000 2.713831 0.000000
2.000000 2.774116 0.000000
2.000000 2.846815 0.000000
2.000000 2.934483 0.000000
2.000000 3.040202 0.000000
2.000000 3.167691 0.000000
2.000000 3.321430 0.000000
2.000000 3.506825 0.000000
2.000000 3.730395 0.000000
1.714286 4.000000 0.000000
1.428571 4.000000 0.000000
1.142857 4.000000 0.000000
0.857143 4.000000 0.000000
0.571429 4.000000 0.000000
0.285714 4.000000 0.000000
0.000000 3.713462 0.000000
0.000000 3.449209 0.000000
0.000000 3.205508 0.000000
0.000000 2.980761 0.000000
0.000000 2.773493 0.000000
0.000000 2.582346 0.000000
0.000000 2.406065 0.000000
0.000000 2.243495 0.000000
0.000000 2.093568 0.000000
0.000000 1.955302 0.000000
0.000000 1.827789 0.000000
0.000000 1.710194 0.000000
0.000000 1.601745 0.000000
0.000000 1.501730 0.000000
0.000000 1.409494 0.000000
0.000000 1.324431 0.000000
0.000000 1.245984 0.000000
0.000000 1.173639 0.000000
0.000000 1.106920 0.000000
0.000000 1.045390 0.000000
0.000000 0.988645 0.000000
0.000000 0.936314 0.000000
0.000000 0.888053 0.000000
0.000000 0.843545 0.000000
0.000000 0.802499 0.000000
0.000000 0.764646 0.000000
0.000000 0.729736 0.000000
0.000000 0.697541 0.000000
0.000000 0.667851 0.000000
0.000000 0.640469 0.000000
0.000000 0.615217 0.000000
0.000000 0.591929 0.000000
0.000000 0.570453 0.000000
0.000000 0.550646 0.000000
0.000000 0.532380 0.000000
0.000000 0.515535 0.000000
0.000000 0.483768 0.000000
0.000000 0.461535 0.000000
0.000000 0.431083 0.000000
0.000000 0.389372 0.000000
0.000000 0.332241 0.000000
0.000000 0.253989 0.000000
0.000000 0.146807 0.000000
0.010563 0.510563 0.000000
0.021127 0.521127 0.000000
0.031690 0.531690 0.000000
0.042254 0.542254 0.000000
0.052817 0.552817 0.000000
0.063380 0.563380 0.000000
0.073944 0.573944 0.000000
0.084507 0.584507 0.000000
0.095070 0.595070 0.000000
0.105634 0.605634 0.000000
0.116197 0.616197 0.000000
0.126761 0.626761 0.000000
0.137324 0.637324 0.000000
0.147887 0.647887 0.000000
0.158451 0.658451 0.000000
0.169014 0.669014 0.000000
0.179577 0.679577 0.000000
0.190141 0.690141 0.000000
0.200704 0.700704 0.000000
0.211268 0.711268 0.000000
0.221831 0.721831 0.000000
0.232394 0.732394 0.000000
0.242958 0.742958 0.000000
0.253521 0.753521 0.000000
0.264085 0.764085 0.000000
0.274648 0.774648 0.000000
0.285211 0.785211 0.000000
0.295775 0.795775 0.000000
0.306338 0.806338 0.000000
0.316901 0.816901 0.000000
0.327465 0.827465 0.000000
0.338028 0.838028 0.000000
0.348592 0.848592 0.000000
0.359155 0.859155 0.000000
0.369718 0.869718 0.000000
0.380282 0.880282 0.000000
0.390845 0.890845 0.000000
0.401408 0.901408 0.000000
0.411972 0.911972 0.000000
0.422535 0.922535 0.000000
0.433099 0.933099 0.000000
0.443662 0.943662 0.000000
0.454225 0.954225 0.000000
0.464789 0.964789 0.000000
0.475352 0.975352 0.000000
0.485915 0.985915 0.000000
0.496479 0.996479 0.000000
0.507042 1.007042 0.000000
0.517606 1.017606 0.000000
0.528169 1.028169 0.000000
0.538732 1.038732 0.000000
0.549296 1.049296 0.000000
0.559859 1.059859 0.000000
0.570423 1.070423 0.000000
0.580986 1.080986 0.000000
0.591549 1.091549 0.000000
0.602113 1.102113 0.000000
0.612676 1.112676 0.000000
0.623239 1.123239 0.000000
0.633803 1.133803 0.000000
0.644366 1.144366 0.000000
0.654930 1.154930 0.000000
0.665493 1.165493 0.000000
0.676056 1.176056 0.000000
0.686620 1.186620 0.000000
0.697183 1.197183 0.000000
0.707746 1.207746 0.000000
0.718310 1.218310 0.000000
0.728873 1.228873 0.000000
0.739437 1.239437 0.000000
0.750000 1.250000 0.000000
0.760563 1.260563 0.000000
0.771127 1.271127 0.000000
0.781690 1.281690 0.000000
0.792254 1.292254 0.000000
0.802817 1.302817 0.000000
0.813380 1.313380 0.000000
0.823944 1.323944 0.000000
0.834507 1.334507 0.000000
0.845070 1.345070 0.000000
0.855634 1.355634 0.000000
0.866197 1.366197 0.000000
0.876761 1.376761 0.000000
0.887324 1.387324 0.000000
0.897887 1.397887 0.000000
0.908451 1.408451 0.000000
0.919014 1.419014 0.000000
0.929577 1.429577 0.000000
0.940141 1.440141 0.000000
0.950704 1.450704 0.000000
0.961268 1.461268 0.000000
0.971831 1.471831 0.000000
0.982394 1.482394 0.000000
0.992958 1.492958 0.000000
1.003521 1.503521 0.000000
1.014085 1.514085 0.000000
1.024648 1.524648 0.000000
1.035211 1.535211 0.000000
1.045775 1.545775 0.000000
1.056338 1.556338 0.000000
1.066901 1.566901 0.000000
1.077465 1.577465 0.000000
1.088028 1.588028 0.000000
1.098592 1.598592 0.000000
1.109155 1.609155 0.000000
1.119718 1.619718 0.000000
1.130282 1.630282 0.000000
1.140845 1.640845 0.000000
1.151408 1.651408 0.000000
1.161972 1.661972 0.000000
1.172535 1.672535 0.000000
1.183099 1.683099 0.000000
1.193662 1.693662 0.000000
1.204225 1.704225 0.000000
1.214789 1.714789 0.000000
1.225352 1.725352 0.000000
1.235915 1.735915 0.000000
1.246479 1.746479 0.000000
1.257042 1.757042 0.000000
1.267606 1.767606 0.000000
1.278169 1.778169 0.000000
1.288732 1.788732 0.000000
1.299296 1.799296 0.000000
1.309859 1.809859 0.000000
1.320423 1.820423 0.000000
1.330986 1.830986 0.000000
1.341549 1.841549 0.000000
1.352113 1.852113 0.000000
1.362676 1.862676 0.000000
1.373239 1.873239 0.000000
1.383803 1.883803 0.000000
1.394366 1.894366 0.000000
1.404930 1.904930 0.000000
1.415493 1.915493 0.000000
1.426056 1.926056 0.000000
1.436620 1.936620 0.000000
1.447183 1.947183 0.000000
1.457746 1.957746 0.000000
1.468310 1.968310 0.000000
1.478873 1.978873 0.000000
1.489437 1.989437 0.000000
1.510417 2.010417 0.000000
1.520833 2.020833 0.000000
1.531250 2.031250 0.000000
1.541667 2.041667 0.000000
1.552083 2.052083 0.000000
1.562500 2.062500 0.000000
1.572917 2.072917 0.000000
1.583333 2.083333 0.000000
1.593750 2.093750 0.000000
1.604167 2.104167 0.000000
1.614583 2.114583 0.000000
1.625000 2.125000 0.000000
1.635417 2.135417 0.000000
1.645833 2.145833 0.000000
1.656250 2.156250 0.000000
1.666667 2.166667 0.000000
1.677083 2.177083 0.000000
1.687500 2.187500 0.000000
1.697917 2.197917 0.000000
1.708333 2.208333 0.000000
1.718750 2.218750 0.000000
1.729167 2.229167 0.000000
1.739583 2.239583 0.000000
1.750000 2.250000 0.000000
1.760417 2.260417 0.000000
1.770833 2.270833 0.000000
1.781250 2.281250 0.000000
1.791667 2.291667 0.000000
1.802083 2.302083 0.000000
1.812500 2.312500 0.000000
1.822917 2.322917 0.000000
1.833333 2.333333 0.000000
1.843750 2.343750 0.000000
1.854167 2.354167 0.000000
1.864583 2.364583 0.000000
1.875000 2.375000 0.000000
1.885417 2.385417 0.000000
1.895833 2.395833 0.000000
1.906250 2.406250 0.000000
1.916667 2.416667 0.000000
1.927083 2.427083 0.000000
1.937500 2.437500 0.000000
1.947917 2.447917 0.000000
1.958333 2.458333 0.000000
1.968750 2.468750 0.000000
1.979167 2.479167 0.000000
1.989583 2.489583 0.000000
0.206561 0.791563 0.000000
0.205359 0.816165 0.000000
0.186354 0.798211 0.000000
0.221961 0.800924 0.000000
0.280649 1.360489 0.000000
0.304015 1.400469 0.000000
0.229142 1.396096 0.000000
0.275922 1.451476 0.000000
1.869084 2.391788 0.000000
1.857928 2.378421 0.000000
1.238669 2.061899 0.000000
1.278787 2.082276 0.000000
1.238298 2.096047 0.000000
1.277579 2.032995 0.000000
0.402536 1.205823 0.000000
0.415290 1.176040 0.000000
0.428330 1.201952 0.000000
0.387294 1.172617 0.000000
0.146930 1.050586 0.000000
0.109488 1.087198 0.000000
0.102742 1.042403 0.000000
0.157178 1.091184 0.000000
0.588967 1.178581 0.000000
0.593116 1.153718 0.000000
0.608054 1.166752 0.000000
0.612180 1.145944 0.000000
0.860304 1.543784 0.000000
0.868821 1.521840 0.000000
0.878420 1.536650 0.000000
0.845380 1.517623 0.000000
1.129525 1.764330 0.000000
1.142005 1.751560 0.000000
1.145757 1.773681 0.000000
1.159368 1.759106 0.000000
1.968150 2.518865 0.000000
1.986105 2.509269 0.000000
1.986696 2.531115 0.000000
0.668964 1.191005 0.000000
0.683291 1.201259 0.000000
0.557625 1.074830 0.000000
0.569760 1.084377 0.000000
0.557769 1.089278 0.000000
0.707567 1.266174 0.000000
0.719026 1.281845 0.000000
0.700768 1.282275 0.000000
0.722329 1.266956 0.000000
0.468225 2.149688 0.000000
0.419106 2.064198 0.000000
0.523878 2.082648 0.000000
0.838546 1.421191 0.000000
0.823708 1.410355 0.000000
0.840477 1.404206 0.000000
0.818500 1.425973 0.000000
0.953187 1.488222 0.000000
0.959780 1.473222 0.000000
0.967054 1.485637 0.000000
1.047418 1.769126 0.000000
1.080240 1.782403 0.000000
1.047768 1.802712 0.000000
0.971392 1.693320 0.000000
0.949208 1.720793 0.000000
0.940644 1.684781 0.000000
0.381391 2.160909 0.000000
0.944091 1.477800 0.000000
0.530075 1.477351 0.000000
0.521303 1.516669 0.000000
0.474240 1.491166 0.000000
0.489489 1.546185 0.000000
1.537370 2.239326 0.000000
1.555275 2.267640 0.000000
1.532966 2.278201 0.000000
0.962010 1.661716 0.000000
0.986804 1.643200 0.000000
0.986259 1.672729 0.000000
1.049149 1.737940 0.000000
1.075111 1.737123 0.000000
[...]
POINT_DATA 3011
SCALARS UX float 1
LOOKUP_TABLE default
-0.000000
0.000000
-0.150094
-0.176879
-0.027584
-0.071337
0.023054
-0.000000
-0.000000
-0.000000
-0.000000
0.000000
-0.000000
0.007439
0.010934
0.013293
0.014769
0.015723
0.016373
0.016974
0.017711
0.018555
0.019378
0.020120
0.020702
0.021103
0.021322
0.021420
0.021556
0.021893
0.022372
0.023086
0.024177
0.024882
0.023502
0.019976
0.018100
0.029007
0.039640
-0.052229
-0.126329
-0.136792
-0.138294
-0.138893
-0.140372
-0.141009
-0.141701
-0.142521
-0.143475
-0.144442
-0.145541
-0.146750
-0.148192
-0.149526
-0.155018
-0.159521
-0.163624
-0.167429
-0.170924
-0.174001
-0.176406
-0.175637
-0.174322
-0.172719
-0.170898
-0.168856
-0.166594
-0.164233
-0.161675
-0.158929
-0.155884
-0.152732
-0.149366
-0.145824
-0.142072
-0.138055
-0.133494
-0.128342
-0.122513
-0.116158
-0.108992
-0.101399
-0.093396
-0.085147
-0.077522
-0.071400
-0.069071
-0.081827
-0.106489
-0.131476
-0.127329
-0.071181
-0.051493
-0.044419
-0.020326
-0.019068
-0.013368
-0.012101
-0.010349
-0.009079
-0.007733
-0.006148
-0.004261
-0.021804
-0.015986
-0.015528
-0.013893
-0.017902
-0.021286
-0.022810
-0.002714
-0.046069
-0.082878
-0.126912
-0.047474
-0.010170
0.004714
0.010362
-0.018108
-0.574890
-0.116194
0.383346
-0.223063
0.006988
-0.012213
-0.025915
-0.060441
-0.125646
-0.081214
-0.083797
-0.044494
-0.027371
-0.041585
-0.052481
-0.041101
-0.064059
-0.070297
-0.044600
-0.069524
-0.065758
-0.063745
-0.052782
-0.046008
-0.011300
-0.026604
-0.005122
0.007647
0.011726
-0.025707
-0.029409
-0.021030
-0.019057
-0.016945
-0.031836
-0.035148
-0.064974
-0.058488
-0.044789
-0.048393
-0.048125
-0.017360
0.013841
-0.015082
-0.037880
-0.040849
-0.042961
-0.033719
-0.040450
-0.053309
-0.050829
-0.045275
-0.040870
-0.038471
-0.020654
0.003109
-0.029041
-0.020188
-0.014916
-0.042084
-0.037047
-0.034504
-0.038169
-0.050301
-0.052468
-0.053480
-0.124023
-0.099235
-0.086015
-0.089931
-0.084762
-0.083308
-0.091268
-0.094884
-0.096479
-0.054909
-0.050125
-0.043809
-0.035421
-0.043991
-0.043723
-0.039249
-0.035306
-0.030918
-0.141396
-0.053402
-0.066929
-0.083158
-0.081835
-0.081943
-0.080845
-0.069285
-0.071834
-0.065640
-0.101567
-0.102527
-0.103713
-0.107750
-0.104605
-0.091333
-0.082221
-0.072247
-0.061979
-0.047726
-0.110599
-0.115204
-0.116400
-0.108722
-0.093335
-0.087088
-0.059777
-0.060519
-0.073401
-0.075938
-0.069305
-0.064856
-0.058667
-0.055330
-0.053652
-0.050872
-0.049108
-0.044615
-0.035063
-0.055767
-0.069591
-0.070548
-0.087046
-0.115661
-0.084607
-0.081226
-0.078125
-0.074799
-0.072090
-0.067370
-0.096281
-0.093587
-0.087765
-0.083624
-0.085306
-0.080677
-0.081990
-0.076792
-0.066767
-0.071733
-0.067964
-0.065703
-0.062103
-0.058236
-0.047276
-0.063043
-0.063350
-0.059214
-0.067897
-0.067464
-0.061008
-0.052863
-0.047932
-0.047082
-0.045680
-0.040126
-0.030712
-0.028966
-0.031964
-0.024257
-0.024394
-0.023349
-0.021225
-0.020371
-0.021373
-0.014198
-0.001078
0.029680
-0.094745
-0.085031
-0.086779
-0.074913
-0.137927
-0.139290
-0.140172
-0.141800
-0.075081
-0.077276
-0.146390
-0.146213
-0.147097
-0.145110
-0.128137
-0.126017
-0.127233
-0.126544
-0.117132
-0.121075
-0.116148
-0.121424
-0.122366
-0.121128
-0.115149
-0.087879
-0.136839
-0.135202
-0.136359
-0.135189
-0.139785
-0.138202
-0.137840
-0.136551
-0.132343
-0.073039
-0.131792
0.093357
0.122016
-0.088858
-0.068185
-0.100618
-0.112795
-0.117027
-0.122709
-0.114905
-0.158312
-0.157336
-0.156448
-0.126883
-0.129034
-0.096953
-0.130442
-0.111808
-0.096258
-0.103159
-0.142490
-0.142094
-0.143266
-0.141184
-0.142588
-0.141461
-0.159475
-0.109987
-0.138859
-0.140615
-0.140270
-0.142309
-0.144693
-0.144920
-0.145493
-0.140093
-0.138325
-0.139814
-0.141756
-0.140986
-0.141469
-0.144402
-0.140841
-0.129036
-0.102116
-0.106601
-0.120511
-0.147016
-0.146147
-0.146810
-0.145590
-0.146602
-0.146072
-0.136072
-0.134806
-0.134804
-0.144509
-0.143858
-0.145953
-0.133296
-0.146137
-0.128498
-0.128960
-0.130531
-0.126578
-0.153552
-0.153278
-0.152541
-0.154951
-0.150088
-0.147271
-0.148240
-0.143191
-0.143206
-0.143921
-0.149733
-0.131683
-0.131963
-0.128541
-0.135122
-0.133713
-0.135230
-0.133936
-0.129393
-0.153185
-0.154532
-0.155643
-0.137682
-0.134214
-0.133124
-0.152520
-0.150989
-0.151787
-0.129123
-0.127133
-0.150028
-0.140715
-0.142061
-0.141701
-0.140708
-0.142843
-0.143193
-0.143521
-0.137713
-0.139441
-0.139263
-0.141684
-0.051994
-0.235404
-0.069832
-0.126580
-0.125064
-0.126102
-0.126895
-0.131894
-0.123974
-0.146199
-0.144936
-0.145248
-0.121799
-0.143946
-0.143654
-0.142237
-0.113407
-0.118609
-0.113121
-0.111038
-0.057157
-0.056423
-0.113615
-0.122646
-0.121144
-0.100725
-0.119898
-0.142823
-0.143797
-0.142740
-0.139733
-0.138427
-0.140480
-0.126935
-0.130490
-0.136890
-0.140969
-0.073223
-0.090697
-0.070813
-0.131359
-0.133263
-0.131600
-0.142796
-0.133075
-0.088302
-0.093434
-0.093979
-0.131943
-0.121760
-0.135735
-0.136390
-0.085456
-0.122959
-0.126392
-0.132127
-0.129712
-0.088893
-0.110942
-0.143700
-0.143591
-0.144753
-0.121277
-0.129083
-0.162159
-0.150111
-0.149515
-0.149299
-0.150950
-0.088423
-0.093774
-0.142265
-0.144926
-0.145523
-0.144091
-0.088057
-0.068873
-0.064648
-0.151836
-0.151284
-0.154238
-0.154079
-0.060047
-0.061799
-0.139924
-0.102087
-0.122487
-0.122798
-0.122788
-0.123788
-0.109789
-0.142293
-0.142792
-0.141478
-0.146573
-0.147101
-0.146286
-0.147313
-0.145951
-0.145540
-0.145236
-0.108212
-0.097614
-0.136873
-0.138720
-0.136578
-0.135707
-0.126030
-0.109998
-0.122749
-0.111176
-0.145515
-0.145141
-0.144560
-0.119220
-0.124138
-0.133242
-0.140704
-0.139416
-0.143255
-0.093114
-0.097947
-0.119559
-0.129703
-0.129617
-0.136446
-0.135308
-0.134911
-0.133598
-0.125067
-0.126570
-0.115050
-0.132885
-0.132213
-0.128438
-0.134757
-0.134371
-0.129144
-0.133131
-0.131155
-0.154062
-0.090595
-0.105712
-0.139130
-0.137358
-0.138012
-0.088677
-0.139918
-0.142265
-0.141912
-0.142911
-0.137863
-0.135811
-0.137290
-0.138198
-0.137984
-0.097124
-0.094792
-0.111119
-0.129670
-0.133852
-0.121515
-0.136112
-0.132988
-0.157495
-0.126696
-0.136587
-0.063956
-0.056711
-0.079003
-0.057269
-0.082504
-0.133244
-0.136678
-0.139308
-0.146200
-0.147120
-0.148085
-0.129528
-0.138457
-0.132821
-0.134773
-0.145582
-0.146203
-0.132684
-0.131509
-0.138838
-0.141355
-0.129960
-0.133737
-0.136025
-0.137048
-0.111763
-0.116742
-0.112209
-0.111592
-0.095834
-0.072448
-0.065066
-0.167108
-0.167775
-0.170210
-0.134652
-0.119251
-0.121759
-0.120089
-0.122998
-0.148452
-0.146867
-0.147983
-0.146458
-0.151589
-0.150360
-0.151555
-0.149987
-0.134658
-0.124625
-0.131489
-0.117029
-0.140992
-0.142511
-0.148203
-0.150317
-0.147758
-0.063348
-0.062403
-0.055980
-0.064096
-0.105036
-0.108908
-0.141329
-0.141348
-0.140310
-0.143069
-0.144072
-0.123028
-0.123547
-0.124080
-0.125360
-0.125771
-0.139507
-0.140881
-0.140930
-0.142366
-0.103937
-0.109620
-0.102074
-0.075607
-0.137975
-0.136091
-0.098104
-0.094066
-0.098584
-0.101472
-0.101809
-0.080498
-0.079385
-0.062401
-0.071645
-0.045271
-0.086371
-0.078067
-0.088612
-0.094597
-0.094915
-0.150557
-0.149254
-0.148225
-0.145357
-0.172462
-0.171631
-0.170498
-0.174539
-0.172737
-0.140980
-0.140922
-0.140462
-0.142031
-0.142620
-0.142029
-0.114758
-0.118191
-0.114421
-0.147983
-0.146066
-0.148909
-0.150607
-0.144201
-0.142735
-0.143563
-0.144780
-0.142008
-0.142720
-0.117753
-0.116698
-0.120338
-0.117694
-0.055304
-0.046919
-0.028825
-0.021534
-0.026098
-0.023076
-0.123471
-0.134299
-0.137147
-0.110920
-0.117347
-0.117085
-0.150972
-0.150760
-0.151881
-0.152303
-0.151160
-0.156464
-0.159069
-0.157615
-0.160924
-0.137918
-0.139226
-0.136574
-0.087304
-0.066994
-0.090006
-0.052030
-0.140514
-0.151869
-0.099966
-0.105534
-0.104218
-0.086736
-0.027456
-0.100999
-0.139905
-0.139129
-0.136397
-0.027983
-0.062421
-0.063551
-0.153209
-0.026469
-0.042335
-0.099083
-0.136469
-0.135899
-0.059584
-0.127276
-0.147466
-0.145489
-0.121126
-0.116404
-0.118474
-0.136679
-0.148611
-0.147627
-0.147834
-0.124758
-0.130435
-0.132141
-0.132480
-0.129750
-0.131150
-0.133523
-0.132064
-0.137414
-0.141133
-0.087661
-0.082530
-0.088657
-0.082361
-0.121133
-0.134442
-0.123060
-0.095621
-0.066276
-0.199075
-0.144190
-0.141095
-0.142095
-0.047215
-0.061465
-0.059416
-0.086226
-0.114309
-0.141689
-0.142108
-0.142963
-0.101297
-0.098621
-0.099899
-0.158631
-0.156858
-0.157956
-0.156257
-0.156976
-0.076989
-0.082838
-0.081929
-0.075909
-0.146050
-0.146701
-0.102350
-0.124155
-0.086618
-0.104615
-0.134298
-0.136195
-0.135842
-0.138105
-0.137682
-0.141474
-0.139868
-0.142438
-0.143417
-0.043115
-0.031782
-0.140515
-0.140464
-0.128896
-0.130175
-0.131184
-0.133983
-0.133035
-0.037283
-0.054807
-0.130533
-0.133396
-0.134899
-0.124188
-0.125395
-0.131928
-0.131543
-0.151965
-0.153276
-0.152390
-0.151470
-0.034212
-0.166740
-0.121308
-0.104896
-0.126317
-0.111007
-0.103290
-0.127258
-0.130035
-0.136537
-0.150827
-0.149562
-0.148743
-0.150066
-0.149000
-0.147769
-0.143762
-0.142809
-0.139144
-0.139362
-0.147036
-0.146437
-0.140249
-0.142032
-0.038178
-0.124595
-0.127264
-0.072843
-0.053045
-0.058834
-0.064566
-0.079312
-0.147981
-0.084123
-0.072330
-0.147020
-0.147165
-0.148584
-0.046865
-0.076612
-0.133846
-0.068217
-0.141096
-0.143769
-0.144642
-0.144777
-0.146493
-0.145701
-0.144107
-0.136587
-0.105073
-0.109060
-0.108815
-0.137236
-0.147874
-0.147484
-0.148628
-0.148838
-0.091909
-0.072539
-0.068632
-0.067761
-0.070267
-0.065348
-0.163944
-0.163343
-0.162042
-0.165540
-0.165861
-0.084077
-0.088091
-0.154897
-0.155779
-0.156814
-0.153791
-0.157260
-0.158618
-0.144132
-0.080197
-0.160162
-0.074988
-0.144587
-0.154826
-0.155575
-0.026433
-0.061714
-0.022993
-0.075113
-0.075898
-0.165202
-0.162257
-0.164380
-0.162987
-0.064745
-0.060876
-0.115267
-0.130034
-0.142937
-0.141144
-0.140001
-0.129083
-0.131732
-0.127894
-0.082290
-0.084918
-0.092889
-0.050141
-0.146125
-0.144802
-0.146347
-0.145076
-0.146473
-0.151905
-0.152991
-0.138394
-0.140493
-0.140131
-0.138982
-0.132803
-0.150734
-0.153918
-0.154362
-0.155476
-0.155756
-0.170383
-0.168500
-0.169468
-0.167500
-0.045621
-0.047065
-0.048773
-0.122769
-0.092448
-0.124092
-0.126777
-0.125171
-0.121865
-0.148484
-0.150896
-0.146808
-0.136536
-0.136865
-0.105222
-0.117571
-0.114309
-0.107377
-0.105024
-0.119300
-0.168208
-0.111405
-0.113742
-0.141731
-0.161538
-0.161960
-0.159594
-0.150742
-0.160508
-0.088025
-0.125538
-0.079588
-0.070740
-0.132893
-0.092942
-0.160878
-0.164743
-0.161120
-0.058668
-0.038788
-0.075822
-0.077927
-0.078650
-0.085353
-0.040178
-0.143150
-0.144443
-0.143639
-0.092893
-0.120238
-0.077997
-0.011809
-0.008804
-0.016433
-0.012894
-0.046685
-0.151364
-0.153833
-0.154167
-0.156459
-0.119241
-0.122023
-0.137707
-0.136252
-0.160131
-0.160437
-0.147145
-0.143576
-0.095981
-0.125497
-0.125004
-0.123663
-0.154670
-0.130811
-0.129614
-0.130712
-0.157358
-0.155970
-0.152698
-0.154996
-0.153232
-0.167996
-0.138564
-0.138221
-0.139627
-0.148977
-0.146644
-0.148307
-0.162416
-0.133109
-0.131046
-0.130733
-0.134030
-0.135730
-0.021824
-0.069463
-0.141824
-0.153254
-0.157160
-0.158398
-0.136424
-0.137676
-0.102289
-0.124378
-0.129664
-0.128500
-0.122483
-0.149769
-0.141913
-0.140537
-0.098881
-0.166642
-0.148953
-0.099271
-0.134942
-0.135657
-0.085813
-0.148840
-0.101649
-0.135779
-0.136640
-0.138427
-0.163886
-0.161820
-0.097604
-0.165693
-0.134649
-0.135820
-0.134584
-0.144735
-0.148399
-0.146670
-0.147096
-0.063766
-0.079856
-0.139936
-0.115737
-0.105819
-0.110768
-0.164126
-0.162185
-0.111392
-0.090262
-0.135425
-0.122032
-0.105715
-0.108332
-0.112325
-0.139749
-0.142286
-0.143692
-0.140171
-0.142111
-0.138976
-0.150485
-0.151728
-0.086712
-0.086984
-0.145038
-0.143524
-0.159220
-0.157794
-0.154814
-0.155007
-0.091730
-0.103119
-0.061600
-0.145890
-0.146246
-0.147837
-0.145593
-0.145002
-0.138984
-0.138197
-0.134435
-0.132928
-0.132959
-0.171913
-0.070459
-0.151697
-0.143271
-0.144815
-0.086547
-0.096395
-0.095414
-0.143233
-0.145459
-0.143706
-0.144832
-0.063091
-0.060369
-0.115752
-0.113395
-0.152669
-0.152998
-0.162171
-0.165314
-0.157138
-0.104988
-0.159968
-0.150171
-0.148257
-0.128784
-0.138231
-0.136593
-0.129689
-0.130450
-0.131684
-0.150072
-0.160295
-0.162541
-0.161735
-0.147306
-0.152050
-0.061820
-0.056770
-0.044198
-0.149258
-0.149810
-0.149805
-0.149308
-0.147087
-0.111561
-0.105669
-0.111461
-0.107116
-0.114025
-0.118579
-0.127661
-0.143982
-0.142791
-0.088995
-0.129148
-0.128152
-0.128003
-0.129618
-0.150506
-0.056957
-0.056563
-0.151339
-0.130948
-0.151140
-0.148541
-0.056458
-0.032108
-0.046486
-0.099625
-0.091544
-0.099045
-0.157530
-0.145046
-0.145771
-0.140558
-0.145575
-0.145230
-0.092729
-0.146215
-0.101037
-0.077889
0.003627
-0.000504
-0.018952
-0.128588
-0.144426
-0.144464
-0.145238
-0.143619
-0.129026
-0.098973
-0.078286
-0.144964
-0.071073
-0.067436
-0.143585
-0.144474
-0.144501
-0.145455
-0.144724
-0.146093
-0.145930
-0.022082
-0.028536
-0.025547
-0.139196
-0.140592
-0.143204
-0.153077
-0.153436
-0.126781
-0.142956
-0.109959
-0.162449
-0.160391
0.007045
-0.010715
-0.144134
-0.164114
-0.127567
-0.102831
-0.125306
-0.069752
-0.156690
-0.145673
-0.146145
-0.143873
-0.147481
-0.148108
-0.147560
-0.152823
-0.154884
-0.153788
-0.155510
-0.151163
-0.160445
-0.160890
-0.158818
-0.159799
-0.159593
-0.164007
-0.173182
-0.116539
-0.109167
-0.091050
-0.119738
-0.139092
-0.139974
-0.140984
-0.149032
-0.151509
-0.141793
-0.142783
-0.141947
-0.141079
-0.111795
-0.105836
-0.065717
-0.062880
-0.067453
-0.039157
-0.145606
-0.144466
-0.088113
-0.148151
-0.147631
-0.105041
-0.154658
-0.153462
-0.155712
-0.088138
-0.146809
-0.145514
-0.146122
-0.124217
-0.120693
-0.143078
-0.122310
-0.132279
-0.121206
-0.148065
-0.023775
-0.050025
-0.032604
-0.040747
-0.147069
-0.128102
-0.066787
-0.149076
-0.150173
-0.149747
-0.141054
-0.141516
-0.142373
-0.141815
-0.140003
-0.148110
-0.125164
-0.129809
-0.064123
-0.154808
-0.155168
-0.160582
-0.041097
0.086198
-0.144886
-0.145844
-0.149742
-0.119504
-0.149174
-0.137037
-0.133770
-0.134174
-0.135489
-0.135224
-0.088912
-0.119539
-0.126794
-0.152948
-0.165580
-0.149743
-0.145050
-0.144476
-0.144090
-0.146372
-0.147016
-0.144704
-0.144978
-0.069717
-0.070338
-0.139504
-0.143567
-0.132654
-0.027242
-0.132883
-0.150877
-0.153089
-0.151723
-0.152607
-0.138644
-0.117626
-0.212453
-0.132493
-0.147092
-0.059979
-0.038581
-0.018342
-0.156753
-0.145225
-0.145541
-0.022234
-0.137394
-0.132474
-0.085939
-0.151719
-0.023427
-0.139002
-0.146235
-0.145825
-0.065019
-0.140510
-0.102207
-0.144843
-0.128299
-0.114407
-0.134449
-0.136800
-0.098255
-0.146758
-0.147188
-0.148313
-0.145294
-0.131856
-0.129579
-0.129148
-0.096223
-0.020486
-0.076780
-0.134789
-0.131688
-0.125569
-0.048023
-0.125905
-0.158573
-0.157425
-0.127893
-0.126802
-0.130138
-0.128550
-0.130115
-0.127373
-0.154350
-0.069024
-0.143108
-0.067917
-0.143864
-0.099352
-0.134446
-0.167625
-0.132312
-0.108007
-0.097025
-0.131474
0.128247
-0.161895
-0.128259
-0.122479
-0.132740
-0.147345
-0.147568
-0.148966
-0.149132
-0.140574
-0.136439
-0.140062
-0.136395
0.098047
-0.135575
-0.138403
-0.139196
-0.140433
-0.139830
-0.142256
-0.140290
-0.138491
-0.139693
-0.143384
-0.142353
0.113957
-0.109906
-0.140236
-0.141359
-0.142058
-0.133275
-0.137288
-0.142189
-0.136989
-0.136027
-0.059882
-0.060064
-0.140550
-0.136404
-0.138149
-0.137037
-0.138718
-0.140622
-0.142475
-0.139479
-0.142097
-0.070696
-0.148468
-0.134384
-0.128976
-0.126134
-0.130453
-0.142487
-0.141336
-0.140022
-0.131856
0.008608
-0.143184
-0.096663
-0.099780
-0.112088
-0.143050
-0.144148
-0.135762
-0.132487
-0.056191
-0.039883
-0.060230
-0.131192
-0.050420
-0.129850
-0.132102
-0.126404
-0.094251
-0.126207
-0.134222
-0.133576
-0.133095
-0.139742
-0.142429
-0.075332
-0.081145
-0.136516
-0.058055
-0.065563
-0.073740
-0.069568
-0.064592
-0.144041
-0.124202
-0.127082
-0.106011
-0.144761
-0.124638
-0.089391
-0.112883
-0.092927
-0.112699
-0.061540
-0.108689
-0.125087
-0.125470
-0.132892
-0.140099
-0.136883
-0.137822
-0.124276
-0.129430
-0.133022
-0.136766
-0.137118
-0.139685
-0.139565
-0.129607
-0.135664
-0.072099
-0.055648
-0.056123
-0.124860
-0.120767
-0.099810
-0.101126
-0.108234
-0.136365
-0.086756
-0.135018
-0.132552
-0.134960
-0.132221
-0.116920
-0.101595
-0.109022
-0.137921
-0.140479
-0.125010
-0.142569
-0.144314
-0.144020
-0.091723
-0.064697
-0.131670
-0.107731
-0.122500
-0.127601
-0.134856
-0.108532
-0.119821
-0.122453
-0.086937
-0.070042
-0.099586
-0.102713
-0.110999
-0.135845
-0.132404
-0.138209
-0.126002
-0.121573
-0.143726
-0.142966
-0.148612
-0.149158
-0.139024
-0.132593
-0.133022
-0.084401
-0.076092
-0.131476
-0.121246
-0.137735
-0.127615
-0.129724
-0.117650
-0.141292
-0.097643
-0.099367
-0.108136
-0.041416
-0.073262
-0.142727
-0.141237
-0.007332
-0.095259
-0.146664
-0.145617
-0.149974
-0.138316
-0.111742
-0.133492
-0.022529
-0.094188
-0.066588
-0.157120
-0.168557
-0.140711
-0.112573
-0.093030
-0.114151
-0.029806
-0.131127
-0.148724
-0.147833
-0.154851
-0.153319
-0.089772
-0.096451
-0.117912
-0.017400
-0.134540
-0.115622
-0.059560
-0.080714
-0.125446
-0.144242
-0.117622
-0.143628
-0.144662
-0.120944
-0.087310
-0.118282
-0.109177
-0.137970
-0.125309
-0.109914
-0.112850
-0.108469
-0.071802
-0.094139
-0.144523
-0.143868
-0.143914
-0.109792
-0.097554
-0.097387
-0.126213
-0.123674
-0.130691
-0.131021
-0.137787
-0.138451
-0.139594
-0.141776
-0.140387
-0.145311
-0.115270
-0.094921
-0.125192
-0.139909
-0.142015
-0.147580
-0.143173
-0.142824
-0.141021
-0.131317
-0.147815
-0.127871
-0.135194
-0.141671
-0.142704
-0.141698
-0.136588
-0.128944
-0.136800
-0.132364
-0.148773
-0.058737
-0.113200
-0.100498
-0.107715
0.125365
-0.134106
-0.158780
-0.082372
-0.124039
-0.087438
-0.119313
-0.158384
-0.139508
-0.137482
-0.107703
-0.133356
-0.148995
-0.135637
-0.145171
-0.066648
-0.097487
-0.123800
-0.049210
-0.070922
-0.139744
-0.049597
-0.048566
-0.152560
-0.144604
-0.107011
-0.096549
-0.081189
-0.077812
-0.098867
-0.157855
-0.143430
-0.148264
-0.147055
-0.034358
-0.159830
0.094562
-0.152492
-0.064611
0.131199
-0.102032
-0.112192
-0.109242
-0.121158
-0.111730
-0.117134
-0.141156
-0.142556
-0.110712
-0.105531
-0.163103
-0.165546
-0.138576
-0.089394
-0.143289
-0.123836
-0.143057
-0.130480
-0.143232
-0.144276
-0.156860
-0.086002
-0.060975
-0.142766
-0.143658
-0.103493
-0.125286
-0.158203
-0.150119
-0.143902
-0.143629
-0.115608
-0.085693
-0.127178
-0.116283
-0.156935
-0.150645
-0.150805
-0.134968
-0.090190
-0.121013
-0.152819
-0.139312
-0.121709
-0.146102
-0.130561
-0.005382
-0.030253
-0.135611
-0.157256
-0.137509
-0.108804
-0.126739
-0.138343
-0.025043
-0.067454
-0.122215
-0.122693
-0.129830
-0.076409
-0.065443
-0.063684
-0.032028
-0.111769
-0.141638
-0.135018
-0.141958
-0.140899
-0.141171
-0.145480
-0.133605
-0.143684
-0.144447
-0.041829
-0.056165
-0.125196
-0.096656
-0.050039
-0.053996
-0.124516
-0.146754
-0.191261
-0.111823
-0.125757
-0.116133
-0.146470
-0.082184
-0.144209
-0.136474
-0.136777
-0.170222
-0.139714
-0.128434
-0.097932
-0.092491
-0.116249
-0.085984
-0.068047
-0.073852
-0.085075
-0.076439
-0.063413
-0.068047
-0.140562
-0.139438
-0.143516
-0.118814
-0.142519
-0.141438
-0.142131
-0.115085
-0.101379
-0.077920
-0.144115
-0.120447
-0.104121
-0.115850
-0.126334
-0.139605
-0.142492
-0.124999
-0.074677
-0.120566
-0.144656
-0.136831
-0.144136
-0.130557
-0.140655
-0.138051
-0.125402
-0.029527
-0.154409
-0.135840
-0.134577
-0.130004
-0.133281
-0.140185
-0.145211
-0.119367
-0.128366
-0.143176
-0.143680
-0.137037
-0.141839
-0.143163
-0.132755
-0.112845
-0.138868
-0.008112
-0.001870
-0.005182
-0.053354
-0.026466
-0.027719
-0.020259
-0.017961
-0.009503
0.019334
0.018961
0.018417
-0.012105
-0.024717
-0.000541
0.018348
0.018961
-0.000056
0.000003
-0.000956
0.008344
0.009697
0.010427
-0.004908
-0.007776
-0.005448
0.020454
0.020342
0.020667
0.020074
-0.005272
-0.019568
-0.013738
-0.008067
-0.005741
-0.005475
-0.002702
-0.002948
-0.003429
-0.006833
-0.000338
-0.012443
-0.004869
-0.011445
-0.004935
-0.002120
-0.005121
-0.005424
-0.004673
-0.001289
-0.000515
0.007844
0.006933
0.007532
0.007066
-0.009647
-0.009417
-0.010792
-0.040173
-0.045137
-0.061914
-0.002654
-0.004210
-0.000445
-0.001489