# vtk DataFile Version 2.0
Test
ASCII
DATASET POLYDATA
POINTS 3011 float
0.000000 0.000000 0.000000
2.000000 0.000000 0.000000
2.000000 4.000000 0.000000
0.000000 4.000000 0.000000
0.000000 0.500000 0.000000
1.500000 2.000000 0.000000
2.000000 2.500000 0.000000
0.285714 0.000000 0.000000
0.571429 0.000000 0.000000
0.857143 0.000000 0.000000
1.142857 0.000000 0.000000
1.428571 0.000000 0.000000
1.714286 0.000000 0.000000
2.000000 0.276366 0.000000
2.000000 0.523709 0.000000
2.000000 0.745076 0.000000
2.000000 0.943195 0.000000
2.000000 1.120508 0.000000
2.000000 1.279199 0.000000
2.000000 1.421225 0.000000
2.000000 1.548336 0.000000
2.000000 1.662097 0.000000
2.000000 1.763911 0.000000
2.000000 1.855033 0.000000
2.000000 1.936585 0.000000
2.000000 2.009573 0.000000
2.000000 2.074896 0.000000
2.000000 2.133358 0.000000
2.000000 2.185681 0.000000
2.000000 2.232509 0.000000
2.000000 2.274419 0.000000
2.000000 2.311927 0.000000
2.000000 2.345497 0.000000
2.000000 2.375541 0.000000
2.000000 2.402430 0.000000
2.000000 2.426495 0.000000
2.000000 2.448033 0.000000
2.000000 2.467309 0.000000
2.000000 2.484560 0.000000
2.000000 2.516256 0.000000
2.000000 2.535859 0.000000
2.000000 2.559499 0.000000
2.000000 2.588006 0.000000
2.000000 2.622383 0.000000
2.000000 2.663839 0.000000
2.000000 2.713831 0.000000
2.000000 2.774116 0.000000
2.000000 2.846815 0.000000
2.000000 2.934483 0.000000
2.000000 3.040202 0.000000
2.000000 3.167691 0.000000
2.000000 3.321430 0.000000
2.000000 3.506825 0.000000
2.000000 3.730395 0.000000
1.714286 4.000000 0.000000
1.428571 4.000000 0.000000
1.142857 4.000000 0.000000
0.857143 4.000000 0.000000
0.571429 4.000000 0.000000
0.285714 4.000000 0.000000
0.000000 3.713462 0.000000
0.000000 3.449209 0.000000
0.000000 3.205508 0.000000
0.000000 2.980761 0.000000
0.000000 2.773493 0.000000
0.000000 2.582346 0.000000
0.000000 2.406065 0.000000
0.000000 2.243495 0.000000
0.000000 2.093568 0.000000
0.000000 1.955302 0.000000
0.000000 1.827789 0.000000
0.000000 1.710194 0.000000
0.000000 1.601745 0.000000
0.000000 1.501730 0.000000
0.000000 1.409494 0.000000
0.000000 1.324431 0.000000
0.000000 1.245984 0.000000
0.000000 1.173639 0.000000
0.000000 1.106920 0.000000
0.000000 1.045390 0.000000
0.000000 0.988645 0.000000
0.000000 0.936314 0.000000
0.000000 0.888053 0.000000
0.000000 0.843545 0.000000
0.000000 0.802499 0.000000
0.000000 0.764646 0.000000
0.000000 0.729736 0.000000
0.000000 0.697541 0.000000
0.000000 0.667851 0.000000
0.000000 0.640469 0.000000
0.000000 0.615217 0.000000
0.000000 0.591929 0.000000
0.000000 0.570453 0.000000
0.000000 0.550646 0.000000
0.000000 0.532380 0.000000
0.000000 0.515535 0.000000
0.000000 0.483768 0.000000
0.000000 0.461535 0.000000
0.000000 0.431083 0.000000
0.000000 0.389372 0.000000
0.000000 0.332241 0.000000
0.000000 0.253989 0.000000
0.000000 0.146807 0.000000
0.010563 0.510563 0.000000
0.021127 0.521127 0.000000
0.031690 0.531690 0.000000
0.042254 0.542254 0.000000
0.052817 0.552817 0.000000
0.063380 0.563380 0.000000
0.073944 0.573944 0.000000
0.084507 0.584507 0.000000
0.095070 0.595070 0.000000
0.105634 0.605634 0.000000
0.116197 0.616197 0.000000
0.126761 0.626761 0.000000
0.137324 0.637324 0.000000
0.147887 0.647887 0.000000
0.158451 0.658451 0.000000
0.169014 0.669014 0.000000
0.179577 0.679577 0.000000
0.190141 0.690141 0.000000
0.200704 0.700704 0.000000
0.211268 0.711268 0.000000
0.221831 0.721831 0.000000
0.232394 0.732394 0.000000
0.242958 0.742958 0.000000
0.253521 0.753521 0.000000
0.264085 0.764085 0.000000
0.274648 0.774648 0.000000
0.285211 0.785211 0.000000
0.295775 0.795775 0.000000
0.306338 0.806338 0.000000
0.316901 0.816901 0.000000
0.327465 0.827465 0.000000
0.338028 0.838028 0.000000
0.348592 0.848592 0.000000
0.359155 0.859155 0.000000
0.369718 0.869718 0.000000
0.380282 0.880282 0.000000
0.390845 0.890845 0.000000
0.401408 0.901408 0.000000
0.411972 0.911972 0.000000
0.422535 0.922535 0.000000
0.433099 0.933099 0.000000
0.443662 0.943662 0.000000
0.454225 0.954225 0.000000
0.464789 0.964789 0.000000
0.475352 0.975352 0.000000
0.485915 0.985915 0.000000
0.496479 0.996479 0.000000
0.507042 1.007042 0.000000
0.517606 1.017606 0.000000
0.528169 1.028169 0.000000
0.538732 1.038732 0.000000
0.549296 1.049296 0.000000
0.559859 1.059859 0.000000
0.570423 1.070423 0.000000
0.580986 1.080986 0.000000
0.591549 1.091549 0.000000
0.602113 1.102113 0.000000
0.612676 1.112676 0.000000
0.623239 1.123239 0.000000
0.633803 1.133803 0.000000
0.644366 1.144366 0.000000
0.654930 1.154930 0.000000
0.665493 1.165493 0.000000
0.676056 1.176056 0.000000
0.686620 1.186620 0.000000
0.697183 1.197183 0.000000
0.707746 1.207746 0.000000
0.718310 1.218310 0.000000
0.728873 1.228873 0.000000
0.739437 1.239437 0.000000
0.750000 1.250000 0.000000
0.760563 1.260563 0.000000
0.771127 1.271127 0.000000
0.781690 1.281690 0.000000
0.792254 1.292254 0.000000
0.802817 1.302817 0.000000
0.813380 1.313380 0.000000
0.823944 1.323944 0.000000
0.834507 1.334507 0.000000
0.845070 1.345070 0.000000
0.855634 1.355634 0.000000
0.866197 1.366197 0.000000
0.876761 1.376761 0.000000
0.887324 1.387324 0.000000
0.897887 1.397887 0.000000
0.908451 1.408451 0.000000
0.919014 1.419014 0.000000
0.929577 1.429577 0.000000
0.940141 1.440141 0.000000
0.950704 1.450704 0.000000
0.961268 1.461268 0.000000
0.971831 1.471831 0.000000
0.982394 1.482394 0.000000
0.992958 1.492958 0.000000
1.003521 1.503521 0.000000
1.014085 1.514085 0.000000
1.024648 1.524648 0.000000
1.035211 1.535211 0.000000
1.045775 1.545775 0.000000
1.056338 1.556338 0.000000
1.066901 1.566901 0.000000
1.077465 1.577465 0.000000
1.088028 1.588028 0.000000
1.098592 1.598592 0.000000
1.109155 1.609155 0.000000
1.119718 1.619718 0.000000
1.130282 1.630282 0.000000
1.140845 1.640845 0.000000
1.151408 1.651408 0.000000
1.161972 1.661972 0.000000
1.172535 1.672535 0.000000
1.183099 1.683099 0.000000
1.193662 1.693662 0.000000
1.204225 1.704225 0.000000
1.214789 1.714789 0.000000
1.225352 1.725352 0.000000
1.235915 1.735915 0.000000
1.246479 1.746479 0.000000
1.257042 1.757042 0.000000
1.267606 1.767606 0.000000
1.278169 1.778169 0.000000
1.288732 1.788732 0.000000
1.299296 1.799296 0.000000
1.309859 1.809859 0.000000
1.320423 1.820423 0.000000
1.330986 1.830986 0.000000
1.341549 1.841549 0.000000
1.352113 1.852113 0.000000
1.362676 1.862676 0.000000
1.373239 1.873239 0.000000
1.383803 1.883803 0.000000
1.394366 1.894366 0.000000
1.404930 1.904930 0.000000
1.415493 1.915493 0.000000
1.426056 1.926056 0.000000
1.436620 1.936620 0.000000
1.447183 1.947183 0.000000
1.457746 1.957746 0.000000
1.468310 1.968310 0.000000
1.478873 1.978873 0.000000
1.489437 1.989437 0.000000
1.510417 2.010417 0.000000
1.520833 2.020833 0.000000
1.531250 2.031250 0.000000
1.541667 2.041667 0.000000
1.552083 2.052083 0.000000
1.562500 2.062500 0.000000
1.572917 2.072917 0.000000
1.583333 2.083333 0.000000
1.593750 2.093750 0.000000
1.604167 2.104167 0.000000
1.614583 2.114583 0.000000
1.625000 2.125000 0.000000
1.635417 2.135417 0.000000
1.645833 2.145833 0.000000
1.656250 2.156250 0.000000
1.666667 2.166667 0.000000
1.677083 2.177083 0.000000
1.687500 2.187500 0.000000
1.697917 2.197917 0.000000
1.708333 2.208333 0.000000
1.718750 2.218750 0.000000
1.729167 2.229167 0.000000
1.739583 2.239583 0.000000
1.750000 2.250000 0.000000
1.760417 2.260417 0.000000
1.770833 2.270833 0.000000
1.781250 2.281250 0.000000
1.791667 2.291667 0.000000
1.802083 2.302083 0.000000
1.812500 2.312500 0.000000
1.822917 2.322917 0.000000
1.833333 2.333333 0.000000
1.843750 2.343750 0.000000
1.854167 2.354167 0.000000
1.864583 2.364583 0.000000
1.875000 2.375000 0.000000
1.885417 2.385417 0.000000
1.895833 2.395833 0.000000
1.906250 2.406250 0.000000
1.916667 2.416667 0.000000
1.927083 2.427083 0.000000
1.937500 2.437500 0.000000
1.947917 2.447917 0.000000
1.958333 2.458333 0.000000
1.968750 2.468750 0.000000
1.979167 2.479167 0.000000
1.989583 2.489583 0.000000
0.206561 0.791563 0.000000
0.205359 0.816165 0.000000
0.186354 0.798211 0.000000
0.221961 0.800924 0.000000
0.280649 1.360489 0.000000
0.304015 1.400469 0.000000
0.229142 1.396096 0.000000
0.275922 1.451476 0.000000
1.869084 2.391788 0.000000
1.857928 2.378421 0.000000
1.238669 2.061899 0.000000
1.278787 2.082276 0.000000
1.238298 2.096047 0.000000
1.277579 2.032995 0.000000
0.402536 1.205823 0.000000
0.415290 1.176040 0.000000
0.428330 1.201952 0.000000
0.387294 1.172617 0.000000
0.146930 1.050586 0.000000
0.109488 1.087198 0.000000
0.102742 1.042403 0.000000
0.157178 1.091184 0.000000
0.588967 1.178581 0.000000
0.593116 1.153718 0.000000
0.608054 1.166752 0.000000
0.612180 1.145944 0.000000
0.860304 1.543784 0.000000
0.868821 1.521840 0.000000
0.878420 1.536650 0.000000
0.845380 1.517623 0.000000
1.129525 1.764330 0.000000
1.142005 1.751560 0.000000
1.145757 1.773681 0.000000
1.159368 1.759106 0.000000
1.968150 2.518865 0.000000
1.986105 2.509269 0.000000
1.986696 2.531115 0.000000
0.668964 1.191005 0.000000
0.683291 1.201259 0.000000
0.557625 1.074830 0.000000
0.569760 1.084377 0.000000
0.557769 1.089278 0.000000
0.707567 1.266174 0.000000
0.719026 1.281845 0.000000
0.700768 1.282275 0.000000
0.722329 1.266956 0.000000
0.468225 2.149688 0.000000
0.419106 2.064198 0.000000
0.523878 2.082648 0.000000
0.838546 1.421191 0.000000
0.823708 1.410355 0.000000
0.840477 1.404206 0.000000
0.818500 1.425973 0.000000
0.953187 1.488222 0.000000
0.959780 1.473222 0.000000
0.967054 1.485637 0.000000
1.047418 1.769126 0.000000
1.080240 1.782403 0.000000
1.047768 1.802712 0.000000
0.971392 1.693320 0.000000
0.949208 1.720793 0.000000
0.940644 1.684781 0.000000
0.381391 2.160909 0.000000
0.944091 1.477800 0.000000
0.530075 1.477351 0.000000
0.521303 1.516669 0.000000
0.474240 1.491166 0.000000
0.489489 1.546185 0.000000
1.537370 2.239326 0.000000
1.555275 2.267640 0.000000
1.532966 2.278201 0.000000
0.962010 1.661716 0.000000
0.986804 1.643200 0.000000
0.986259 1.672729 0.000000
1.049149 1.737940 0.000000
1.075111 1.737123 0.000000
[...]
POINT_DATA 3011
SCALARS UX float 1
LOOKUP_TABLE default
-0.000000
0.000000
-0.063260
-0.208092
-0.069471
-0.032353
-0.026663
-0.000000
-0.000000
-0.000000
-0.000000
0.000000
0.000000
0.039093
0.057177
0.067634
0.073986
0.077785
0.080063
0.081416
0.081727
0.080885
0.078776
0.075091
0.070273
0.063707
0.056468
0.048355
0.039636
0.030390
0.021615
0.012994
0.005085
-0.001982
-0.008080
-0.013255
-0.017608
-0.021213
-0.024209
-0.029083
-0.031766
-0.034783
-0.037706
-0.040967
-0.044307
-0.047286
-0.050363
-0.053140
-0.055413
-0.057579
-0.059412
-0.061034
-0.062291
-0.062964
-0.087088
-0.109843
-0.131153
-0.151098
-0.170364
-0.189199
-0.207165
-0.205441
-0.203126
-0.201003
-0.199162
-0.197850
-0.197062
-0.196717
-0.196801
-0.197214
-0.197950
-0.198762
-0.199651
-0.200577
-0.201467
-0.202250
-0.202885
-0.203359
-0.203673
-0.203832
-0.203756
-0.203506
-0.203117
-0.202663
-0.202218
-0.201976
-0.202044
-0.202412
-0.202439
-0.201853
-0.200901
-0.199745
-0.197552
-0.194864
-0.251538
-0.119553
-0.058356
-0.054784
-0.049834
-0.046227
-0.041486
-0.034499
-0.023555
-0.087327
-0.091970
-0.088190
-0.089254
-0.086920
-0.097232
-0.097617
-0.096165
-0.097265
-0.098666
-0.101195
-0.092184
-0.090381
-0.093680
-0.092877
-0.087411
-0.094025
-0.095533
-0.094243
-0.094653
-0.094550
-0.103494
-0.097326
-0.102034
-0.102013
-0.102670
-0.105614
-0.103187
-0.106026
-0.104371
-0.104474
-0.105451
-0.101548
-0.101697
-0.101832
-0.102120
-0.100427
-0.100065
-0.097626
-0.100754
-0.100341
-0.097788
-0.096794
-0.097319
-0.097127
-0.094460
-0.095135
-0.093186
-0.092540
-0.090139
-0.088354
-0.087414
-0.086601
-0.084307
-0.084478
-0.084091
-0.084136
-0.083542
-0.082109
-0.082782
-0.082372
-0.080636
-0.079245
-0.077684
-0.078369
-0.074684
-0.076956
-0.075451
-0.073627
-0.073556
-0.071374
-0.073502
-0.071500
-0.073778
-0.075576
-0.076703
-0.075621
-0.076283
-0.075157
-0.074168
-0.073795
-0.070969
-0.070169
-0.065318
-0.063159
-0.073753
-0.072577
-0.069707
-0.067956
-0.068982
-0.069519
-0.068421
-0.066435
-0.065925
-0.065502
-0.063862
-0.062731
-0.062149
-0.062737
-0.061335
-0.058929
-0.058808
-0.056074
-0.055123
-0.051866
-0.050283
-0.048608
-0.049745
-0.046129
-0.047491
-0.047091
-0.046251
-0.045421
-0.047337
-0.044846
-0.044445
-0.042903
-0.041614
-0.043932
-0.042653
-0.041840
-0.042742
-0.039750
-0.041929
-0.041786
-0.040337
-0.039065
-0.041130
-0.041395
-0.044353
-0.044055
-0.044549
-0.045715
-0.043896
-0.042602
-0.041409
-0.039133
-0.037629
-0.034493
-0.033403
-0.031678
-0.029751
-0.030505
-0.030934
-0.031270
-0.030645
-0.029892
-0.029375
-0.028673
-0.027824
-0.027365
-0.026978
-0.026650
-0.026276
-0.026015
-0.025698
-0.025372
-0.025164
-0.025079
-0.024972
-0.024930
-0.024881
-0.024843
-0.024794
-0.024813
-0.024803
-0.024834
-0.024849
-0.024927
-0.025002
-0.025129
-0.025267
-0.025427
-0.025629
-0.025804
-0.026038
-0.026257
-0.026473
-0.026689
-0.026865
-0.027056
-0.027196
-0.027310
-0.027388
-0.027393
-0.027308
-0.027191
-0.026966
-0.185490
-0.188298
-0.189019
-0.184446
-0.183891
-0.181715
-0.186728
-0.182806
-0.030650
-0.030046
-0.093281
-0.088174
-0.092695
-0.089615
-0.178152
-0.177583
-0.176455
-0.179500
-0.195444
-0.197484
-0.198035
-0.194613
-0.162144
-0.157742
-0.156689
-0.145128
-0.139217
-0.138746
-0.137770
-0.140823
-0.111981
-0.110800
-0.110031
-0.108407
-0.034831
-0.030512
-0.033384
-0.130087
-0.122996
-0.135793
-0.129405
-0.147639
-0.148281
-0.147795
-0.152330
-0.143596
-0.161012
-0.165115
-0.156853
-0.140168
-0.141999
-0.138575
-0.143283
-0.117869
-0.095313
-0.100766
-0.118999
-0.115921
-0.117984
-0.127052
-0.128081
-0.129677
-0.167709
-0.117695
-0.164805
-0.164617
-0.168461
-0.166300
-0.062181
-0.061946
-0.065257
-0.128536
-0.126738
-0.126304
-0.119705
-0.117469
-0.117546
-0.058646
-0.118486
-0.104130
-0.085715
-0.089665
-0.100872
-0.078606
-0.074459
-0.076480
-0.069881
-0.074361
-0.073137
-0.161602
-0.162617
-0.159821
-0.167880
-0.163201
-0.165276
-0.160853
-0.160936
-0.184930
-0.182807
-0.184777
-0.183617
-0.114240
-0.118436
-0.113820
-0.121765
-0.169524
-0.169884
-0.164898
-0.059455
-0.058139
-0.062297
-0.174801
-0.190345
-0.193811
-0.193103
-0.157458
-0.155763
-0.154800
-0.153353
-0.196719
-0.186041
-0.182077
-0.190181
-0.043856
-0.038266
-0.039631
-0.120825
-0.118244
-0.115645
-0.176249
-0.174571
-0.111958
-0.145759
-0.144686
-0.148014
-0.143328
-0.058578
-0.061232
-0.062778
-0.141086
-0.139798
-0.142238
-0.055988
-0.172511
-0.151291
-0.157753
-0.168022
-0.167261
-0.165581
-0.200449
-0.199854
-0.165403
-0.136216
-0.136851
-0.132823
-0.200692
-0.133131
-0.117250
-0.114276
-0.193906
-0.192734
-0.191571
-0.151034
-0.138478
-0.131298
-0.156331
-0.161295
-0.035754
-0.032661
-0.038804
-0.101068
-0.103085
-0.104482
-0.110926
-0.108387
-0.111117
-0.115785
-0.119063
-0.120888
-0.112956
-0.169395
-0.174389
-0.173577
-0.141390
-0.143339
-0.142754
-0.131059
-0.141533
-0.197022
-0.195926
-0.198186
-0.159131
-0.164075
-0.039782
-0.122899
-0.029945
-0.034970
-0.035102
-0.144007
-0.141481
-0.141657
-0.147104
-0.057107
-0.058675
-0.063024
-0.152787
-0.156512
-0.150850
-0.090666
-0.089887
-0.086963
-0.095215
-0.029934
-0.029066
-0.055242
-0.096866
-0.100288
-0.100011
-0.101297
-0.092331
-0.094782
-0.096763
-0.093053
-0.104658
-0.101037
-0.047410
-0.044169
-0.053883
-0.148211
-0.163416
-0.165379
-0.167391
-0.167658
-0.112136
-0.053456
-0.054224
-0.048846
-0.070980
-0.073588
-0.068865
-0.074991
-0.067091
-0.064318
-0.063003
-0.030767
-0.029008
-0.133964
-0.131576
-0.131652
-0.134111
-0.138700
-0.134890
-0.137679
-0.134342
-0.082125
-0.085425
-0.081919
-0.081014
-0.080614
-0.086813
-0.055063
-0.051156
-0.055746
-0.029074
-0.029068
-0.146985
-0.147859
-0.150331
-0.146704
-0.147569
-0.145146
-0.145368
-0.148724
-0.147504
-0.145024
-0.135025
-0.136711
-0.134601
-0.136818
-0.100944
-0.099881
-0.097645
-0.103080
-0.124594
-0.141156
-0.144200
-0.145188
-0.145169
-0.143328
-0.139766
-0.043733
-0.048038
-0.046483
-0.050900
-0.109304
-0.107812
-0.135998
-0.135565
-0.133304
-0.074743
-0.082793
-0.100545
-0.111615
-0.114763
-0.111016
-0.113982
-0.125070
-0.125942
-0.121078
-0.128257
-0.054434
-0.052372
-0.125294
-0.111763
-0.132237
-0.116203
-0.117186
-0.119080
-0.075959
-0.080823
-0.083988
-0.113745
-0.121510
-0.119262
-0.121987
-0.067668
-0.069449
-0.066913
-0.062184
-0.067874
-0.063530
-0.090568
-0.090232
-0.093898
-0.092343
-0.199303
-0.200221
-0.201758
-0.196511
-0.173515
-0.167151
-0.159623
-0.158793
-0.159464
-0.174738
-0.048774
-0.178419
-0.179118
-0.181025
-0.181263
-0.106783
-0.103021
-0.101551
-0.097963
-0.146868
-0.142653
-0.141229
-0.138519
-0.039271
-0.034686
-0.036976
-0.032232
-0.053910
-0.059681
-0.190377
-0.194087
-0.195813
-0.191865
-0.194848
-0.192035
-0.194788
-0.195653
-0.194337
-0.120816
-0.123057
-0.122584
-0.080474
-0.085209
-0.172205
-0.171729
-0.174191
-0.173201
-0.175505
-0.137307
-0.135645
-0.138659
-0.137027
-0.177739
-0.180051
-0.179775
-0.176311
-0.148030
-0.144558
-0.192975
-0.191695
-0.190746
-0.191884
-0.193785
-0.190819
-0.194472
-0.188565
-0.182948
-0.181896
-0.188472
-0.184765
-0.186410
-0.189458
-0.187038
-0.135468
-0.133888
-0.135351
-0.104066
-0.180199
-0.177023
-0.169139
-0.193869
-0.186065
-0.052054
-0.051622
-0.047916
-0.057349
-0.057993
-0.052209
-0.185856
-0.186579
-0.187735
-0.185721
-0.181152
-0.180522
-0.186741
-0.068584
-0.061127
-0.064308
-0.070317
-0.122052
-0.121650
-0.175722
-0.173710
-0.176195
-0.173631
-0.162585
-0.175777
-0.181579
-0.156462
-0.159525
-0.182771
-0.036980
-0.041963
-0.043418
-0.035196
-0.181606
-0.179817
-0.093788
-0.092039
-0.096988
-0.100159
-0.093309
-0.112883
-0.121812
-0.118113
-0.130309
-0.151015
-0.150542
-0.149361
-0.199366
-0.199169
-0.200990
-0.197224
-0.047581
-0.076482
-0.188051
-0.188758
-0.190676
-0.197997
-0.195024
-0.189840
-0.045871
-0.043750
-0.040112
-0.186432
-0.185687
-0.189455
-0.192226
-0.181488
-0.177925
-0.035535
-0.031904
-0.036549
-0.031379
-0.034192
-0.096939
-0.094027
-0.190083
-0.190034
-0.188376
-0.038600
-0.082912
-0.079105
-0.078538
-0.176240
-0.172392
-0.170551
-0.173642
-0.169949
-0.168360
-0.158175
-0.156614
-0.196761
-0.196184
-0.200819
-0.199029
-0.198918
-0.197492
-0.174329
-0.046355
-0.175881
-0.191967
-0.195172
-0.185454
-0.180769
-0.049888
-0.055849
-0.187323
-0.192027
-0.188269
-0.030361
-0.197028
-0.053499
-0.051953
-0.057618
-0.187439
-0.188700
-0.185559
-0.135766
-0.128727
-0.129314
-0.122656
-0.122690
-0.191697
-0.191148
-0.193593
-0.194112
-0.079272
-0.085009
-0.184532
-0.181854
-0.183673
-0.181195
-0.169699
-0.168949
-0.171909
-0.168435
-0.171675
-0.174903
-0.171524
-0.170774
-0.174755
-0.188704
-0.194187
-0.049275
-0.049004
-0.180306
-0.178851
-0.181656
-0.181630
-0.184426
-0.038383
-0.040219
-0.046130
-0.163684
-0.164617
-0.179484
-0.181401
-0.163732
-0.161417
-0.103418
-0.109804
-0.108865
-0.104571
-0.158833
-0.180321
-0.175001
-0.176061
-0.171366
-0.085800
-0.029937
-0.034909
-0.034868
-0.039709
-0.130945
-0.131369
-0.126068
-0.125520
-0.121173
-0.120905
-0.063374
-0.058592
-0.042212
-0.045209
-0.122694
-0.118521
-0.047899
-0.046501
-0.148940
-0.177797
-0.181614
-0.174140
-0.159342
-0.146789
-0.176480
-0.181564
-0.086175
-0.155275
-0.200907
-0.082996
-0.108178
-0.111200
-0.029854
-0.032901
-0.039826
-0.199760
-0.190922
-0.191893
-0.196403
-0.110086
-0.111733
-0.114294
-0.112302
-0.039851
-0.193198
-0.192452
-0.190593
-0.186904
-0.088583
-0.090673
-0.094143
-0.091691
-0.029693
-0.199816
-0.200407
-0.198563
-0.180885
-0.195228
-0.170733
-0.177169
-0.166869
-0.172073
-0.183725
-0.186830
-0.194054
-0.109676
-0.112271
-0.117612
-0.104299
-0.133913
-0.140923
-0.120851
-0.187513
-0.143009
-0.131388
-0.119692
-0.131673
-0.128973
-0.192328
-0.193882
-0.191260
-0.198003
-0.196037
-0.151009
-0.137252
-0.144615
-0.143164
-0.192150
-0.114075
-0.125694
-0.123481
-0.150031
-0.152331
-0.148314
-0.187481
-0.187226
-0.190305
-0.174869
-0.174669
-0.179608
-0.179741
-0.147696
-0.145112
-0.143956
-0.141088
-0.140130
-0.100434
-0.105322
-0.124191
-0.131157
-0.133420
-0.132029
-0.128933
-0.096822
-0.107220
-0.111620
-0.113834
-0.117666
-0.187811
-0.177170
-0.176727
-0.167710
-0.177717
-0.181116
-0.187340
-0.177736
-0.030795
-0.185298
-0.186053
-0.188458
-0.187426
-0.159708
-0.164194
-0.156306
-0.158932
-0.156028
-0.200699
-0.184739
-0.183987
-0.198245
-0.030323
-0.032781
-0.156181
-0.189417
-0.030225
-0.055043
-0.173697
-0.180890
-0.174861
-0.099888
-0.183118
-0.194857
-0.198087
-0.200415
-0.197546
-0.035596
-0.193777
-0.117768
-0.138142
-0.121459
-0.187740
-0.194597
-0.031315
-0.145112
-0.157273
-0.169052
-0.170923
-0.058761
-0.064410
-0.062646
-0.030076
-0.033954
-0.029252
-0.162126
-0.177438
-0.179918
-0.186023
-0.159533
-0.084180
-0.088991
-0.096530
-0.103451
-0.182994
-0.183161
-0.153532
-0.153234
-0.163596
-0.156894
-0.074969
-0.142969
-0.200694
-0.169490
-0.170933
-0.169547
-0.116094
-0.164082
-0.162122
-0.162220
-0.186023
-0.177485
-0.172888
-0.171583
-0.166454
-0.184212
-0.155545
-0.158518
-0.157359
-0.078381
-0.067935
-0.071121
-0.129793
-0.176632
-0.177305
-0.175027
-0.196467
-0.192284
-0.189920
-0.194550
-0.162832
-0.102822
-0.172424
-0.180264
-0.165000
-0.161595
-0.197760
-0.192031
-0.160476
-0.160252
-0.173517
-0.105144
-0.040810
-0.046383
-0.195385
-0.169994
-0.140713
-0.199168
-0.187886
-0.184101
-0.179071
-0.089104
-0.198002
-0.096072
-0.095867
-0.098227
-0.151361
-0.141120
-0.197145
-0.156716
-0.174382
-0.177088
-0.179369
-0.067962
-0.130621
-0.133710
-0.130416
-0.156021
-0.176221
-0.160672
-0.177487
-0.175974
-0.174491
-0.187555
-0.188962
-0.178544
-0.190521
-0.039279
-0.033808
-0.171370
-0.170910
-0.172708
-0.042433
-0.141017
-0.139126
-0.043971
-0.055313
-0.097464
-0.121797
-0.127560
-0.190582
-0.192766
-0.116177
-0.114558
-0.115633
-0.104583
-0.158555
-0.164979
-0.183328
-0.179428
-0.182296
-0.067508
-0.070346
-0.112834
-0.107974
-0.172658
-0.193382
-0.189708
-0.166593
-0.167887
-0.165662
-0.189299
-0.195988
-0.180204
-0.146984
-0.149594
-0.184215
-0.185784
-0.185934
-0.063355
-0.153275
-0.152993
-0.156521
-0.170763
-0.158731
-0.182819
-0.180798
-0.159162
-0.152496
-0.133333
-0.146315
-0.110284
-0.033724
-0.189275
-0.156924
-0.155132
-0.173708
-0.177582
-0.180795
-0.164103
-0.165979
-0.166089
-0.073776
-0.138538
-0.148522
-0.149666
-0.126746
-0.137026
-0.161837
-0.144924
-0.136789
-0.099313
-0.098212
-0.094233
-0.116443
-0.151264
-0.182236
-0.182363
-0.184246
-0.184279
-0.080354
-0.077049
-0.086705
-0.159398
-0.156331
-0.167530
-0.165435
-0.166832
-0.164775
-0.167567
-0.103093
-0.030229
-0.029816
-0.107663
-0.091409
-0.110807
-0.099715
-0.170896
-0.152782
-0.153350
-0.181486
-0.179051
-0.179965
-0.154520
-0.062025
-0.065904
-0.141020
-0.120147
-0.122993
-0.182496
-0.123986
-0.161820
-0.142231
-0.170608
-0.158899
-0.155002
-0.171780
-0.126468
-0.123915
-0.126112
-0.123613
-0.038666
-0.150765
-0.167427
-0.062642
-0.156511
-0.175110
-0.063352
-0.069096
-0.068163
-0.072876
-0.068410
-0.074400
-0.075918
-0.187852
-0.182615
-0.189906
-0.174758
-0.178447
-0.179071
-0.126424
-0.131234
-0.172014
-0.187220
-0.178950
-0.159582
-0.149502
-0.159293
-0.170476
-0.106252
-0.159118
-0.170027
-0.183603
-0.195242
-0.030930
-0.137461
-0.187449
-0.192479
-0.183650
-0.138309
-0.143131
-0.116472
-0.133848
-0.137068
-0.139523
-0.143665
-0.151993
-0.131100
-0.134471
-0.125363
-0.131834
-0.126355
-0.165204
-0.192440
-0.033678
-0.031759
-0.144977
-0.171797
-0.153004
-0.155020
-0.156940
-0.082777
-0.089794
-0.132381
-0.134049
-0.134729
-0.133478
-0.085930
-0.082027
-0.164493
-0.162620
-0.143009
-0.166338
-0.129367
-0.117555
-0.171959
-0.079603
-0.078086
-0.176886
-0.152364
-0.146877
-0.149700
-0.033761
-0.078932
-0.074070
-0.075379
-0.182941
-0.185064
-0.059458
-0.169711
-0.154102
-0.171437
-0.078537
-0.156834
-0.150740
-0.132275
-0.169829
-0.175952
-0.162850
-0.142242
-0.083743
-0.088828
-0.087030
-0.060861
-0.058292
-0.061352
-0.064266
-0.059690
-0.095627
-0.036955
-0.040446
-0.162825
-0.107895
-0.109506
-0.158909
-0.141299
-0.139899
-0.068237
-0.071479
-0.146298
-0.169011
-0.151533
-0.174417
-0.171897
-0.151365
-0.150498
-0.152727
-0.033183
-0.036998
-0.162947
-0.141554
-0.160322
-0.087822
-0.060985
-0.057732
-0.057298
-0.071744
-0.073722
-0.059474
-0.176716
-0.171621
-0.155351
-0.134629
-0.135943
-0.151919
-0.186138
-0.149723
-0.093154
-0.101645
-0.095838
-0.100088
-0.154743
-0.153597
-0.138351
-0.162342
-0.075446
-0.161691
-0.148650
-0.133610
-0.142458
-0.072013
-0.072305
-0.172463
-0.041354
-0.038075
-0.176469
-0.122900
-0.197093
-0.041175
-0.126974
-0.075766
-0.155718
-0.044375
-0.186853
-0.069307
-0.168498
-0.151212
-0.147789
-0.151655
-0.184945
-0.075783
-0.074027
-0.083656
-0.066037
-0.105139
-0.102027
-0.103411
-0.141399
-0.133421
-0.133000
-0.143207
-0.104089
-0.100769
-0.155893
-0.095057
-0.147550
-0.149243
-0.159897
-0.157837
-0.159351
-0.158279
-0.157185
-0.156163
-0.144199
-0.174720
-0.108448
-0.132305
-0.060859
-0.087406
-0.081288
-0.164287
-0.105397
-0.108973
-0.096561
-0.156028
-0.167725
-0.173449
-0.119631
-0.116206
-0.122443
-0.078149
-0.080476
-0.085138
-0.087195
-0.051691
-0.046658
-0.050032
-0.045934
-0.175968
-0.199952
-0.117270
-0.117092
-0.119089
-0.111590
-0.159892
-0.097218
-0.095057
-0.094562
-0.126446
-0.124786
-0.141424
-0.134711
-0.092375
-0.093658
-0.091194
-0.129275
-0.131001
-0.111105
-0.125027
-0.124243
-0.169682
-0.158004
-0.044496
-0.040699
-0.129371
-0.126899
-0.127344
-0.046087
-0.048856
-0.046732
-0.053085
-0.174206
-0.083784
-0.044080
-0.155154
-0.153257
-0.153142
-0.071967
-0.068177
-0.073087
-0.158942
-0.157676
-0.068524
-0.164817
-0.168642
-0.170904
-0.064991
-0.073076
-0.127812
-0.129984
-0.126234
-0.119635
-0.135937
-0.055864
-0.048114
-0.058450
-0.132011
-0.127210
-0.143273
-0.131306
-0.148953
-0.146983
-0.146045
-0.051977
-0.057519
-0.181753
-0.185823
-0.143073
-0.113234
-0.108593
-0.132985
-0.119079
-0.196596
-0.129400
-0.164384
-0.164802
-0.158844
-0.065032
-0.162650
-0.163705
-0.168575
-0.168524
-0.080094
-0.132086
-0.187459
-0.086694
-0.038737
-0.044037
-0.082345
-0.079857
-0.078872
-0.074596
-0.108588
-0.110027
-0.110512
-0.113441
-0.112856
-0.085049
-0.035517
-0.038616
-0.132752
-0.115479
-0.124619
-0.154286
-0.150887
-0.116311
-0.109535
-0.128165
-0.109112
-0.146516
-0.105797
-0.105902
-0.100339
-0.104919
-0.032873
-0.094673
-0.098102
-0.041230
-0.044296
-0.035381
-0.049487
-0.092738
-0.065195
-0.133588
-0.127797
-0.092816
-0.079776
-0.086297
-0.114980
-0.121662
-0.156033
-0.158841
-0.158809
-0.147494
-0.147121
-0.112499
-0.111450
-0.127365
-0.096207
-0.093494
-0.099621
-0.090734
-0.086285
-0.054674
-0.053281
-0.082357
-0.084394
-0.076507
-0.074689
-0.071612
-0.065158
-0.060390
-0.069978
-0.166246
-0.049413
-0.041982
-0.042996
-0.033240
-0.047611
-0.028689
-0.029354
-0.126176
-0.125308
-0.136093
-0.052265
-0.047071
-0.167165
-0.028436
-0.073712
-0.068317
-0.088370
-0.042585
-0.200355
-0.199315
-0.165233
-0.197632
-0.197158
-0.098339
-0.160520
-0.124742
-0.155508
-0.145978
-0.155045
-0.168321
-0.155050
-0.082032
-0.077393
-0.089206
-0.079755
-0.063818
-0.070081
-0.078177
-0.117729
-0.080330
-0.117778
-0.099061
-0.096895
-0.159969
-0.059000
-0.108882
-0.077003
-0.078306
-0.033534
-0.029602
-0.037604
-0.035328
-0.041622
-0.038126
-0.034372
-0.109319
-0.103233
-0.180024
-0.064856
-0.059146
-0.055246
-0.055720
-0.118852
-0.098236
-0.097172
-0.156996
-0.155552
-0.148285
-0.150011
-0.137538
-0.138842
-0.106333
-0.107455
-0.108929
-0.070359
-0.157005
-0.153038
-0.160932
-0.044613
-0.049338
-0.080239
-0.090302
-0.093443
-0.104055
-0.152059
-0.147275
-0.158797
-0.038834
-0.096264
-0.098481
-0.099185
-0.040524
-0.037224
-0.041248
-0.179292
-0.082634
-0.132391
-0.140034
-0.138246
-0.143391
-0.146052
-0.095808
-0.155454
-0.195555
-0.155591
-0.087966
-0.105484
-0.127727
-0.129657
-0.105516
-0.139271
-0.144354
-0.140924
-0.106913
-0.073715
-0.126675
-0.145861
-0.150308
-0.115141
-0.135107
-0.103098
-0.117008
-0.182390
-0.169506
-0.066284
-0.088597
-0.167548
-0.095816
-0.091779
-0.066621
-0.120082
-0.054444
-0.084749
-0.079613
-0.132992
-0.121712
-0.144191
-0.099116
-0.181320
-0.114947
-0.150881
-0.082277
-0.079174
-0.095204
-0.111427
-0.110239
-0.081164
-0.084755
-0.185951
-0.185596
-0.135328
-0.144813
-0.089032
-0.087139
-0.120489
-0.146171
-0.051710
-0.144271
-0.052098
-0.055901
-0.119860
-0.127432
-0.125439
-0.051753
-0.053562
-0.068039
-0.079930
-0.124478
-0.090586
-0.057471
-0.057827
-0.073078
-0.065939
-0.036920
-0.033008
-0.112551
-0.092839
-0.093426
-0.085018
-0.191971
-0.036197
-0.100749
-0.087151
-0.159968
-0.098311
-0.064129
-0.133716
-0.137763
-0.058377
-0.118595
-0.043056
-0.031263
-0.158165
-0.124272
-0.179165
-0.165892
-0.130817
-0.133558
-0.137349
-0.134922
-0.139609
-0.127305
-0.115182
-0.124595
-0.077493
-0.104799
-0.101876
-0.100539
-0.113601
-0.066132
-0.138597
-0.062865
-0.066718
-0.047124
-0.128197
-0.141670
-0.103682
-0.091528
-0.091360
-0.034651
-0.071675
-0.163773
-0.074320
-0.093748
-0.127187
-0.078984
-0.028796
-0.067180
-0.051459
-0.050554
-0.171408
-0.055911
-0.140066
-0.068175
-0.030194
-0.073091
-0.129507
-0.104679
-0.103650
-0.135349
-0.126826
-0.102098
-0.134377
-0.115487
-0.116199
-0.096310
-0.122847
-0.089209
-0.088514
-0.086424
-0.134516
-0.110661
-0.061626
-0.061385
-0.098599
-0.121808
-0.092517
-0.099669
-0.100198
-0.076089
-0.137815
-0.093436
-0.116117
-0.070223
-0.102827
-0.069462
-0.139859
-0.119938
-0.125364
-0.034923
-0.039752
-0.106774
-0.083431
-0.083759
-0.040940
-0.106572
-0.090182
-0.077276
-0.167751
-0.150900
-0.063343
-0.088268
-0.048360
-0.047402
-0.048938
-0.139821
-0.125216
-0.101594
-0.040410
-0.036221
-0.036379
-0.059153
-0.041427
-0.049714
-0.036888
-0.044267
-0.028372
0.054113
0.047672
0.052245
0.014329
0.008532
0.020947
0.044326
0.060208
-0.000341
-0.000787
-0.004250
0.037031
0.046145
0.048527
-0.024251
-0.028842
-0.023472
0.024964
0.027621
0.033316
0.017262
-0.028333
-0.042192
-0.036857
-0.027197
-0.025257
-0.023530
-0.017315
-0.017306
-0.021065
-0.029075
0.021564
0.017207
0.019662
0.016979
-0.022466
-0.013309
-0.025510
-0.027926
-0.024792
-0.007224
-0.004048
0.024006
0.020041
0.022851
0.020393
-0.033462
-0.031901
-0.036811
0.004125
0.004178
-0.004980
-0.008571
-0.011727