# vtk DataFile Version 2.0
Test
ASCII
DATASET POLYDATA
POINTS 3011 float
0.000000 0.000000 0.000000
2.000000 0.000000 0.000000
2.000000 4.000000 0.000000
0.000000 4.000000 0.000000
0.000000 0.500000 0.000000
1.500000 2.000000 0.000000
2.000000 2.500000 0.000000
0.285714 0.000000 0.000000
0.571429 0.000000 0.000000
0.857143 0.000000 0.000000
1.142857 0.000000 0.000000
1.428571 0.000000 0.000000
1.714286 0.000000 0.000000
2.000000 0.276366 0.000000
2.000000 0.523709 0.000000
2.000000 0.745076 0.000000
2.000000 0.943195 0.000000
2.000000 1.120508 0.000000
2.000000 1.279199 0.000000
2.000000 1.421225 0.000000
2.000000 1.548336 0.000000
2.000000 1.662097 0.000000
2.000000 1.763911 0.000000
2.000000 1.855033 0.000000
2.000000 1.936585 0.000000
2.000000 2.009573 0.000000
2.000000 2.074896 0.000000
2.000000 2.133358 0.000000
2.000000 2.185681 0.000000
2.000000 2.232509 0.000000
2.000000 2.274419 0.000000
2.000000 2.311927 0.000000
2.000000 2.345497 0.000000
2.000000 2.375541 0.000000
2.000000 2.402430 0.000000
2.000000 2.426495 0.000000
2.000000 2.448033 0.000000
2.000000 2.467309 0.000000
2.000000 2.484560 0.000000
2.000000 2.516256 0.000000
2.000000 2.535859 0.000000
2.000000 2.559499 0.000000
2.000000 2.588006 0.000000
2.000000 2.622383 0.000000
2.000000 2.663839 0.000000
2.000000 2.713831 0.000000
2.000000 2.774116 0.000000
2.000000 2.846815 0.000000
2.000000 2.934483 0.000000
2.000000 3.040202 0.000000
2.000000 3.167691 0.000000
2.000000 3.321430 0.000000
2.000000 3.506825 0.000000
2.000000 3.730395 0.000000
1.714286 4.000000 0.000000
1.428571 4.000000 0.000000
1.142857 4.000000 0.000000
0.857143 4.000000 0.000000
0.571429 4.000000 0.000000
0.285714 4.000000 0.000000
0.000000 3.713462 0.000000
0.000000 3.449209 0.000000
0.000000 3.205508 0.000000
0.000000 2.980761 0.000000
0.000000 2.773493 0.000000
0.000000 2.582346 0.000000
0.000000 2.406065 0.000000
0.000000 2.243495 0.000000
0.000000 2.093568 0.000000
0.000000 1.955302 0.000000
0.000000 1.827789 0.000000
0.000000 1.710194 0.000000
0.000000 1.601745 0.000000
0.000000 1.501730 0.000000
0.000000 1.409494 0.000000
0.000000 1.324431 0.000000
0.000000 1.245984 0.000000
0.000000 1.173639 0.000000
0.000000 1.106920 0.000000
0.000000 1.045390 0.000000
0.000000 0.988645 0.000000
0.000000 0.936314 0.000000
0.000000 0.888053 0.000000
0.000000 0.843545 0.000000
0.000000 0.802499 0.000000
0.000000 0.764646 0.000000
0.000000 0.729736 0.000000
0.000000 0.697541 0.000000
0.000000 0.667851 0.000000
0.000000 0.640469 0.000000
0.000000 0.615217 0.000000
0.000000 0.591929 0.000000
0.000000 0.570453 0.000000
0.000000 0.550646 0.000000
0.000000 0.532380 0.000000
0.000000 0.515535 0.000000
0.000000 0.483768 0.000000
0.000000 0.461535 0.000000
0.000000 0.431083 0.000000
0.000000 0.389372 0.000000
0.000000 0.332241 0.000000
0.000000 0.253989 0.000000
0.000000 0.146807 0.000000
0.010563 0.510563 0.000000
0.021127 0.521127 0.000000
0.031690 0.531690 0.000000
0.042254 0.542254 0.000000
0.052817 0.552817 0.000000
0.063380 0.563380 0.000000
0.073944 0.573944 0.000000
0.084507 0.584507 0.000000
0.095070 0.595070 0.000000
0.105634 0.605634 0.000000
0.116197 0.616197 0.000000
0.126761 0.626761 0.000000
0.137324 0.637324 0.000000
0.147887 0.647887 0.000000
0.158451 0.658451 0.000000
0.169014 0.669014 0.000000
0.179577 0.679577 0.000000
0.190141 0.690141 0.000000
0.200704 0.700704 0.000000
0.211268 0.711268 0.000000
0.221831 0.721831 0.000000
0.232394 0.732394 0.000000
0.242958 0.742958 0.000000
0.253521 0.753521 0.000000
0.264085 0.764085 0.000000
0.274648 0.774648 0.000000
0.285211 0.785211 0.000000
0.295775 0.795775 0.000000
0.306338 0.806338 0.000000
0.316901 0.816901 0.000000
0.327465 0.827465 0.000000
0.338028 0.838028 0.000000
0.348592 0.848592 0.000000
0.359155 0.859155 0.000000
0.369718 0.869718 0.000000
0.380282 0.880282 0.000000
0.390845 0.890845 0.000000
0.401408 0.901408 0.000000
0.411972 0.911972 0.000000
0.422535 0.922535 0.000000
0.433099 0.933099 0.000000
0.443662 0.943662 0.000000
0.454225 0.954225 0.000000
0.464789 0.964789 0.000000
0.475352 0.975352 0.000000
0.485915 0.985915 0.000000
0.496479 0.996479 0.000000
0.507042 1.007042 0.000000
0.517606 1.017606 0.000000
0.528169 1.028169 0.000000
0.538732 1.038732 0.000000
0.549296 1.049296 0.000000
0.559859 1.059859 0.000000
0.570423 1.070423 0.000000
0.580986 1.080986 0.000000
0.591549 1.091549 0.000000
0.602113 1.102113 0.000000
0.612676 1.112676 0.000000
0.623239 1.123239 0.000000
0.633803 1.133803 0.000000
0.644366 1.144366 0.000000
0.654930 1.154930 0.000000
0.665493 1.165493 0.000000
0.676056 1.176056 0.000000
0.686620 1.186620 0.000000
0.697183 1.197183 0.000000
0.707746 1.207746 0.000000
0.718310 1.218310 0.000000
0.728873 1.228873 0.000000
0.739437 1.239437 0.000000
0.750000 1.250000 0.000000
0.760563 1.260563 0.000000
0.771127 1.271127 0.000000
0.781690 1.281690 0.000000
0.792254 1.292254 0.000000
0.802817 1.302817 0.000000
0.813380 1.313380 0.000000
0.823944 1.323944 0.000000
0.834507 1.334507 0.000000
0.845070 1.345070 0.000000
0.855634 1.355634 0.000000
0.866197 1.366197 0.000000
0.876761 1.376761 0.000000
0.887324 1.387324 0.000000
0.897887 1.397887 0.000000
0.908451 1.408451 0.000000
0.919014 1.419014 0.000000
0.929577 1.429577 0.000000
0.940141 1.440141 0.000000
0.950704 1.450704 0.000000
0.961268 1.461268 0.000000
0.971831 1.471831 0.000000
0.982394 1.482394 0.000000
0.992958 1.492958 0.000000
1.003521 1.503521 0.000000
1.014085 1.514085 0.000000
1.024648 1.524648 0.000000
1.035211 1.535211 0.000000
1.045775 1.545775 0.000000
1.056338 1.556338 0.000000
1.066901 1.566901 0.000000
1.077465 1.577465 0.000000
1.088028 1.588028 0.000000
1.098592 1.598592 0.000000
1.109155 1.609155 0.000000
1.119718 1.619718 0.000000
1.130282 1.630282 0.000000
1.140845 1.640845 0.000000
1.151408 1.651408 0.000000
1.161972 1.661972 0.000000
1.172535 1.672535 0.000000
1.183099 1.683099 0.000000
1.193662 1.693662 0.000000
1.204225 1.704225 0.000000
1.214789 1.714789 0.000000
1.225352 1.725352 0.000000
1.235915 1.735915 0.000000
1.246479 1.746479 0.000000
1.257042 1.757042 0.000000
1.267606 1.767606 0.000000
1.278169 1.778169 0.000000
1.288732 1.788732 0.000000
1.299296 1.799296 0.000000
1.309859 1.809859 0.000000
1.320423 1.820423 0.000000
1.330986 1.830986 0.000000
1.341549 1.841549 0.000000
1.352113 1.852113 0.000000
1.362676 1.862676 0.000000
1.373239 1.873239 0.000000
1.383803 1.883803 0.000000
1.394366 1.894366 0.000000
1.404930 1.904930 0.000000
1.415493 1.915493 0.000000
1.426056 1.926056 0.000000
1.436620 1.936620 0.000000
1.447183 1.947183 0.000000
1.457746 1.957746 0.000000
1.468310 1.968310 0.000000
1.478873 1.978873 0.000000
1.489437 1.989437 0.000000
1.510417 2.010417 0.000000
1.520833 2.020833 0.000000
1.531250 2.031250 0.000000
1.541667 2.041667 0.000000
1.552083 2.052083 0.000000
1.562500 2.062500 0.000000
1.572917 2.072917 0.000000
1.583333 2.083333 0.000000
1.593750 2.093750 0.000000
1.604167 2.104167 0.000000
1.614583 2.114583 0.000000
1.625000 2.125000 0.000000
1.635417 2.135417 0.000000
1.645833 2.145833 0.000000
1.656250 2.156250 0.000000
1.666667 2.166667 0.000000
1.677083 2.177083 0.000000
1.687500 2.187500 0.000000
1.697917 2.197917 0.000000
1.708333 2.208333 0.000000
1.718750 2.218750 0.000000
1.729167 2.229167 0.000000
1.739583 2.239583 0.000000
1.750000 2.250000 0.000000
1.760417 2.260417 0.000000
1.770833 2.270833 0.000000
1.781250 2.281250 0.000000
1.791667 2.291667 0.000000
1.802083 2.302083 0.000000
1.812500 2.312500 0.000000
1.822917 2.322917 0.000000
1.833333 2.333333 0.000000
1.843750 2.343750 0.000000
1.854167 2.354167 0.000000
1.864583 2.364583 0.000000
1.875000 2.375000 0.000000
1.885417 2.385417 0.000000
1.895833 2.395833 0.000000
1.906250 2.406250 0.000000
1.916667 2.416667 0.000000
1.927083 2.427083 0.000000
1.937500 2.437500 0.000000
1.947917 2.447917 0.000000
1.958333 2.458333 0.000000
1.968750 2.468750 0.000000
1.979167 2.479167 0.000000
1.989583 2.489583 0.000000
0.206561 0.791563 0.000000
0.205359 0.816165 0.000000
0.186354 0.798211 0.000000
0.221961 0.800924 0.000000
0.280649 1.360489 0.000000
0.304015 1.400469 0.000000
0.229142 1.396096 0.000000
0.275922 1.451476 0.000000
1.869084 2.391788 0.000000
1.857928 2.378421 0.000000
1.238669 2.061899 0.000000
1.278787 2.082276 0.000000
1.238298 2.096047 0.000000
1.277579 2.032995 0.000000
0.402536 1.205823 0.000000
0.415290 1.176040 0.000000
0.428330 1.201952 0.000000
0.387294 1.172617 0.000000
0.146930 1.050586 0.000000
0.109488 1.087198 0.000000
0.102742 1.042403 0.000000
0.157178 1.091184 0.000000
0.588967 1.178581 0.000000
0.593116 1.153718 0.000000
0.608054 1.166752 0.000000
0.612180 1.145944 0.000000
0.860304 1.543784 0.000000
0.868821 1.521840 0.000000
0.878420 1.536650 0.000000
0.845380 1.517623 0.000000
1.129525 1.764330 0.000000
1.142005 1.751560 0.000000
1.145757 1.773681 0.000000
1.159368 1.759106 0.000000
1.968150 2.518865 0.000000
1.986105 2.509269 0.000000
1.986696 2.531115 0.000000
0.668964 1.191005 0.000000
0.683291 1.201259 0.000000
0.557625 1.074830 0.000000
0.569760 1.084377 0.000000
0.557769 1.089278 0.000000
0.707567 1.266174 0.000000
0.719026 1.281845 0.000000
0.700768 1.282275 0.000000
0.722329 1.266956 0.000000
0.468225 2.149688 0.000000
0.419106 2.064198 0.000000
0.523878 2.082648 0.000000
0.838546 1.421191 0.000000
0.823708 1.410355 0.000000
0.840477 1.404206 0.000000
0.818500 1.425973 0.000000
0.953187 1.488222 0.000000
0.959780 1.473222 0.000000
0.967054 1.485637 0.000000
1.047418 1.769126 0.000000
1.080240 1.782403 0.000000
1.047768 1.802712 0.000000
0.971392 1.693320 0.000000
0.949208 1.720793 0.000000
0.940644 1.684781 0.000000
0.381391 2.160909 0.000000
0.944091 1.477800 0.000000
0.530075 1.477351 0.000000
0.521303 1.516669 0.000000
0.474240 1.491166 0.000000
0.489489 1.546185 0.000000
1.537370 2.239326 0.000000
1.555275 2.267640 0.000000
1.532966 2.278201 0.000000
0.962010 1.661716 0.000000
0.986804 1.643200 0.000000
0.986259 1.672729 0.000000
1.049149 1.737940 0.000000
1.075111 1.737123 0.000000
[...]
POINT_DATA 3011
SCALARS UX float 1
LOOKUP_TABLE default
-0.000000
0.000000
-0.755321
-0.807665
-0.943316
-0.185783
0.436365
0.000000
-0.000000
0.000000
-0.000000
0.000000
0.000000
0.012483
0.019904
0.027177
0.033085
0.036302
0.035121
0.027194
0.018704
0.014530
0.020337
0.041307
0.077590
0.073754
0.162302
0.215959
-0.106165
-0.050235
0.197722
-0.368431
-0.524266
2.655661
1.776886
2.004828
1.410256
0.682172
0.594040
0.182486
-0.027288
-0.272485
-0.421497
-0.529417
-0.582109
-0.661128
-0.698606
-0.716862
-0.726145
-0.734875
-0.741035
-0.746109
-0.750394
-0.753636
-0.760443
-0.765934
-0.772841
-0.780836
-0.789299
-0.798210
-0.810233
-0.814437
-0.820490
-0.826542
-0.832398
-0.839763
-0.846826
-0.856480
-0.868658
-0.879611
-0.884582
-0.884783
-0.882603
-0.880051
-0.877024
-0.869945
-0.861177
-0.861275
-0.853200
-0.889414
-0.928598
-0.950812
-0.968636
-0.989138
-1.051794
-1.025913
-0.923931
-0.897049
-0.888300
-0.884658
-0.880176
-0.852301
-0.113611
-0.955801
-1.773113
-1.314411
-0.599971
-0.182646
-0.063744
-0.049589
-0.036458
-0.023532
-0.013408
-1.198389
-0.518841
-0.506981
-0.557746
-0.604808
-0.664380
-0.721068
-0.780225
-0.822266
-0.813740
-0.846930
-0.880223
-0.913972
-0.946969
-0.676972
-0.209873
-0.233335
0.056851
-0.223245
-0.433943
-2.799693
-0.513592
-0.408390
-0.206865
-0.290619
-0.427360
-0.606733
-0.707914
-0.769808
-0.697719
-0.344700
0.073475
0.381973
-0.744575
-0.471318
-0.590056
-0.888477
-1.187264
-0.181195
-0.053160
-0.043073
-0.023271
0.072016
-0.060234
-0.021829
0.144008
-0.011959
-0.083698
-0.150412
-0.228207
-0.203592
-0.088388
-0.031011
-0.059284
0.547400
-0.425240
-0.148527
-2.974216
-4.299302
-0.307800
0.034619
-0.008806
0.193742
0.724765
0.424094
0.368414
0.318117
0.305240
0.293345
-0.061047
-0.042378
-0.038845
-0.121000
-0.140878
-0.211264
-0.240866
-0.312823
-0.156737
0.004344
-0.251011
-0.524052
-0.673792
-0.817974
-0.971068
-0.979942
-0.941270
-0.935761
-0.954860
-1.079760
-1.087562
-1.072403
-1.057372
-0.848414
-0.830992
-0.835466
-0.842583
-0.848322
-0.794629
-0.744654
-0.848789
-0.753785
-0.731762
-0.711122
-0.705604
-0.715064
-0.706030
-0.629000
-0.565594
-0.504686
-0.396668
-0.182180
0.334996
0.524950
-0.155865
-0.240823
-0.079022
-0.326360
-0.512736
-0.785481
-0.691613
-0.597313
-0.500214
-1.125974
-1.103723
-1.033763
-0.845837
-0.650068
-0.484180
-0.480598
-0.444163
-0.351064
-0.717781
-0.552951
-0.495441
-0.516034
-0.537654
-0.637821
-0.513931
-0.541404
-0.609119
-0.245337
-0.213194
-0.248136
-0.304693
-0.318064
-0.321359
-0.316319
0.569416
-0.210656
-0.713199
-0.364393
-0.230861
-0.163835
-0.153392
-0.200197
-0.248955
-0.738244
-0.737783
-0.647297
-0.750248
-0.399449
-0.576598
-0.526945
-0.289970
0.013936
-0.040082
-0.260669
-0.488078
-2.031824
-2.923749
-2.425264
-2.301066
-2.462746
-2.080278
-1.701807
-2.063442
-1.154635
0.504884
0.750057
1.696477
1.971619
1.814932
1.139145
0.849929
0.787996
0.568392
0.430138
0.453670
-1.285480
-0.997231
-1.415588
-1.090828
-0.854132
-0.855004
-0.862383
-0.855402
0.658790
-0.966533
-0.782269
-0.735829
-0.765721
-0.694542
-0.815023
-0.801841
-0.791875
-0.840040
-0.860686
-0.850720
-0.874154
-0.846574
-0.684370
-2.651045
-0.616582
0.502629
-0.801565
-0.810540
-0.810618
-0.728861
-0.708724
-0.690981
-0.746868
-0.718473
-0.060996
0.174615
-0.081516
0.401040
0.347090
-0.011562
0.175375
-0.484480
-0.182360
-0.110456
-0.504599
-0.004870
-0.833878
-0.843386
-0.836041
-0.927151
-0.340601
0.075090
-0.812892
-0.414129
-0.872849
-0.532561
-0.789420
-0.788189
-0.804417
-0.806315
-0.806063
-0.810581
-0.838464
-1.164560
-0.830642
-0.836672
-0.834802
-0.840958
-0.701074
-0.729546
-0.754168
-0.811093
-0.812438
-0.806864
-0.789116
-0.854087
-0.816990
-0.800655
-0.752815
-0.023984
-0.219873
0.664303
-0.564339
-0.739359
-0.732032
-0.742617
-0.727836
-0.750471
-0.734262
-0.829920
-0.839731
-0.825729
-0.848004
-0.847214
-0.850946
-0.837621
-0.850777
-0.855387
-0.781834
-0.799878
-0.885253
-0.780208
-0.780371
-0.775333
-0.787520
-0.858952
-0.855342
-0.854071
-0.558932
-0.554209
-0.549434
-0.862731
-0.827472
-0.831772
-0.827038
-0.812675
-0.805332
-0.814412
-0.806440
-0.829204
-0.874816
-0.871614
-0.877952
-0.439249
-1.105780
-0.378859
-0.796644
-0.803567
-0.783911
-0.839186
-0.846391
-0.780177
-0.838993
-0.828066
-0.843427
-0.831652
-0.520063
2.071876
-0.472461
-0.817643
-0.821270
-0.818570
1.415557
-0.263533
-0.254003
-0.125177
-0.981137
-1.026432
-0.999174
-0.836350
-0.849342
-0.994509
-0.821247
-0.821689
-0.816703
-0.855988
-0.815387
-0.819947
-0.822883
-0.868659
-0.854473
-0.850050
0.093874
-0.320500
-0.080330
-0.036319
-1.004984
-1.017984
-0.633766
-0.093389
-0.861288
-0.816948
-0.611585
-0.775457
-0.775729
-0.820823
-0.802291
-0.803337
-0.756824
-0.805118
-0.447895
-0.478056
-0.442348
-0.701980
-0.756608
-0.685882
-0.811598
-0.617385
-0.965692
-0.889907
-0.939963
-12.034458
-0.997841
-2.620631
-0.804034
-3.315907
-4.499064
-0.593449
-0.686560
-0.872596
0.264883
0.610963
-0.707575
-0.710160
-0.721256
-0.373897
-0.705630
0.567488
-0.774544
-0.765170
-0.770449
-0.775559
-3.439785
-2.574303
-0.486987
-0.714960
-0.744343
-0.691103
-0.902465
-0.866035
-0.743503
-0.760610
-0.760981
-0.767678
-0.766603
-0.154825
-0.098468
-0.054838
-18.947640
-0.992547
-0.994005
-0.995491
-0.994352
-0.752122
-0.720793
-0.701387
-0.691852
-0.730060
-0.737035
-0.717719
-0.739356
-0.744183
-0.711751
-0.655680
-0.780991
-0.665848
-0.812972
-0.812400
-0.810973
-0.813544
-0.893621
-0.908082
-0.845493
-0.897917
-0.694242
-0.688423
-0.690628
-0.268372
-0.159990
-0.185768
-0.313781
-0.426090
-4.933086
-0.461294
-0.750729
-0.918454
-0.632235
-0.468114
-0.851783
-0.827679
-0.843092
-0.732844
2.659068
-0.290303
0.512056
-0.788456
-0.811136
-0.875723
-0.810562
-0.526276
-0.489314
-0.389603
-0.628386
-0.792383
-0.689858
-0.391187
-0.842184
-0.820196
-0.833694
-0.318617
-0.733805
-0.692889
-0.735345
-0.728497
-0.726195
-0.700242
-0.810674
-0.816422
-0.816231
-0.678989
-0.617335
-0.662503
-0.606473
-0.654991
-0.602862
-0.705296
-0.690956
-0.800269
-0.784817
-0.806226
-0.733006
-0.862867
-0.030540
-0.003285
0.007578
-0.773380
-0.813213
-0.810521
-0.723634
-0.735574
-0.751780
-0.762689
-0.829462
-0.766994
-0.768412
-0.741540
-0.765934
-0.459069
-0.541011
0.485531
0.508691
-0.524986
-0.265064
-0.491604
-0.101609
-0.898923
-0.881353
-0.904382
-0.869937
-0.479529
-0.442615
-0.241337
-0.795899
-0.792398
-0.802612
-0.340742
-0.681345
-0.755636
-0.701593
-0.766420
-0.761883
-0.748960
-0.750510
-0.750918
-0.833439
-0.829716
-0.830775
-0.828862
-0.752901
-0.758208
-0.684103
-0.742704
-0.343217
-0.365312
-0.874495
-0.879608
-0.878242
-0.892446
-0.890918
-0.886738
-0.899040
-0.895195
-0.901193
-0.768167
-0.771195
-0.766616
-0.480179
-0.713751
-0.704435
-0.756039
-0.730557
-0.799591
-0.782462
-0.821657
-0.824535
-0.827087
-0.824423
-0.353815
-0.543166
-0.646173
-0.340472
-0.850223
-0.828174
-0.899259
-0.858400
-0.906596
-0.886815
-0.894537
-0.882890
-0.881823
-0.871110
-0.871358
-0.978494
-0.892003
-0.793442
-0.990773
-0.784771
-0.699040
-0.830013
-0.828894
-0.825764
-0.769546
-0.794754
-0.795511
-0.790118
-0.802347
-0.803469
-0.622189
-0.538397
-0.567194
-0.642587
-0.560298
-0.422517
-0.761176
-0.782356
-0.808829
-0.870422
-0.861943
-0.867258
-0.874381
-0.712824
-0.705011
-0.727604
-0.734575
-0.787126
-0.799357
-0.639367
-0.664540
-0.637439
-0.639073
-0.366425
-0.731079
-0.683275
-0.619184
-0.684023
-0.762072
-0.612400
0.091889
-0.517641
1.039943
-0.612030
-0.616959
-0.781272
-0.780311
-0.783073
-0.783242
-0.777294
-0.772739
-0.776587
-0.777875
-0.782865
-0.836680
-0.852768
-0.831930
-0.892557
-0.894466
-0.890029
-0.894391
-0.603754
-0.756943
-0.701888
-0.554759
-0.666591
-0.860059
-0.758902
-0.875374
-0.630618
-1.233641
-2.622146
-1.527033
1.130747
-0.931558
-0.880058
12.572666
7.587407
0.194335
0.321490
-0.052504
0.615226
0.043794
-0.794046
-0.727178
-0.831331
-0.841693
-0.813582
-0.303836
-0.773446
-0.762252
-0.770839
-0.759068
-0.830529
-0.832847
-0.826087
-0.832100
-0.832608
-0.815004
-0.805129
-0.861410
-0.871318
-0.984225
-0.993373
-0.971276
-0.990398
-0.803625
-0.269413
-0.751237
-0.913674
-0.919136
-0.877598
-0.815708
-0.665521
-0.707369
0.181544
-0.914005
1.841898
0.316713
-0.876244
-0.526998
-0.299457
-0.484604
-0.898609
-0.877056
-0.479260
-0.799794
-0.794834
-0.795255
-0.790798
-0.792146
-1.368370
-0.946706
-0.972584
-0.913129
-0.706310
-0.721820
-0.613963
-0.584191
-0.857112
1.414011
-0.842906
-0.843213
-0.842636
-0.840687
-0.842564
-0.844319
-0.840404
-0.841075
-0.846810
-0.834704
-0.836454
-0.620870
-0.770970
-0.777568
-0.822679
-0.773658
-0.825068
-0.813291
-0.192506
-0.294465
-0.111925
-0.844659
-0.842537
-0.790423
-0.935484
-0.838849
-0.842754
-0.773732
-0.779690
-0.774424
-0.768938
-0.821945
-0.587853
-0.599684
2.143283
-0.604081
-0.446558
-2.381997
-2.506709
-4.455072
-2.457778
-0.830245
-0.829971
-0.830787
-0.828002
-0.825445
-0.826691
-0.586858
-0.575820
-0.520630
-0.428607
-0.828618
-0.823812
-0.397307
-0.114558
-0.818838
-0.733914
-0.820296
-0.748477
-0.770655
-0.740883
-0.720495
-0.784744
-0.744772
-0.811356
-0.903139
-0.730727
-0.797586
-0.796700
1.036703
0.309463
-0.189487
-0.917649
-0.866721
-0.870222
-0.875571
-0.806984
-0.811786
-0.816748
-0.807348
-2.926276
-0.891545
-0.897098
-0.755472
-0.854999
-0.740761
-0.744267
-0.750454
-0.751086
-2.518107
-1.077274
-0.963345
-0.958830
-0.755203
-0.997266
-0.825015
-0.835593
-0.827092
-0.820904
-0.833592
-0.800380
-0.866219
-0.789581
-0.785306
-0.790854
-0.780878
-0.800123
-0.805279
-0.809568
-0.845886
-0.804828
-0.831027
-0.821278
-0.806956
-0.795015
-1.320451
-1.102597
-0.655002
-1.045036
-0.967867
-0.795162
-0.788873
-0.788408
-0.795476
2.806593
-0.812727
-0.808181
-0.810004
-0.845491
-0.848460
-0.851978
-0.813519
-0.814890
-0.826756
-0.523333
-0.953705
-0.776227
-0.333465
-0.837498
-0.834390
-0.831282
-0.828674
-0.825855
-0.777455
-0.781518
-0.834027
-0.825727
-0.819546
-0.814806
-0.811941
-0.768604
-0.787472
-0.785796
-0.790431
-0.789309
-0.820381
-0.815456
-0.810087
-0.807735
-0.187931
-0.354779
-2.252823
-0.764568
0.202685
-0.771492
-0.404883
-0.811984
-0.794324
-0.851422
-0.855874
-0.849138
-0.820848
-0.824816
-0.924377
-0.728890
-0.539755
-0.896635
1.830916
-0.742238
-0.783981
-0.816868
-0.740593
-0.684864
-0.838359
-0.846557
-0.848058
-0.764838
-0.855932
-0.956797
-0.838344
-1.029154
-1.083924
-2.647961
-0.871943
-0.768793
-0.776488
-0.771311
-1.031230
-0.888373
0.961308
-0.240324
0.375784
0.108105
-0.976252
-0.696928
-0.707959
-0.656618
-2.661433
-2.638059
-3.393020
-0.078580
-2.445995
-2.057783
-1.968733
-0.929978
-0.759454
-0.761257
-0.764743
-0.766635
-0.704463
-0.721755
-0.832303
-0.828219
-0.830137
-0.819962
-0.738606
-0.829123
-0.958507
-1.027996
-0.909676
-0.995221
-0.785322
-0.834809
-0.853596
-0.827657
-0.871545
-0.866097
-0.863928
-0.861395
-0.857606
-0.826758
-0.834454
-0.830172
-0.838144
-0.755930
-0.747353
-0.751704
-0.775562
-0.816590
-0.825844
-0.829686
-0.848197
-0.848951
-1.359376
-1.484373
-0.841219
-0.786459
-0.855044
-0.861051
-0.840308
-0.826930
-0.910573
-0.832335
-0.849894
-0.853236
-1.035765
-0.764984
-0.181517
-0.324888
-0.907796
-0.814387
-0.828091
-0.928174
-0.841689
-0.849483
-0.431706
-0.753948
-0.885735
-1.957613
0.040413
-1.436766
-0.802356
-0.798450
-0.909586
-0.801494
-0.830535
-0.831200
-0.818882
-0.740615
-0.828225
-0.820755
-0.823156
-0.640942
-0.805939
-0.835862
-0.579514
-0.525007
-0.515954
-0.845662
-0.856375
-0.560097
-0.900027
-0.652854
-0.649805
-0.847679
-0.463050
-0.565560
-0.673207
-0.827053
-0.825478
-0.832715
-0.675300
0.976772
-0.822035
-0.824441
-0.930285
-0.936705
-0.821617
-0.834210
-0.770671
-0.765751
-0.843686
-0.852486
-0.472454
-0.495022
-0.413280
-0.726947
-0.731020
-0.813806
-0.800757
-0.852301
-0.863485
-0.859001
-0.843809
-0.841088
-0.841296
-0.814574
-1.327179
-0.869331
-0.837679
-0.843140
-0.331585
-0.959748
-0.174223
-0.661117
-0.846977
-0.848114
-0.849091
-0.215529
-0.164575
-0.347843
-0.554570
-0.849706
-0.839731
-0.780879
-0.784846
-0.769989
0.684247
-0.866599
-0.847366
-0.847078
-0.832021
-0.845300
-0.841708
-0.897447
-0.831371
-0.839858
-0.754530
-0.799980
-0.803753
-0.807393
-0.826562
-0.830810
-0.291969
-0.123005
-0.177056
-0.757302
-0.757762
-0.759707
-0.816866
-0.843198
-0.406234
-0.533654
-0.723346
-0.582147
-1.123771
-0.963401
-0.926565
-0.848489
-0.848361
-0.806365
-0.954343
-1.041206
-1.023527
-0.831676
-0.763261
1.724031
1.464859
-0.768109
-1.120508
-0.773917
-0.758398
-0.279059
13.895514
-0.238179
-0.297889
-0.422276
-0.180159
-0.828426
-0.710210
-0.714353
-0.828820
-0.826680
-0.817886
-0.189299
-0.823852
-0.615704
-0.506169
18.375608
-1.069441
60.588489
-0.830230
-0.808623
-0.809707
-0.814698
-0.804741
0.092711
-0.301339
-0.314566
-0.725547
-0.645586
-0.823457
-0.602516
-0.672394
-0.644347
-0.682446
-0.654556
-0.701493
-0.714065
-0.346854
-0.423472
-0.910445
-0.843688
-0.848222
-0.851514
-0.808934
-0.817948
-0.859231
-0.863626
-0.536005
-0.816855
-0.811495
-0.644588
0.535528
-0.824534
-0.810578
-0.830531
-0.383831
-0.833307
1.236284
-0.806465
-0.866261
-0.873108
-0.859461
-0.824821
-0.829489
-0.821007
-0.826339
-0.818868
-0.828256
-0.824739
-0.839604
-0.789219
-0.793232
-0.790729
-0.795035
-0.784309
-0.817728
-0.811171
-0.170989
-0.206997
-0.703997
-0.812726
-0.841695
-0.843270
-0.844554
-0.757232
-0.761906
-0.817749
-0.818422
-0.821152
-0.820297
-0.395139
-0.328453
-3.478246
-0.657569
-0.569981
19.562868
-0.816461
-0.827798
-0.477527
-0.749823
-0.742056
-0.511597
-0.836988
-0.834400
-0.830819
0.313975
-0.737560
-0.728610
-0.742967
-0.783292
-0.710584
-0.724026
-0.995394
-0.793112
-0.048267
-0.751914
-1.081316
0.115333
-0.350196
0.256741
-0.859949
-0.949310
-3.295197
-0.764151
-0.767839
-0.777678
-0.358122
-0.340508
-0.374726
-0.003331
0.142188
-0.754833
-0.706866
-0.699587
-0.643696
-0.770034
-0.775475
-0.325028
-0.242108
-0.257760
-0.690391
-0.717612
-0.832758
0.232728
-0.841153
-0.842493
-0.834684
-0.822503
-0.833918
-0.818628
1.169551
0.223855
-1.036041
-0.831465
-0.806715
-0.779874
-0.700182
-0.693442
-0.702213
-0.758863
-0.755012
-0.690601
-0.855676
-0.428806
-0.459405
-0.821307
-0.820522
-0.790551
-0.630378
-0.787099
-0.757561
-0.770956
-0.772315
-0.763756
-0.059476
-0.119464
-0.072311
-0.163999
-0.764071
-0.189618
-0.054168
0.028319
-0.816050
-0.703283
-0.714927
-1.537082
-0.715116
-0.742141
0.039342
-0.812768
-1.504149
-0.738608
-0.820728
-0.710798
-0.228614
-0.666632
-0.540880
-0.701940
-0.831094
-1.793586
-0.860307
-0.835115
-0.360095
-0.750134
-0.751479
-0.751101
-0.742350
-0.543751
-0.593029
-0.491871
0.348264
-0.296484
-0.161470
-0.627841
-0.557569
-0.549344
0.579906
-0.696766
-0.813718
-0.822325
-0.876073
-0.823841
-0.848595
-0.849985
-0.841556
-0.819402
-0.830353
-0.713532
-0.795902
0.451637
-0.732298
-0.406406
-0.610283
-0.801978
-0.624680
-0.814334
-0.833744
-0.610854
-0.873342
-0.546070
-0.715601
-0.708816
-0.751542
-0.732684
-0.726967
-0.744803
-0.741279
-0.319334
-0.289310
-0.367040
0.005007
-1.056386
-0.859632
-0.702414
-0.703460
-0.748849
-0.774741
-0.845359
-0.406756
-1.892978
-0.201685
-0.803345
-0.794581
0.259870
0.295160
1.296258
0.831706
0.016585
-0.807427
-0.806043
-0.835815
-0.844142
-0.798105
-0.314783
-0.273907
-0.663286
-0.637088
-0.809195
-0.783542
-0.818956
-0.668016
-0.676886
-0.696412
-0.466291
-0.567650
-0.763033
-0.661005
-0.810777
-0.804122
-0.834092
-1.006975
0.005982
-0.489535
-0.836403
-3.566764
-0.389132
-0.397105
-0.411288
-0.531656
-0.502593
-0.687424
-0.812633
-0.816001
-0.062715
-0.151494
1.133356
-0.153063
-0.286713
-0.447003
-0.789402
-0.786674
0.060544
-0.861077
-0.784323
-0.668628
-0.804618
0.212777
-0.458796
-0.920808
-0.906289
-0.722835
0.141919
0.029084
0.201118
-0.212093
-0.949015
-0.809673
-0.670250
0.046964
0.039256
-0.701759
-1.008280
-0.242917
-0.618913
-0.300958
-0.774714
-0.055146
-0.702206
-0.639403
-0.324741
-0.340300
0.016303
0.146732
-0.377884
-0.337266
-0.598449
-0.040033
-0.386334
-0.880502
-0.693184
0.002676
-0.743034
-0.743999
-0.565476
-0.301393
-0.399451
-0.834001
-0.323389
-0.963803
-0.926162
-0.923724
-0.515070
-0.433538
-0.348067
-0.582754
-0.502272
-0.082915
-0.748977
-0.693967
-0.690806
-0.702102
-0.740503
-0.706643
-0.480490
-0.588835
0.250839
0.276031
-0.046470
-0.831006
-0.521400
-0.384695
-0.777689
-0.707567
-1.189219
-1.342139
-1.122878
-0.593270
0.365601
-0.917356
-0.917242
-0.914817
-0.162112
-1.123434
-0.624121
-1.126737
-1.125074
-0.738957
-0.454472
-0.748534
-0.757395
-0.347800
-0.388995
-0.422785
-0.452602
-0.353342
-0.373128
-1.005745
-0.149700
-0.196273
0.232861
-0.176541
-0.676903
-0.747815
-0.727814
-0.913886
0.087085
-0.281026
-0.701863
-0.703856
2.013677
-0.748843
-0.733090
-0.725738
-0.758600
-0.645760
-0.885769
-0.882713
-0.593108
-0.908336
-0.899096
-0.763116
-0.788576
-0.793914
-0.944707
-0.427560
-0.646331
-0.768458
-0.797067
-0.768989
-0.761256
-0.760980
-0.758622
-0.683974
-0.746188
-0.723621
-2.450043
-0.770566
-0.809046
-0.818239
-0.819368
-0.964981
-0.729176
-0.798084
-0.679790
-0.687287
-0.563374
-0.604734
-0.302199
-0.291324
-0.178849
-0.172107
-0.156401
-0.695824
-0.559105
-0.762727
-0.483082
-0.711796
-0.707901
-0.685709
-0.795128
-0.573218
-0.861721
-0.860429
-0.810489
-0.738332
-0.743882
-0.808512
-0.811955
-0.775779
-0.791207
-0.816030
-0.718062
-0.987201
-0.781730
-1.520699
-0.690851
-0.714260
-0.751045
-0.158644
-0.327844
-0.647537
-0.766060
-0.835697
-0.844172
-2.472031
-0.090972
-0.356100
-0.662848
-0.682683
-0.643104
-0.666921
-0.809037
-0.774651
-0.043669
-0.027127
-0.218501
0.751368
-0.702844
-0.437430
-0.824487
-0.975734
-0.579605
-0.555999
-0.523413
-0.794791
-0.823361
-0.717649
-0.000132
-0.593456
-0.402684
-0.708715
-0.700946
-0.194605
-0.532299
-0.380347
-0.091646
-0.332428
-0.586087
-0.254397
-0.555755
-0.295505
-0.709568
0.619926
-0.415674
-0.792815
-0.747072
-0.268604
-0.784343
-0.719974
-0.739533
-0.718201
0.074184
-0.774394
0.314617
-0.780593
0.706669
0.307352
0.269003
-0.013495
-0.448612
-0.673783
-0.668544
-0.728092
-0.512745
-0.067271
-0.819419
-0.481904
-0.779352
-0.781342
-0.005107
-0.704161
-0.801256
-0.606709
-0.699932
-0.473193
-0.685609
-0.686501
-0.792238
-3.369900
-9.812171
-0.690187
-0.685780
-0.173122
-0.054230
-0.792900
-0.754229
-0.601842
-0.501380
-0.770117
-0.432898
-0.607485
-0.517142
-0.771729
-0.752285
-0.754207
-0.041437
-0.888914
-0.096522
-0.763573
0.110751
-0.859338
-0.538713
-0.409525
-0.577598
-0.147092
-0.051973
-0.787848
-0.703507
-0.252912
-1.295199
-0.750504
0.129872
-0.377850
-0.909243
-0.901591
-0.847091
0.095216
-0.463668
0.467405
0.411175
-0.915640
-0.483196
-0.668132
0.419882
1.039999
-0.744977
-0.726562
-0.810586
-0.539298
-0.709128
-0.787439
-0.032906
0.560929
-0.920919
-0.818242
-0.821415
-0.718866
-0.729347
-0.321699
-0.584434
-0.366190
-0.907941
-0.721716
-0.285800
-0.648088
-0.144223
-0.042251
-0.796305
-0.234941
-0.751945
-0.193048
-0.313839
-0.389479
-0.361805
-0.540272
-0.745448
0.024727
-0.228203
-0.427053
-0.958580
-0.752372
-0.840241
-0.672434
-0.817097
0.031885
0.047585
0.030994
-0.895499
-0.710416
-0.636089
-0.530657
0.193629
-0.967782
0.862361
-0.548734
-1.050792
-0.702687
-0.718594
-0.709623
-0.786249
-0.697408
-0.592232
-0.693122
-0.686612
-0.672966
-0.795420
-0.535202
-0.315093
-0.776027
0.064045
-0.755310
0.139513
-0.628368
0.095270
-0.695474
-0.500146
0.827422
-0.462748
-0.286568
0.173782
-0.699713
-0.675724
-0.468945
-1.149681
-0.385570
-0.110439
-0.113381
-0.105836
-0.053054
0.142446
-0.069777
0.184945
-0.019917
-0.000105
0.072868
0.068496
0.103669
-0.780657
-0.539040
-0.519510
0.196753
0.066562
-0.001017
-0.003584
-0.001652
0.017328
0.019674
0.023675
-0.058223
-0.063996
-0.055111
-0.042770
0.089398
-0.019957
-0.019832
-0.072711
-0.033224
-0.036537
-0.057187
-0.058930
-0.050838
-0.022891
-0.026699
-0.031352
-0.067486
-0.485800
-0.734753
-0.855718
-0.665238
-0.040880
-0.019916
-0.040447
-0.040429
-0.038045
-0.005577
-0.007231
0.029576
0.027922
0.027071
0.028639
-0.040685
0.010521
-0.010700
-0.730589
-0.354241
-0.714393
-0.006635
-0.025281
-0.006697
-0.042172
0.022748
0.031770
-0.015026
-0.025067
-0.017155
-0.024589
-0.012178
-0.024833
-0.017842
0.003776
-0.000259
-0.012758