# vtk DataFile Version 2.0
Test
ASCII
DATASET POLYDATA
POINTS 3011 float
0.000000 0.000000 0.000000
2.000000 0.000000 0.000000
2.000000 4.000000 0.000000
0.000000 4.000000 0.000000
0.000000 0.500000 0.000000
1.500000 2.000000 0.000000
2.000000 2.500000 0.000000
0.285714 0.000000 0.000000
0.571429 0.000000 0.000000
0.857143 0.000000 0.000000
1.142857 0.000000 0.000000
1.428571 0.000000 0.000000
1.714286 0.000000 0.000000
2.000000 0.276366 0.000000
2.000000 0.523709 0.000000
2.000000 0.745076 0.000000
2.000000 0.943195 0.000000
2.000000 1.120508 0.000000
2.000000 1.279199 0.000000
2.000000 1.421225 0.000000
2.000000 1.548336 0.000000
2.000000 1.662097 0.000000
2.000000 1.763911 0.000000
2.000000 1.855033 0.000000
2.000000 1.936585 0.000000
2.000000 2.009573 0.000000
2.000000 2.074896 0.000000
2.000000 2.133358 0.000000
2.000000 2.185681 0.000000
2.000000 2.232509 0.000000
2.000000 2.274419 0.000000
2.000000 2.311927 0.000000
2.000000 2.345497 0.000000
2.000000 2.375541 0.000000
2.000000 2.402430 0.000000
2.000000 2.426495 0.000000
2.000000 2.448033 0.000000
2.000000 2.467309 0.000000
2.000000 2.484560 0.000000
2.000000 2.516256 0.000000
2.000000 2.535859 0.000000
2.000000 2.559499 0.000000
2.000000 2.588006 0.000000
2.000000 2.622383 0.000000
2.000000 2.663839 0.000000
2.000000 2.713831 0.000000
2.000000 2.774116 0.000000
2.000000 2.846815 0.000000
2.000000 2.934483 0.000000
2.000000 3.040202 0.000000
2.000000 3.167691 0.000000
2.000000 3.321430 0.000000
2.000000 3.506825 0.000000
2.000000 3.730395 0.000000
1.714286 4.000000 0.000000
1.428571 4.000000 0.000000
1.142857 4.000000 0.000000
0.857143 4.000000 0.000000
0.571429 4.000000 0.000000
0.285714 4.000000 0.000000
0.000000 3.713462 0.000000
0.000000 3.449209 0.000000
0.000000 3.205508 0.000000
0.000000 2.980761 0.000000
0.000000 2.773493 0.000000
0.000000 2.582346 0.000000
0.000000 2.406065 0.000000
0.000000 2.243495 0.000000
0.000000 2.093568 0.000000
0.000000 1.955302 0.000000
0.000000 1.827789 0.000000
0.000000 1.710194 0.000000
0.000000 1.601745 0.000000
0.000000 1.501730 0.000000
0.000000 1.409494 0.000000
0.000000 1.324431 0.000000
0.000000 1.245984 0.000000
0.000000 1.173639 0.000000
0.000000 1.106920 0.000000
0.000000 1.045390 0.000000
0.000000 0.988645 0.000000
0.000000 0.936314 0.000000
0.000000 0.888053 0.000000
0.000000 0.843545 0.000000
0.000000 0.802499 0.000000
0.000000 0.764646 0.000000
0.000000 0.729736 0.000000
0.000000 0.697541 0.000000
0.000000 0.667851 0.000000
0.000000 0.640469 0.000000
0.000000 0.615217 0.000000
0.000000 0.591929 0.000000
0.000000 0.570453 0.000000
0.000000 0.550646 0.000000
0.000000 0.532380 0.000000
0.000000 0.515535 0.000000
0.000000 0.483768 0.000000
0.000000 0.461535 0.000000
0.000000 0.431083 0.000000
0.000000 0.389372 0.000000
0.000000 0.332241 0.000000
0.000000 0.253989 0.000000
0.000000 0.146807 0.000000
0.010563 0.510563 0.000000
0.021127 0.521127 0.000000
0.031690 0.531690 0.000000
0.042254 0.542254 0.000000
0.052817 0.552817 0.000000
0.063380 0.563380 0.000000
0.073944 0.573944 0.000000
0.084507 0.584507 0.000000
0.095070 0.595070 0.000000
0.105634 0.605634 0.000000
0.116197 0.616197 0.000000
0.126761 0.626761 0.000000
0.137324 0.637324 0.000000
0.147887 0.647887 0.000000
0.158451 0.658451 0.000000
0.169014 0.669014 0.000000
0.179577 0.679577 0.000000
0.190141 0.690141 0.000000
0.200704 0.700704 0.000000
0.211268 0.711268 0.000000
0.221831 0.721831 0.000000
0.232394 0.732394 0.000000
0.242958 0.742958 0.000000
0.253521 0.753521 0.000000
0.264085 0.764085 0.000000
0.274648 0.774648 0.000000
0.285211 0.785211 0.000000
0.295775 0.795775 0.000000
0.306338 0.806338 0.000000
0.316901 0.816901 0.000000
0.327465 0.827465 0.000000
0.338028 0.838028 0.000000
0.348592 0.848592 0.000000
0.359155 0.859155 0.000000
0.369718 0.869718 0.000000
0.380282 0.880282 0.000000
0.390845 0.890845 0.000000
0.401408 0.901408 0.000000
0.411972 0.911972 0.000000
0.422535 0.922535 0.000000
0.433099 0.933099 0.000000
0.443662 0.943662 0.000000
0.454225 0.954225 0.000000
0.464789 0.964789 0.000000
0.475352 0.975352 0.000000
0.485915 0.985915 0.000000
0.496479 0.996479 0.000000
0.507042 1.007042 0.000000
0.517606 1.017606 0.000000
0.528169 1.028169 0.000000
0.538732 1.038732 0.000000
0.549296 1.049296 0.000000
0.559859 1.059859 0.000000
0.570423 1.070423 0.000000
0.580986 1.080986 0.000000
0.591549 1.091549 0.000000
0.602113 1.102113 0.000000
0.612676 1.112676 0.000000
0.623239 1.123239 0.000000
0.633803 1.133803 0.000000
0.644366 1.144366 0.000000
0.654930 1.154930 0.000000
0.665493 1.165493 0.000000
0.676056 1.176056 0.000000
0.686620 1.186620 0.000000
0.697183 1.197183 0.000000
0.707746 1.207746 0.000000
0.718310 1.218310 0.000000
0.728873 1.228873 0.000000
0.739437 1.239437 0.000000
0.750000 1.250000 0.000000
0.760563 1.260563 0.000000
0.771127 1.271127 0.000000
0.781690 1.281690 0.000000
0.792254 1.292254 0.000000
0.802817 1.302817 0.000000
0.813380 1.313380 0.000000
0.823944 1.323944 0.000000
0.834507 1.334507 0.000000
0.845070 1.345070 0.000000
0.855634 1.355634 0.000000
0.866197 1.366197 0.000000
0.876761 1.376761 0.000000
0.887324 1.387324 0.000000
0.897887 1.397887 0.000000
0.908451 1.408451 0.000000
0.919014 1.419014 0.000000
0.929577 1.429577 0.000000
0.940141 1.440141 0.000000
0.950704 1.450704 0.000000
0.961268 1.461268 0.000000
0.971831 1.471831 0.000000
0.982394 1.482394 0.000000
0.992958 1.492958 0.000000
1.003521 1.503521 0.000000
1.014085 1.514085 0.000000
1.024648 1.524648 0.000000
1.035211 1.535211 0.000000
1.045775 1.545775 0.000000
1.056338 1.556338 0.000000
1.066901 1.566901 0.000000
1.077465 1.577465 0.000000
1.088028 1.588028 0.000000
1.098592 1.598592 0.000000
1.109155 1.609155 0.000000
1.119718 1.619718 0.000000
1.130282 1.630282 0.000000
1.140845 1.640845 0.000000
1.151408 1.651408 0.000000
1.161972 1.661972 0.000000
1.172535 1.672535 0.000000
1.183099 1.683099 0.000000
1.193662 1.693662 0.000000
1.204225 1.704225 0.000000
1.214789 1.714789 0.000000
1.225352 1.725352 0.000000
1.235915 1.735915 0.000000
1.246479 1.746479 0.000000
1.257042 1.757042 0.000000
1.267606 1.767606 0.000000
1.278169 1.778169 0.000000
1.288732 1.788732 0.000000
1.299296 1.799296 0.000000
1.309859 1.809859 0.000000
1.320423 1.820423 0.000000
1.330986 1.830986 0.000000
1.341549 1.841549 0.000000
1.352113 1.852113 0.000000
1.362676 1.862676 0.000000
1.373239 1.873239 0.000000
1.383803 1.883803 0.000000
1.394366 1.894366 0.000000
1.404930 1.904930 0.000000
1.415493 1.915493 0.000000
1.426056 1.926056 0.000000
1.436620 1.936620 0.000000
1.447183 1.947183 0.000000
1.457746 1.957746 0.000000
1.468310 1.968310 0.000000
1.478873 1.978873 0.000000
1.489437 1.989437 0.000000
1.510417 2.010417 0.000000
1.520833 2.020833 0.000000
1.531250 2.031250 0.000000
1.541667 2.041667 0.000000
1.552083 2.052083 0.000000
1.562500 2.062500 0.000000
1.572917 2.072917 0.000000
1.583333 2.083333 0.000000
1.593750 2.093750 0.000000
1.604167 2.104167 0.000000
1.614583 2.114583 0.000000
1.625000 2.125000 0.000000
1.635417 2.135417 0.000000
1.645833 2.145833 0.000000
1.656250 2.156250 0.000000
1.666667 2.166667 0.000000
1.677083 2.177083 0.000000
1.687500 2.187500 0.000000
1.697917 2.197917 0.000000
1.708333 2.208333 0.000000
1.718750 2.218750 0.000000
1.729167 2.229167 0.000000
1.739583 2.239583 0.000000
1.750000 2.250000 0.000000
1.760417 2.260417 0.000000
1.770833 2.270833 0.000000
1.781250 2.281250 0.000000
1.791667 2.291667 0.000000
1.802083 2.302083 0.000000
1.812500 2.312500 0.000000
1.822917 2.322917 0.000000
1.833333 2.333333 0.000000
1.843750 2.343750 0.000000
1.854167 2.354167 0.000000
1.864583 2.364583 0.000000
1.875000 2.375000 0.000000
1.885417 2.385417 0.000000
1.895833 2.395833 0.000000
1.906250 2.406250 0.000000
1.916667 2.416667 0.000000
1.927083 2.427083 0.000000
1.937500 2.437500 0.000000
1.947917 2.447917 0.000000
1.958333 2.458333 0.000000
1.968750 2.468750 0.000000
1.979167 2.479167 0.000000
1.989583 2.489583 0.000000
0.206561 0.791563 0.000000
0.205359 0.816165 0.000000
0.186354 0.798211 0.000000
0.221961 0.800924 0.000000
0.280649 1.360489 0.000000
0.304015 1.400469 0.000000
0.229142 1.396096 0.000000
0.275922 1.451476 0.000000
1.869084 2.391788 0.000000
1.857928 2.378421 0.000000
1.238669 2.061899 0.000000
1.278787 2.082276 0.000000
1.238298 2.096047 0.000000
1.277579 2.032995 0.000000
0.402536 1.205823 0.000000
0.415290 1.176040 0.000000
0.428330 1.201952 0.000000
0.387294 1.172617 0.000000
0.146930 1.050586 0.000000
0.109488 1.087198 0.000000
0.102742 1.042403 0.000000
0.157178 1.091184 0.000000
0.588967 1.178581 0.000000
0.593116 1.153718 0.000000
0.608054 1.166752 0.000000
0.612180 1.145944 0.000000
0.860304 1.543784 0.000000
0.868821 1.521840 0.000000
0.878420 1.536650 0.000000
0.845380 1.517623 0.000000
1.129525 1.764330 0.000000
1.142005 1.751560 0.000000
1.145757 1.773681 0.000000
1.159368 1.759106 0.000000
1.968150 2.518865 0.000000
1.986105 2.509269 0.000000
1.986696 2.531115 0.000000
0.668964 1.191005 0.000000
0.683291 1.201259 0.000000
0.557625 1.074830 0.000000
0.569760 1.084377 0.000000
0.557769 1.089278 0.000000
0.707567 1.266174 0.000000
0.719026 1.281845 0.000000
0.700768 1.282275 0.000000
0.722329 1.266956 0.000000
0.468225 2.149688 0.000000
0.419106 2.064198 0.000000
0.523878 2.082648 0.000000
0.838546 1.421191 0.000000
0.823708 1.410355 0.000000
0.840477 1.404206 0.000000
0.818500 1.425973 0.000000
0.953187 1.488222 0.000000
0.959780 1.473222 0.000000
0.967054 1.485637 0.000000
1.047418 1.769126 0.000000
1.080240 1.782403 0.000000
1.047768 1.802712 0.000000
0.971392 1.693320 0.000000
0.949208 1.720793 0.000000
0.940644 1.684781 0.000000
0.381391 2.160909 0.000000
0.944091 1.477800 0.000000
0.530075 1.477351 0.000000
0.521303 1.516669 0.000000
0.474240 1.491166 0.000000
0.489489 1.546185 0.000000
1.537370 2.239326 0.000000
1.555275 2.267640 0.000000
1.532966 2.278201 0.000000
0.962010 1.661716 0.000000
0.986804 1.643200 0.000000
0.986259 1.672729 0.000000
1.049149 1.737940 0.000000
1.075111 1.737123 0.000000
[...]
POINT_DATA 3011
SCALARS UX float 1
LOOKUP_TABLE default
-0.000000
0.000000
-0.335750
-0.456661
-0.231593
-0.267556
-0.214105
-0.000000
-0.000000
-0.000000
-0.000000
0.000000
-0.000000
0.033380
0.050054
0.062681
0.072750
0.081822
0.089252
0.094745
0.098683
0.100867
0.101253
0.099411
0.095999
0.090632
0.083995
0.077385
0.072117
0.069187
0.065457
0.059712
0.064529
0.069825
0.070793
0.022846
-0.070582
-0.107848
-0.171555
-0.245892
-0.257119
-0.269131
-0.276227
-0.284154
-0.290123
-0.295058
-0.300235
-0.305084
-0.309785
-0.314781
-0.319648
-0.324314
-0.328814
-0.333309
-0.358296
-0.378557
-0.396650
-0.413022
-0.428389
-0.442699
-0.454254
-0.449853
-0.442713
-0.434574
-0.426211
-0.418673
-0.412661
-0.408440
-0.406197
-0.405435
-0.405509
-0.405762
-0.406171
-0.406573
-0.407033
-0.407838
-0.409147
-0.410732
-0.412121
-0.412916
-0.411726
-0.408494
-0.403462
-0.397223
-0.390506
-0.383901
-0.377420
-0.371094
-0.362030
-0.347910
-0.333769
-0.215807
-0.434367
-0.558189
-0.189190
-0.164997
-0.082044
-0.059617
-0.047384
-0.040954
-0.032976
-0.025037
-0.016708
-0.135427
-0.127280
-0.221075
-0.278612
-0.138100
-0.125212
-0.210461
-0.211411
-0.220173
-0.208451
-0.201951
-0.182213
-0.161979
-0.151984
-0.207674
-0.212262
-0.306108
-0.253219
-0.265253
-0.213022
-0.203872
-0.199909
-0.174570
-0.158144
-0.132307
-0.098915
-0.084963
-0.110596
-0.110075
-0.113017
-0.121533
-0.160094
-0.080977
-0.024776
0.071232
0.044704
0.076795
-0.015931
-0.304383
-0.292603
-0.286087
-0.308524
-0.302156
-0.171753
-0.196660
-0.208944
-0.098078
-0.051707
-0.183060
-0.230475
-0.260239
-0.298204
-0.266489
-0.234287
-0.176475
-0.061251
-0.062682
-0.014539
-0.012174
-0.011055
-0.008199
-0.031341
-0.037308
-0.020090
-0.015967
-0.019067
-0.022756
0.021728
-0.361750
-0.335750
-0.333442
-0.279851
-0.344399
-0.350851
-0.278799
-0.275116
-0.260276
-0.252428
-0.240850
-0.238287
-0.187670
-0.169641
-0.357305
-0.322039
-0.327417
-0.248258
-0.222084
-0.191878
-0.165538
-0.223358
-0.153245
-0.158074
-0.139775
-0.117041
-0.098651
-0.093247
-0.096719
-0.063685
-0.082053
-0.176736
-0.156223
-0.132052
-0.099961
-0.094959
-0.084982
-0.058534
-0.047799
-0.098546
-0.112535
-0.057528
-0.106110
-0.067023
-0.014247
-0.128474
-0.280434
-0.265483
-0.193491
-0.326276
-0.281736
-0.463093
-0.304662
-0.217556
-0.215364
-0.204426
-0.210066
-0.207347
-0.226146
-0.364575
-0.256621
-0.148219
-0.170501
-0.212569
-0.218233
-0.233771
-0.224241
-0.221371
-0.231088
-0.245055
-0.253840
-0.266212
-0.197284
-0.276739
-0.292779
-0.244269
-0.255345
-0.278173
-0.253818
-0.257699
-0.261468
-0.264827
-0.258260
-0.247283
-0.241160
-0.296124
-0.317456
-0.186156
-0.153412
-0.167052
-0.186088
-0.215695
-0.210670
-0.242658
-0.222839
-0.236698
-0.243182
-0.231216
-0.218519
-0.186388
-0.175251
-0.184907
-0.202341
-0.205606
-0.225672
-0.243308
-0.251830
-0.241502
-0.226745
-0.223099
-0.213068
-0.195541
-0.207635
-0.193455
-0.164798
-0.226069
-0.218607
-0.208096
-0.217947
-0.214973
-0.369376
-0.377476
-0.377295
-0.365497
-0.392345
-0.391433
-0.394976
-0.392832
-0.256105
-0.258790
-0.318679
-0.315770
-0.319899
-0.314037
-0.384253
-0.382939
-0.382812
-0.384594
-0.405050
-0.406933
-0.407901
-0.403432
-0.369855
-0.364840
-0.365635
-0.359324
-0.362369
-0.360461
-0.359155
-0.364841
-0.328866
-0.326964
-0.326067
-0.322979
-0.260761
-0.248212
-0.260428
-0.027569
-0.020947
-0.284659
-0.251295
-0.299103
-0.316065
-0.355039
-0.362798
-0.095592
-0.380066
-0.382160
-0.375747
-0.383992
-0.377511
-0.379627
-0.380733
-0.290948
-0.223706
-0.240998
-0.336183
-0.333428
-0.336268
-0.340828
-0.343682
-0.346479
-0.385390
-0.292039
-0.385616
-0.386216
-0.386677
-0.386699
-0.301597
-0.302190
-0.305668
-0.344073
-0.339966
-0.339302
-0.335629
-0.333260
-0.334503
-0.298133
-0.333731
-0.268576
-0.143438
-0.137925
-0.258930
-0.315075
-0.311432
-0.314346
-0.308728
-0.313230
-0.311202
-0.384480
-0.383268
-0.384171
-0.387342
-0.386002
-0.386232
-0.382146
-0.383513
-0.390780
-0.388661
-0.391066
-0.388839
-0.345765
-0.346712
-0.342862
-0.352194
-0.386661
-0.387582
-0.384958
-0.299396
-0.298134
-0.301700
-0.389825
-0.397085
-0.400802
-0.400463
-0.384781
-0.384198
-0.384011
-0.383362
-0.404336
-0.397035
-0.394380
-0.400081
-0.284843
-0.278280
-0.276358
-0.346578
-0.342592
-0.342199
-0.383571
-0.381908
-0.336962
-0.372377
-0.371015
-0.374516
-0.369860
-0.293763
-0.298703
-0.297257
-0.365850
-0.365529
-0.368319
-0.293967
-0.328298
-0.341292
-0.291778
-0.376534
-0.375401
-0.373405
-0.408537
-0.406826
-0.373401
-0.355172
-0.357440
-0.350907
-0.409875
-0.352797
-0.335970
-0.332306
-0.403428
-0.401266
-0.400197
-0.322861
-0.216334
-0.236085
-0.339074
-0.365965
-0.282625
-0.270566
-0.282344
-0.320282
-0.322960
-0.322896
-0.327852
-0.326103
-0.328806
-0.306760
-0.314515
-0.313347
-0.330293
-0.370683
-0.376886
-0.376401
-0.368374
-0.371665
-0.375369
-0.349476
-0.366076
-0.395557
-0.398489
-0.400513
-0.362896
-0.371363
-0.282894
-0.322452
-0.247372
-0.269911
-0.266938
-0.380260
-0.385016
-0.190469
-0.231877
-0.302174
-0.302576
-0.307783
-0.336222
-0.359230
-0.302794
-0.329538
-0.326541
-0.325607
-0.333368
-0.252712
-0.252800
-0.296395
-0.319133
-0.322418
-0.320924
-0.227939
-0.245447
-0.252083
-0.347985
-0.346828
-0.358144
-0.358237
-0.280053
-0.275456
-0.285364
-0.352290
-0.370489
-0.374099
-0.377037
-0.376458
-0.311487
-0.296554
-0.298529
-0.292892
-0.315077
-0.316474
-0.311946
-0.318848
-0.309000
-0.307475
-0.304540
-0.256214
-0.241970
-0.354865
-0.347555
-0.352135
-0.349701
-0.395833
-0.378520
-0.373729
-0.345281
-0.311629
-0.312155
-0.309402
-0.277727
-0.249397
-0.283393
-0.285348
-0.283451
-0.288932
-0.247652
-0.233690
-0.379556
-0.383958
-0.383115
-0.375639
-0.378563
-0.374009
-0.377754
-0.371759
-0.369500
-0.361491
-0.349286
-0.352291
-0.342799
-0.354792
-0.317447
-0.336860
-0.295794
-0.328465
-0.351458
-0.367541
-0.380497
-0.371852
-0.372324
-0.369214
-0.361901
-0.276764
-0.284524
-0.281161
-0.288244
-0.325337
-0.322432
-0.356783
-0.359500
-0.356414
-0.128932
-0.150563
-0.229115
-0.318394
-0.335981
-0.295330
-0.325736
-0.324778
-0.332956
-0.307647
-0.342344
-0.254507
-0.271673
0.084595
-0.314473
-0.374999
-0.310088
-0.321808
-0.323702
-0.311275
-0.315598
-0.319977
-0.297598
-0.329540
-0.320998
-0.328163
-0.307167
-0.309923
-0.290649
-0.291279
-0.297004
-0.293789
-0.288282
-0.296955
-0.301775
-0.307077
-0.409016
-0.409969
-0.411047
-0.406444
-0.377797
-0.373607
-0.368265
-0.408265
-0.412354
-0.422435
-0.273733
-0.381346
-0.382553
-0.384521
-0.385362
-0.331149
-0.326230
-0.326848
-0.321861
-0.366035
-0.361935
-0.360863
-0.358016
-0.274511
-0.265160
-0.261392
-0.247592
-0.289711
-0.292204
-0.399142
-0.402145
-0.403046
-0.360395
-0.362439
-0.354563
-0.367517
-0.404577
-0.404019
-0.334877
-0.336407
-0.333384
-0.305346
-0.309557
-0.379146
-0.380222
-0.380099
-0.380913
-0.381620
-0.362916
-0.362158
-0.365532
-0.363492
-0.379713
-0.383964
-0.382520
-0.377855
-0.376440
-0.371791
-0.399041
-0.395006
-0.396368
-0.399979
-0.401819
-0.349341
-0.348458
-0.333535
-0.281408
-0.340198
-0.384592
-0.371562
-0.384179
-0.392119
-0.386824
-0.355687
-0.353759
-0.354264
-0.325263
-0.435299
-0.430954
-0.426217
-0.445046
-0.435588
-0.293975
-0.289941
-0.288357
-0.298896
-0.296339
-0.288585
-0.390659
-0.391836
-0.393688
-0.396060
-0.393005
-0.393063
-0.397132
-0.313037
-0.306023
-0.312336
-0.318149
-0.337083
-0.337949
-0.377807
-0.375147
-0.378463
-0.374475
-0.235680
-0.312736
-0.208745
-0.383825
-0.326285
-0.103094
-0.269810
-0.277067
-0.280662
-0.268437
-0.384928
-0.382650
-0.334082
-0.333745
-0.338975
-0.339908
-0.336740
-0.366432
-0.376984
-0.369591
-0.383083
-0.380759
-0.378882
-0.380110
-0.359780
-0.366859
-0.365336
-0.359478
-0.291451
-0.345148
-0.395586
-0.396294
-0.399569
-0.275621
-0.116645
-0.397240
-0.289146
-0.287037
-0.282835
-0.374628
-0.371462
-0.376848
-0.401230
-0.371217
-0.344421
-0.261701
-0.245201
-0.262401
-0.246467
-0.255335
-0.322911
-0.317632
-0.397156
-0.397373
-0.394641
-0.272508
-0.322396
-0.317897
-0.318793
-0.381352
-0.381612
-0.381466
-0.383561
-0.379269
-0.379073
-0.383772
-0.382173
-0.403078
-0.402524
-0.397955
-0.392699
-0.397289
-0.391418
-0.375807
-0.283029
-0.379222
-0.291346
-0.284988
-0.245533
-0.255487
-0.296230
-0.303492
-0.357944
-0.366415
-0.357392
-0.242775
-0.328418
-0.292084
-0.288970
-0.295615
-0.392188
-0.392113
-0.379034
-0.368056
-0.360284
-0.364489
-0.356951
-0.360148
-0.381705
-0.384083
-0.387655
-0.384405
-0.311506
-0.315679
-0.377445
-0.358628
-0.368882
-0.349890
-0.383031
-0.384415
-0.384957
-0.385607
-0.386082
-0.388886
-0.387206
-0.387860
-0.389464
-0.237052
-0.249449
-0.290868
-0.288376
-0.386303
-0.385746
-0.388342
-0.389367
-0.391338
-0.278542
-0.268727
-0.277810
-0.381469
-0.382948
-0.383648
-0.386100
-0.379168
-0.379460
-0.337926
-0.343855
-0.340574
-0.336425
-0.232210
-0.352549
-0.311802
-0.319952
-0.309243
-0.156117
-0.256103
-0.273326
-0.272759
-0.281618
-0.352100
-0.351776
-0.346998
-0.347208
-0.342864
-0.341847
-0.303166
-0.298185
-0.282224
-0.281866
-0.342946
-0.338895
-0.285111
-0.281925
-0.238061
-0.382186
-0.386916
-0.298421
-0.231464
-0.149090
-0.323391
-0.358080
-0.319921
-0.248638
-0.371059
-0.315969
-0.330546
-0.334507
-0.233989
-0.257541
-0.271633
-0.373099
-0.398296
-0.399415
-0.403064
-0.329981
-0.332859
-0.334604
-0.331645
-0.281419
-0.402387
-0.401848
-0.399081
-0.394434
-0.320275
-0.319843
-0.324327
-0.324186
-0.257369
-0.384096
-0.379005
-0.376306
-0.359568
-0.373865
-0.394411
-0.395894
-0.388512
-0.399493
-0.404380
-0.283598
-0.326076
-0.352912
-0.358631
-0.361176
-0.350020
-0.363282
-0.369696
-0.339408
-0.296555
-0.374859
-0.235940
-0.338822
-0.356806
-0.356618
-0.374656
-0.374269
-0.367622
-0.386150
-0.385789
-0.399097
-0.387039
-0.397121
-0.388325
-0.378816
-0.281716
-0.329557
-0.323597
-0.376019
-0.379596
-0.375542
-0.393700
-0.393843
-0.397089
-0.357333
-0.353311
-0.371799
-0.372271
-0.370856
-0.369414
-0.365963
-0.364051
-0.360467
-0.337614
-0.342469
-0.334290
-0.351264
-0.358221
-0.354364
-0.342857
-0.332252
-0.347217
-0.348548
-0.354141
-0.354701
-0.422138
-0.412421
-0.417582
-0.407794
-0.344364
-0.346722
-0.351631
-0.381329
-0.244943
-0.390434
-0.391784
-0.394706
-0.393271
-0.380885
-0.382658
-0.379380
-0.385574
-0.384574
-0.408521
-0.389103
-0.387936
-0.407222
-0.233198
-0.244845
-0.416157
-0.396858
-0.206816
-0.299908
-0.391234
-0.395948
-0.390099
-0.332742
-0.396232
-0.393532
-0.406579
-0.391354
-0.380004
-0.276297
-0.396340
-0.384719
-0.401387
-0.386040
-0.349096
-0.357813
-0.255434
-0.037629
-0.212285
-0.270609
-0.171862
-0.301143
-0.307694
-0.303941
-0.264656
-0.274172
-0.262731
-0.239295
-0.332317
-0.362845
-0.363581
-0.223330
-0.346402
-0.354806
-0.357879
-0.366918
-0.386872
-0.387422
-0.383167
-0.383499
-0.383723
-0.380774
-0.319265
-0.368411
-0.403663
-0.378111
-0.379528
-0.378524
-0.349999
-0.376282
-0.372587
-0.377000
-0.397318
-0.391105
-0.388171
-0.386809
-0.383208
-0.411263
-0.383960
-0.385248
-0.384458
-0.337421
-0.326909
-0.333642
-0.391527
-0.385663
-0.385083
-0.383522
-0.403209
-0.399043
-0.374302
-0.380602
-0.385916
-0.345508
-0.387494
-0.393424
-0.384317
-0.385424
-0.405062
-0.399609
-0.375845
-0.371065
-0.377280
-0.332327
-0.272788
-0.281204
-0.401648
-0.403530
-0.359799
-0.404467
-0.394847
-0.391815
-0.354895
-0.323660
-0.347828
-0.296305
-0.302588
-0.307292
-0.390941
-0.382016
-0.402090
-0.399906
-0.385296
-0.387319
-0.388047
-0.319080
-0.350494
-0.352080
-0.349319
-0.166976
-0.314470
-0.385935
-0.379682
-0.378472
-0.375626
-0.402718
-0.401260
-0.381375
-0.390368
-0.276170
-0.257192
-0.371173
-0.372289
-0.374264
-0.279387
-0.367581
-0.363791
-0.287258
-0.296061
-0.309794
-0.344572
-0.350157
-0.386768
-0.390413
-0.335901
-0.333447
-0.378501
-0.371497
-0.376450
-0.381645
-0.376162
-0.381813
-0.376913
-0.312248
-0.314925
-0.335045
-0.328749
-0.388948
-0.400077
-0.396880
-0.382517
-0.380929
-0.380656
-0.430115
-0.380176
-0.393044
-0.372746
-0.374189
-0.382605
-0.391010
-0.389803
-0.304849
-0.377610
-0.378486
-0.381005
-0.339826
-0.303558
-0.386434
-0.383933
-0.377334
-0.371266
-0.389373
-0.402626
-0.370284
-0.269880
-0.400171
-0.376981
-0.376583
-0.381896
-0.388736
-0.389798
-0.373597
-0.376335
-0.378578
-0.339364
-0.374737
-0.384728
-0.381588
-0.346526
-0.357571
-0.367441
-0.354891
-0.339503
-0.328199
-0.329259
-0.328148
-0.339241
-0.373970
-0.385700
-0.384827
-0.388106
-0.387771
-0.232010
-0.225216
-0.239644
-0.383698
-0.382085
-0.265624
-0.374233
-0.375246
-0.372985
-0.376851
-0.333024
-0.245256
-0.243300
-0.337133
-0.242601
-0.338230
-0.326741
-0.323983
-0.271937
-0.259017
-0.379617
-0.375379
-0.379823
-0.375194
-0.307412
-0.310222
-0.367670
-0.339894
-0.342061
-0.377278
-0.343417
-0.280330
-0.230725
-0.340437
-0.274590
-0.266745
-0.380402
-0.344014
-0.342049
-0.344310
-0.340708
-0.271183
-0.239564
-0.291382
-0.308154
-0.200950
-0.319387
-0.302927
-0.311001
-0.309069
-0.315184
-0.309752
-0.317404
-0.320399
-0.358887
-0.342581
-0.368594
-0.387939
-0.390100
-0.391244
-0.350965
-0.354680
-0.380289
-0.395970
-0.382842
-0.386420
-0.377518
-0.299151
-0.340836
-0.325882
-0.391786
-0.378622
-0.385027
-0.403539
-0.250813
-0.363501
-0.396676
-0.400292
-0.393927
-0.357107
-0.362906
-0.337801
-0.355832
-0.360638
-0.361153
-0.365867
-0.371282
-0.378354
-0.379028
-0.370351
-0.373251
-0.376261
-0.392743
-0.437091
-0.296036
-0.319025
-0.213096
-0.370032
-0.381750
-0.382910
-0.383598
-0.338128
-0.348026
-0.353998
-0.356903
-0.359592
-0.357556
-0.293682
-0.281432
-0.359979
-0.193570
-0.031003
-0.328296
-0.347215
-0.336846
-0.373712
-0.323713
-0.322472
-0.380954
-0.371473
-0.366567
-0.370120
-0.261129
-0.326505
-0.320426
-0.324728
-0.387603
-0.389802
-0.309551
-0.380472
-0.383441
-0.375421
-0.321790
-0.284860
-0.288989
-0.284981
-0.354151
-0.390434
-0.370688
0.003167
-0.327117
-0.332958
-0.329272
-0.292327
-0.289460
-0.293338
-0.295886
-0.291984
-0.323596
-0.281813
-0.290752
-0.310714
-0.358917
-0.358199
-0.353450
-0.336050
-0.324818
-0.310674
-0.315058
-0.365838
-0.370424
-0.372007
-0.386689
-0.383521
-0.382430
-0.382560
-0.383096
-0.260417
-0.268947
-0.370309
-0.361940
-0.398637
-0.328138
-0.305603
-0.303401
-0.303659
-0.311369
-0.314438
-0.302136
-0.390646
-0.265278
-0.237380
-0.359656
-0.359403
-0.382361
-0.446215
-0.380970
-0.339461
-0.348697
-0.341242
-0.348473
-0.339380
-0.307895
-0.333571
-0.353231
-0.315052
-0.369308
-0.367928
-0.339571
-0.366615
-0.306466
-0.308465
-0.278091
-0.273634
-0.265622
-0.374774
-0.346799
-0.154695
-0.271083
-0.345741
-0.309640
-0.330133
-0.284028
-0.392543
-0.305100
-0.377213
-0.335879
-0.381176
-0.382401
-0.387142
-0.328478
-0.330076
-0.334366
-0.321384
-0.315511
-0.306004
-0.313781
-0.366007
-0.317158
-0.345175
-0.369818
-0.310958
-0.307391
-0.362444
-0.283681
-0.372636
-0.371787
-0.367530
-0.367983
-0.378298
-0.376393
-0.379735
-0.377360
-0.365141
-0.334191
-0.327256
-0.344631
-0.313608
-0.306951
-0.256715
-0.409399
-0.321337
-0.269912
-0.248268
-0.170416
-0.262846
-0.346023
-0.319764
-0.309733
-0.325567
-0.322369
-0.324765
-0.330190
-0.332991
-0.294036
-0.289405
-0.292821
-0.288782
-0.404792
-0.406152
-0.330019
-0.330725
-0.333370
-0.328205
-0.384884
-0.313673
-0.308951
-0.312302
-0.342580
-0.339389
-0.347119
-0.352239
-0.309228
-0.312272
-0.309400
-0.344491
-0.350683
-0.329520
-0.332682
-0.333697
-0.351236
-0.304370
-0.288308
-0.284587
-0.345934
-0.337490
-0.339576
-0.292567
-0.295042
-0.291411
-0.294202
-0.366273
-0.321685
-0.288692
-0.379421
-0.377747
-0.380064
-0.301404
-0.298311
-0.298603
-0.381036
-0.356458
-0.300006
-0.369947
-0.371934
-0.372943
-0.297167
-0.304308
-0.332512
-0.334479
-0.362367
-0.413737
-0.365408
-0.288137
-0.266899
-0.286608
-0.339822
-0.318185
-0.366746
-0.328336
-0.381859
-0.378491
-0.380093
-0.294067
-0.298089
-0.358279
-0.372167
-0.368842
-0.326056
-0.270447
-0.332769
-0.307678
-0.372886
-0.346715
-0.369008
-0.360102
-0.340536
-0.304112
-0.369756
-0.353234
-0.363040
-0.364695
-0.236101
-0.378206
-0.393525
-0.262399
-0.273823
-0.274242
-0.296513
-0.286895
-0.288838
-0.269793
-0.315696
-0.314160
-0.329660
-0.330560
-0.330666
-0.297683
-0.254112
-0.266386
-0.313855
-0.321671
-0.322719
-0.376847
-0.376927
-0.349734
-0.292320
-0.356490
-0.324532
-0.361460
-0.303255
-0.318946
-0.310062
-0.279944
-0.244441
-0.219117
-0.230895
-0.277121
-0.279102
-0.261024
-0.287144
-0.314678
-0.301279
-0.295154
-0.232501
-0.287694
-0.249697
-0.275815
-0.289160
-0.303265
-0.364802
-0.366268
-0.367497
-0.354775
-0.360650
-0.238978
-0.212892
-0.305723
-0.279037
-0.254195
-0.306056
-0.265950
-0.240073
-0.293371
-0.292935
-0.326921
-0.328726
-0.293244
-0.281086
-0.285673
-0.240597
-0.243825
-0.264629
-0.373994
-0.287828
-0.278180
-0.288485
-0.241585
-0.288014
-0.217757
-0.232772
-0.304984
-0.357476
-0.360225
-0.297358
-0.291304
-0.363932
-0.250528
-0.318009
-0.312679
-0.333398
-0.285167
-0.352870
-0.329744
-0.344384
-0.292730
-0.367681
-0.367926
-0.416999
-0.337242
-0.365856
-0.362714
-0.366364
-0.226614
-0.380758
-0.324348
-0.319272
-0.358171
-0.350790
-0.177813
-0.245507
-0.270987
-0.330250
-0.264274
-0.311183
-0.175870
-0.167811
-0.365863
-0.304649
-0.281508
-0.305531
-0.307978
-0.260294
-0.244173
-0.272137
-0.266260
-0.284567
-0.278476
-0.260898
-0.266986
-0.260504
-0.352848
-0.245694
-0.299796
-0.294523
-0.296870
-0.293864
-0.187092
-0.256020
-0.373717
-0.364700
-0.378152
-0.382932
-0.360915
-0.363459
-0.323672
-0.325493
-0.326853
-0.307917
-0.364138
-0.360757
-0.368015
-0.288713
-0.294904
-0.317676
-0.310385
-0.313618
-0.321165
-0.383899
-0.368544
-0.373166
-0.277984
-0.315836
-0.318466
-0.317403
-0.280950
-0.273325
-0.283137
-0.386992
-0.323669
-0.297996
-0.359583
-0.357946
-0.365519
-0.097336
-0.292812
-0.377294
-0.389866
-0.360391
-0.174058
-0.224927
-0.366571
-0.347846
-0.323677
-0.375557
-0.377150
-0.369188
-0.324225
-0.306555
-0.348202
-0.373764
-0.378128
-0.348386
-0.346983
-0.318617
-0.309852
-0.343627
-0.328857
-0.304878
-0.089530
-0.367723
-0.166839
-0.121836
-0.238464
-0.368208
-0.300439
-0.331772
-0.323823
-0.344151
-0.380930
-0.353747
-0.343112
-0.357745
-0.023851
-0.354631
-0.386325
-0.384003
-0.401183
-0.292028
-0.284999
-0.299911
-0.306051
-0.390783
-0.389880
-0.394014
-0.404444
-0.296954
-0.209799
-0.338196
-0.374091
-0.290893
-0.371333
-0.293635
-0.300333
-0.360190
-0.265916
-0.327595
-0.298588
-0.299665
-0.121209
-0.257167
-0.366603
-0.340806
-0.296727
-0.297316
-0.263350
-0.244102
-0.274452
-0.264903
-0.369200
-0.339778
-0.341888
-0.268329
-0.392137
-0.272331
-0.351223
-0.296092
-0.368599
-0.294244
-0.279324
-0.319274
-0.298305
-0.290036
-0.364422
-0.286352
-0.252491
-0.361964
-0.320203
-0.344365
-0.370615
-0.324506
-0.348591
-0.350415
-0.346191
-0.394912
-0.057314
-0.318069
-0.296219
-0.300198
-0.324713
-0.319518
-0.316235
-0.330353
-0.311059
-0.358597
-0.301576
-0.304076
-0.279759
-0.278655
-0.297400
-0.245820
-0.187426
-0.169510
-0.260630
-0.313523
-0.356294
-0.232375
-0.284443
-0.310578
-0.312713
-0.246513
-0.300920
-0.279290
-0.281348
-0.423701
-0.286928
-0.374479
-0.300903
-0.260321
-0.278676
-0.373207
-0.289876
-0.331069
-0.353761
-0.328120
-0.259406
-0.423092
-0.332419
-0.331480
-0.317268
-0.306808
-0.307703
-0.304095
-0.305263
-0.353531
-0.293352
-0.244746
-0.300741
-0.256156
-0.349208
-0.250742
-0.350671
-0.313140
-0.302871
-0.360763
-0.242921
-0.308740
-0.303668
-0.318197
-0.302077
-0.361648
-0.330182
-0.330365
-0.273241
-0.258409
-0.353863
-0.274676
-0.281289
-0.286699
-0.318623
-0.304794
-0.308513
-0.376025
-0.373582
-0.296063
-0.310185
-0.290802
-0.286747
-0.292464
-0.361196
-0.308343
-0.314466
-0.027940
-0.019764
-0.025403
-0.036611
-0.026475
-0.024490
-0.004510
-0.004274
-0.006502
0.083668
0.078124
0.081895
0.037445
0.029590
0.043885
0.074629
0.088180
-0.002544
-0.003348
-0.006464
0.038485
0.044250
0.049258
-0.012046
-0.015877
-0.011480
0.062287
0.062828
0.067426
0.054111
-0.012185
-0.033339
-0.026826
-0.013478
-0.010157
-0.010465
-0.013683
-0.012186
-0.015292
-0.010678
0.040019
0.030901
0.038089
0.022937
-0.009939
-0.010344
-0.012049
-0.014447
-0.013543
-0.008599
-0.005277
0.041695
0.034710
0.037406
0.037536
-0.017945
-0.015716
-0.017998
0.004297
-0.025861
-0.031523
0.019565
0.010439
0.014870