# vtk DataFile Version 2.0
Test
ASCII
DATASET POLYDATA
POINTS 3011 float
0.000000 0.000000 0.000000
2.000000 0.000000 0.000000
2.000000 4.000000 0.000000
0.000000 4.000000 0.000000
0.000000 0.500000 0.000000
1.500000 2.000000 0.000000
2.000000 2.500000 0.000000
0.285714 0.000000 0.000000
0.571429 0.000000 0.000000
0.857143 0.000000 0.000000
1.142857 0.000000 0.000000
1.428571 0.000000 0.000000
1.714286 0.000000 0.000000
2.000000 0.276366 0.000000
2.000000 0.523709 0.000000
2.000000 0.745076 0.000000
2.000000 0.943195 0.000000
2.000000 1.120508 0.000000
2.000000 1.279199 0.000000
2.000000 1.421225 0.000000
2.000000 1.548336 0.000000
2.000000 1.662097 0.000000
2.000000 1.763911 0.000000
2.000000 1.855033 0.000000
2.000000 1.936585 0.000000
2.000000 2.009573 0.000000
2.000000 2.074896 0.000000
2.000000 2.133358 0.000000
2.000000 2.185681 0.000000
2.000000 2.232509 0.000000
2.000000 2.274419 0.000000
2.000000 2.311927 0.000000
2.000000 2.345497 0.000000
2.000000 2.375541 0.000000
2.000000 2.402430 0.000000
2.000000 2.426495 0.000000
2.000000 2.448033 0.000000
2.000000 2.467309 0.000000
2.000000 2.484560 0.000000
2.000000 2.516256 0.000000
2.000000 2.535859 0.000000
2.000000 2.559499 0.000000
2.000000 2.588006 0.000000
2.000000 2.622383 0.000000
2.000000 2.663839 0.000000
2.000000 2.713831 0.000000
2.000000 2.774116 0.000000
2.000000 2.846815 0.000000
2.000000 2.934483 0.000000
2.000000 3.040202 0.000000
2.000000 3.167691 0.000000
2.000000 3.321430 0.000000
2.000000 3.506825 0.000000
2.000000 3.730395 0.000000
1.714286 4.000000 0.000000
1.428571 4.000000 0.000000
1.142857 4.000000 0.000000
0.857143 4.000000 0.000000
0.571429 4.000000 0.000000
0.285714 4.000000 0.000000
0.000000 3.713462 0.000000
0.000000 3.449209 0.000000
0.000000 3.205508 0.000000
0.000000 2.980761 0.000000
0.000000 2.773493 0.000000
0.000000 2.582346 0.000000
0.000000 2.406065 0.000000
0.000000 2.243495 0.000000
0.000000 2.093568 0.000000
0.000000 1.955302 0.000000
0.000000 1.827789 0.000000
0.000000 1.710194 0.000000
0.000000 1.601745 0.000000
0.000000 1.501730 0.000000
0.000000 1.409494 0.000000
0.000000 1.324431 0.000000
0.000000 1.245984 0.000000
0.000000 1.173639 0.000000
0.000000 1.106920 0.000000
0.000000 1.045390 0.000000
0.000000 0.988645 0.000000
0.000000 0.936314 0.000000
0.000000 0.888053 0.000000
0.000000 0.843545 0.000000
0.000000 0.802499 0.000000
0.000000 0.764646 0.000000
0.000000 0.729736 0.000000
0.000000 0.697541 0.000000
0.000000 0.667851 0.000000
0.000000 0.640469 0.000000
0.000000 0.615217 0.000000
0.000000 0.591929 0.000000
0.000000 0.570453 0.000000
0.000000 0.550646 0.000000
0.000000 0.532380 0.000000
0.000000 0.515535 0.000000
0.000000 0.483768 0.000000
0.000000 0.461535 0.000000
0.000000 0.431083 0.000000
0.000000 0.389372 0.000000
0.000000 0.332241 0.000000
0.000000 0.253989 0.000000
0.000000 0.146807 0.000000
0.010563 0.510563 0.000000
0.021127 0.521127 0.000000
0.031690 0.531690 0.000000
0.042254 0.542254 0.000000
0.052817 0.552817 0.000000
0.063380 0.563380 0.000000
0.073944 0.573944 0.000000
0.084507 0.584507 0.000000
0.095070 0.595070 0.000000
0.105634 0.605634 0.000000
0.116197 0.616197 0.000000
0.126761 0.626761 0.000000
0.137324 0.637324 0.000000
0.147887 0.647887 0.000000
0.158451 0.658451 0.000000
0.169014 0.669014 0.000000
0.179577 0.679577 0.000000
0.190141 0.690141 0.000000
0.200704 0.700704 0.000000
0.211268 0.711268 0.000000
0.221831 0.721831 0.000000
0.232394 0.732394 0.000000
0.242958 0.742958 0.000000
0.253521 0.753521 0.000000
0.264085 0.764085 0.000000
0.274648 0.774648 0.000000
0.285211 0.785211 0.000000
0.295775 0.795775 0.000000
0.306338 0.806338 0.000000
0.316901 0.816901 0.000000
0.327465 0.827465 0.000000
0.338028 0.838028 0.000000
0.348592 0.848592 0.000000
0.359155 0.859155 0.000000
0.369718 0.869718 0.000000
0.380282 0.880282 0.000000
0.390845 0.890845 0.000000
0.401408 0.901408 0.000000
0.411972 0.911972 0.000000
0.422535 0.922535 0.000000
0.433099 0.933099 0.000000
0.443662 0.943662 0.000000
0.454225 0.954225 0.000000
0.464789 0.964789 0.000000
0.475352 0.975352 0.000000
0.485915 0.985915 0.000000
0.496479 0.996479 0.000000
0.507042 1.007042 0.000000
0.517606 1.017606 0.000000
0.528169 1.028169 0.000000
0.538732 1.038732 0.000000
0.549296 1.049296 0.000000
0.559859 1.059859 0.000000
0.570423 1.070423 0.000000
0.580986 1.080986 0.000000
0.591549 1.091549 0.000000
0.602113 1.102113 0.000000
0.612676 1.112676 0.000000
0.623239 1.123239 0.000000
0.633803 1.133803 0.000000
0.644366 1.144366 0.000000
0.654930 1.154930 0.000000
0.665493 1.165493 0.000000
0.676056 1.176056 0.000000
0.686620 1.186620 0.000000
0.697183 1.197183 0.000000
0.707746 1.207746 0.000000
0.718310 1.218310 0.000000
0.728873 1.228873 0.000000
0.739437 1.239437 0.000000
0.750000 1.250000 0.000000
0.760563 1.260563 0.000000
0.771127 1.271127 0.000000
0.781690 1.281690 0.000000
0.792254 1.292254 0.000000
0.802817 1.302817 0.000000
0.813380 1.313380 0.000000
0.823944 1.323944 0.000000
0.834507 1.334507 0.000000
0.845070 1.345070 0.000000
0.855634 1.355634 0.000000
0.866197 1.366197 0.000000
0.876761 1.376761 0.000000
0.887324 1.387324 0.000000
0.897887 1.397887 0.000000
0.908451 1.408451 0.000000
0.919014 1.419014 0.000000
0.929577 1.429577 0.000000
0.940141 1.440141 0.000000
0.950704 1.450704 0.000000
0.961268 1.461268 0.000000
0.971831 1.471831 0.000000
0.982394 1.482394 0.000000
0.992958 1.492958 0.000000
1.003521 1.503521 0.000000
1.014085 1.514085 0.000000
1.024648 1.524648 0.000000
1.035211 1.535211 0.000000
1.045775 1.545775 0.000000
1.056338 1.556338 0.000000
1.066901 1.566901 0.000000
1.077465 1.577465 0.000000
1.088028 1.588028 0.000000
1.098592 1.598592 0.000000
1.109155 1.609155 0.000000
1.119718 1.619718 0.000000
1.130282 1.630282 0.000000
1.140845 1.640845 0.000000
1.151408 1.651408 0.000000
1.161972 1.661972 0.000000
1.172535 1.672535 0.000000
1.183099 1.683099 0.000000
1.193662 1.693662 0.000000
1.204225 1.704225 0.000000
1.214789 1.714789 0.000000
1.225352 1.725352 0.000000
1.235915 1.735915 0.000000
1.246479 1.746479 0.000000
1.257042 1.757042 0.000000
1.267606 1.767606 0.000000
1.278169 1.778169 0.000000
1.288732 1.788732 0.000000
1.299296 1.799296 0.000000
1.309859 1.809859 0.000000
1.320423 1.820423 0.000000
1.330986 1.830986 0.000000
1.341549 1.841549 0.000000
1.352113 1.852113 0.000000
1.362676 1.862676 0.000000
1.373239 1.873239 0.000000
1.383803 1.883803 0.000000
1.394366 1.894366 0.000000
1.404930 1.904930 0.000000
1.415493 1.915493 0.000000
1.426056 1.926056 0.000000
1.436620 1.936620 0.000000
1.447183 1.947183 0.000000
1.457746 1.957746 0.000000
1.468310 1.968310 0.000000
1.478873 1.978873 0.000000
1.489437 1.989437 0.000000
1.510417 2.010417 0.000000
1.520833 2.020833 0.000000
1.531250 2.031250 0.000000
1.541667 2.041667 0.000000
1.552083 2.052083 0.000000
1.562500 2.062500 0.000000
1.572917 2.072917 0.000000
1.583333 2.083333 0.000000
1.593750 2.093750 0.000000
1.604167 2.104167 0.000000
1.614583 2.114583 0.000000
1.625000 2.125000 0.000000
1.635417 2.135417 0.000000
1.645833 2.145833 0.000000
1.656250 2.156250 0.000000
1.666667 2.166667 0.000000
1.677083 2.177083 0.000000
1.687500 2.187500 0.000000
1.697917 2.197917 0.000000
1.708333 2.208333 0.000000
1.718750 2.218750 0.000000
1.729167 2.229167 0.000000
1.739583 2.239583 0.000000
1.750000 2.250000 0.000000
1.760417 2.260417 0.000000
1.770833 2.270833 0.000000
1.781250 2.281250 0.000000
1.791667 2.291667 0.000000
1.802083 2.302083 0.000000
1.812500 2.312500 0.000000
1.822917 2.322917 0.000000
1.833333 2.333333 0.000000
1.843750 2.343750 0.000000
1.854167 2.354167 0.000000
1.864583 2.364583 0.000000
1.875000 2.375000 0.000000
1.885417 2.385417 0.000000
1.895833 2.395833 0.000000
1.906250 2.406250 0.000000
1.916667 2.416667 0.000000
1.927083 2.427083 0.000000
1.937500 2.437500 0.000000
1.947917 2.447917 0.000000
1.958333 2.458333 0.000000
1.968750 2.468750 0.000000
1.979167 2.479167 0.000000
1.989583 2.489583 0.000000
0.206561 0.791563 0.000000
0.205359 0.816165 0.000000
0.186354 0.798211 0.000000
0.221961 0.800924 0.000000
0.280649 1.360489 0.000000
0.304015 1.400469 0.000000
0.229142 1.396096 0.000000
0.275922 1.451476 0.000000
1.869084 2.391788 0.000000
1.857928 2.378421 0.000000
1.238669 2.061899 0.000000
1.278787 2.082276 0.000000
1.238298 2.096047 0.000000
1.277579 2.032995 0.000000
0.402536 1.205823 0.000000
0.415290 1.176040 0.000000
0.428330 1.201952 0.000000
0.387294 1.172617 0.000000
0.146930 1.050586 0.000000
0.109488 1.087198 0.000000
0.102742 1.042403 0.000000
0.157178 1.091184 0.000000
0.588967 1.178581 0.000000
0.593116 1.153718 0.000000
0.608054 1.166752 0.000000
0.612180 1.145944 0.000000
0.860304 1.543784 0.000000
0.868821 1.521840 0.000000
0.878420 1.536650 0.000000
0.845380 1.517623 0.000000
1.129525 1.764330 0.000000
1.142005 1.751560 0.000000
1.145757 1.773681 0.000000
1.159368 1.759106 0.000000
1.968150 2.518865 0.000000
1.986105 2.509269 0.000000
1.986696 2.531115 0.000000
0.668964 1.191005 0.000000
0.683291 1.201259 0.000000
0.557625 1.074830 0.000000
0.569760 1.084377 0.000000
0.557769 1.089278 0.000000
0.707567 1.266174 0.000000
0.719026 1.281845 0.000000
0.700768 1.282275 0.000000
0.722329 1.266956 0.000000
0.468225 2.149688 0.000000
0.419106 2.064198 0.000000
0.523878 2.082648 0.000000
0.838546 1.421191 0.000000
0.823708 1.410355 0.000000
0.840477 1.404206 0.000000
0.818500 1.425973 0.000000
0.953187 1.488222 0.000000
0.959780 1.473222 0.000000
0.967054 1.485637 0.000000
1.047418 1.769126 0.000000
1.080240 1.782403 0.000000
1.047768 1.802712 0.000000
0.971392 1.693320 0.000000
0.949208 1.720793 0.000000
0.940644 1.684781 0.000000
0.381391 2.160909 0.000000
0.944091 1.477800 0.000000
0.530075 1.477351 0.000000
0.521303 1.516669 0.000000
0.474240 1.491166 0.000000
0.489489 1.546185 0.000000
1.537370 2.239326 0.000000
1.555275 2.267640 0.000000
1.532966 2.278201 0.000000
0.962010 1.661716 0.000000
0.986804 1.643200 0.000000
0.986259 1.672729 0.000000
1.049149 1.737940 0.000000
1.075111 1.737123 0.000000
[...]
POINT_DATA 3011
SCALARS UX float 1
LOOKUP_TABLE default
-0.000000
0.000000
-0.179941
-0.198392
-0.022437
-0.170712
-0.145701
-0.000000
-0.000000
-0.000000
-0.000000
0.000000
-0.000000
0.006227
0.009383
0.011571
0.013077
0.013899
0.014037
0.013609
0.012942
0.012279
0.011610
0.011212
0.011255
0.011804
0.013179
0.015363
0.017773
0.020318
0.023803
0.028074
0.032791
0.032869
0.027570
-0.013915
-0.031952
-0.042688
-0.092074
-0.117078
-0.165252
-0.174055
-0.174524
-0.175358
-0.175815
-0.176351
-0.176877
-0.177414
-0.177880
-0.178337
-0.178743
-0.179156
-0.179562
-0.179829
-0.182968
-0.185808
-0.188441
-0.190934
-0.193404
-0.195883
-0.198261
-0.198007
-0.197668
-0.197360
-0.197158
-0.197106
-0.197192
-0.197379
-0.197471
-0.197337
-0.196779
-0.195784
-0.194375
-0.192643
-0.190779
-0.189011
-0.187430
-0.186066
-0.184868
-0.183835
-0.182808
-0.181657
-0.179837
-0.176712
-0.172352
-0.168544
-0.169132
-0.173877
-0.158995
-0.146064
-0.169010
-0.163080
0.005698
-0.067848
-0.058457
-0.060449
-0.021841
-0.018083
-0.014020
-0.010776
-0.007911
-0.005086
-0.003302
-0.021793
-0.021133
-0.022356
-0.026581
-0.030338
-0.040052
-0.024529
-0.021189
-0.040941
-0.043335
-0.082011
-0.094388
-0.105795
-0.076658
-0.113830
-0.022672
-0.023795
-0.044370
-0.065586
0.109556
0.066379
0.528061
-0.002265
0.002418
0.007265
-0.019414
0.030651
-0.008628
-0.007211
-0.007336
-0.007330
-0.007919
-0.008810
-0.008975
-0.008109
-0.005737
-0.005820
-0.006682
0.060905
-0.096617
-0.144094
-0.311699
-0.226655
-0.169933
-0.112980
-0.105025
-0.181874
-0.101930
-0.102771
-0.105560
-0.141789
-0.139333
-0.123803
-0.199162
-0.138617
-0.132582
-0.178434
-0.167542
-0.118460
-0.123139
-0.093776
-0.022360
-0.053606
-0.084236
-0.017067
-0.083268
0.002932
-0.116843
-0.111860
-0.120154
-0.122911
-0.096743
-0.069148
-0.075534
-0.072754
-0.075993
-0.083916
-0.111923
-0.141381
-0.070834
-0.088567
-0.091406
-0.120151
-0.086907
-0.031235
-0.168027
-0.184917
-0.923249
-0.025365
-0.071115
-0.065370
-0.089895
-0.102670
-0.110338
-0.091370
-0.136594
-0.119866
-0.128486
-0.111748
-0.089845
-0.062499
-0.068003
-0.075621
-0.081440
-0.242364
-0.149025
-0.111487
-0.035209
-0.086345
-0.079207
-0.070881
-0.146945
-0.144311
-0.168474
-0.185947
-0.200532
-0.294158
-0.312747
-0.617649
-0.460021
-0.157499
0.085442
-0.034950
-0.121652
-0.129847
-0.124739
-0.120766
-0.138278
-0.119556
-0.132465
-0.087772
-0.107209
-0.149798
-0.089702
-0.081072
-0.117084
-0.126556
-0.139026
-0.200871
-0.194568
-0.178127
-0.157125
-0.143151
-0.161858
-0.137766
-0.163528
-0.172363
-0.130954
-0.092350
-0.087638
-0.122931
-0.100416
-0.099247
-0.148925
-0.091998
-0.091211
-0.087535
-0.075037
-0.061967
-0.032043
-0.142982
-0.093738
-0.080709
-0.082446
-0.073102
-0.074392
-0.069253
-0.060733
-0.049236
-0.042311
-0.066823
-0.016733
-0.039071
-0.025329
-0.019364
0.005244
0.025461
-0.001923
-0.041832
-0.031621
-0.018830
-0.041712
-0.037568
-0.068706
-0.067044
-0.181576
-0.135885
-0.121480
-0.153885
-0.169763
-0.160796
-0.159600
-0.187795
-0.188687
-0.188912
-0.189976
-0.120065
-0.078338
-0.181544
-0.181319
-0.181636
-0.181438
-0.183521
-0.182863
-0.183351
-0.182874
-0.181724
-0.182973
-0.182167
-0.182505
-0.182036
-0.180794
-0.180545
-0.179901
-0.185682
-0.181680
-0.183841
-0.183248
-0.187044
-0.185866
-0.188586
-0.188580
-0.178597
-0.140524
-0.153960
-0.128797
0.037960
-0.209134
-0.149118
-0.132999
-0.156299
-0.154180
-0.179540
-0.156050
-0.192989
-0.193668
-0.192442
-0.186636
-0.197342
-0.180824
-0.202185
-0.119501
-0.095188
-0.122320
-0.187139
-0.187874
-0.188127
-0.185308
-0.186233
-0.185705
-0.193962
-0.127816
-0.191014
-0.191737
-0.190983
-0.192057
-0.176998
-0.176544
-0.177031
-0.184374
-0.182517
-0.183927
-0.185582
-0.185522
-0.186601
-0.176233
-0.183937
-0.171874
-0.135179
-0.138279
-0.167475
-0.179843
-0.179324
-0.179305
-0.178295
-0.178803
-0.178893
-0.190378
-0.189249
-0.190113
-0.192529
-0.192678
-0.192912
-0.188487
-0.192797
-0.183517
-0.183672
-0.184260
-0.182836
-0.184994
-0.185760
-0.184926
-0.186306
-0.193684
-0.193138
-0.193164
-0.177470
-0.177360
-0.177681
-0.193814
-0.184932
-0.185421
-0.184148
-0.191250
-0.190668
-0.192980
-0.193514
-0.184966
-0.195256
-0.195369
-0.196196
-0.169820
-0.138951
-0.156553
-0.186284
-0.185922
-0.185283
-0.184082
-0.183488
-0.184603
-0.190590
-0.190477
-0.191079
-0.190123
-0.177941
-0.177887
-0.178788
-0.187838
-0.189594
-0.189535
-0.176824
-0.040600
-0.154850
-0.042832
-0.183428
-0.183005
-0.183135
-0.185026
-0.186330
-0.182606
-0.188971
-0.188753
-0.188235
-0.183926
-0.187741
-0.188516
-0.188718
-0.180709
-0.181585
-0.180376
-0.169565
-0.099805
-0.178937
-0.170599
-0.177802
-0.133720
-0.119101
-0.156891
-0.181243
-0.182165
-0.182687
-0.188949
-0.188502
-0.188533
-0.166495
-0.173729
-0.177936
-0.188715
-0.181612
-0.180859
-0.180659
-0.180750
-0.182343
-0.185185
-0.186756
-0.180003
-0.175984
-0.176973
-0.178109
-0.180380
-0.181308
-0.157660
-0.176646
-0.108470
-0.142515
-0.152834
-0.194344
-0.189964
-0.136202
-0.153741
-0.175696
-0.176355
-0.176879
-0.175673
-0.182082
-0.183012
-0.181142
-0.181136
-0.180580
-0.181877
-0.101633
-0.085724
-0.177082
-0.181084
-0.181754
-0.181352
-0.164468
-0.127409
-0.132251
-0.183259
-0.182935
-0.184400
-0.184141
-0.171554
-0.173910
-0.177696
-0.179781
-0.181620
-0.182255
-0.182254
-0.182662
-0.170504
-0.175644
-0.175187
-0.173505
-0.177723
-0.178099
-0.177287
-0.178432
-0.177092
-0.176510
-0.176474
-0.142822
-0.119619
-0.195221
-0.190448
-0.193813
-0.178447
-0.166188
-0.147976
-0.154245
-0.143924
-0.180917
-0.181279
-0.181123
-0.175802
-0.170695
-0.174163
-0.178894
-0.176185
-0.177966
-0.120084
-0.118352
-0.171065
-0.185322
-0.183275
-0.189621
-0.190488
-0.187725
-0.188765
-0.168577
-0.143166
-0.152253
-0.155745
-0.150225
-0.141996
-0.178816
-0.181575
-0.180848
-0.176167
-0.185705
-0.186880
-0.130807
-0.161846
-0.190075
-0.189091
-0.188828
-0.124354
-0.172028
-0.174425
-0.176186
-0.175466
-0.189417
-0.189983
-0.183956
-0.197918
-0.193507
-0.159289
-0.135770
-0.180758
-0.174215
-0.175858
-0.170638
-0.180884
-0.183667
-0.141910
-0.181539
-0.177929
-0.121455
-0.137863
-0.129434
-0.128654
-0.136851
-0.179748
-0.176584
-0.175660
-0.179835
-0.180327
-0.180466
-0.172317
-0.178227
-0.176779
-0.177629
-0.177678
-0.177657
-0.176129
-0.176856
-0.179240
-0.178915
-0.178496
-0.177788
-0.178982
-0.178613
-0.181760
-0.182899
-0.182643
-0.180916
-0.180438
-0.181182
-0.181816
-0.191891
-0.191978
-0.193996
-0.175537
-0.181442
-0.181702
-0.181416
-0.181906
-0.183485
-0.182579
-0.182519
-0.181725
-0.191049
-0.190391
-0.190186
-0.189798
-0.172826
-0.163875
-0.162916
-0.152498
-0.177445
-0.179037
-0.193292
-0.194492
-0.193317
0.032155
-0.173178
-0.173258
0.022289
-0.179462
-0.179867
-0.183431
-0.184144
-0.182821
-0.181244
-0.181472
-0.182235
-0.182636
-0.182457
-0.183026
-0.182947
-0.190711
-0.188844
-0.189435
-0.188675
-0.180036
-0.180214
-0.179710
-0.179941
-0.190568
-0.187762
-0.177214
-0.176078
-0.177035
-0.177886
-0.178278
-0.087438
-0.154296
-0.164671
-0.160769
-0.116917
-0.173814
-0.171557
-0.174817
-0.176029
-0.176110
-0.189372
-0.189214
-0.189281
-0.182594
-0.194692
-0.194280
-0.193252
-0.196494
-0.195465
-0.177115
-0.177638
-0.176631
-0.178128
-0.178686
-0.178443
-0.180508
-0.181066
-0.180479
-0.193114
-0.192258
-0.193533
-0.194313
-0.179519
-0.178388
-0.178806
-0.179700
-0.185034
-0.186298
-0.181400
-0.181493
-0.181712
-0.181609
-0.049033
-0.040363
-0.045891
-0.033050
-0.039007
-0.050097
-0.155600
-0.158000
-0.169136
-0.125692
-0.181058
-0.181162
-0.181609
-0.181307
-0.182168
-0.182679
-0.181578
-0.185499
-0.186819
-0.186115
-0.187933
-0.191864
-0.191540
-0.191410
-0.170706
-0.171077
-0.171712
-0.174803
-0.176267
-0.181515
-0.178166
-0.178956
-0.178617
-0.211153
-0.069109
-0.177766
-0.173867
-0.172531
-0.172528
0.151317
-0.069032
-0.108129
-0.195599
0.193576
-0.000127
-0.129427
-0.130060
-0.172850
-0.097700
-0.161120
-0.181983
-0.181232
-0.181834
-0.180895
-0.181186
-0.173748
-0.179874
-0.179427
-0.179095
-0.182529
-0.184829
-0.185775
-0.185725
-0.184500
-0.185268
-0.189391
-0.187825
-0.188030
-0.189748
-0.176907
-0.173431
-0.176807
-0.173633
-0.181802
-0.176275
-0.182016
-0.125057
-0.166199
-0.018606
-0.081685
-0.176609
-0.177488
0.041433
0.030242
0.044275
-0.148882
-0.145105
-0.174545
-0.175493
-0.177367
-0.177642
-0.176938
-0.176698
-0.188639
-0.187480
-0.187569
-0.186450
-0.186475
-0.152677
-0.168846
-0.168894
-0.158458
-0.180523
-0.181021
-0.177328
-0.176355
-0.175288
-0.175518
-0.187265
-0.188651
-0.187890
-0.189910
-0.189057
-0.190584
-0.190301
-0.191560
-0.191537
-0.209599
-0.218949
-0.173747
-0.173233
-0.183710
-0.184310
-0.184580
-0.185866
-0.185333
-0.159914
-0.165390
-0.170609
-0.187784
-0.188719
-0.182175
-0.182471
-0.186390
-0.186679
-0.183193
-0.184249
-0.184074
-0.183357
-0.033427
-0.176293
-0.171909
-0.170319
-0.200517
-0.142746
-0.084787
-0.125185
-0.109866
-0.156073
-0.188638
-0.188869
-0.188250
-0.187763
-0.187132
-0.187494
-0.177982
-0.176382
-0.175644
-0.176276
-0.188143
-0.187472
-0.169816
-0.174876
-0.048997
-0.182402
-0.183077
-0.164439
-0.165599
-0.151112
-0.183098
-0.172958
-0.180925
-0.082458
-0.172583
-0.180720
-0.183845
-0.184564
-0.067992
-0.098934
-0.178295
-0.167605
-0.189443
-0.190919
-0.191669
-0.185055
-0.185095
-0.186463
-0.186602
-0.162214
-0.178956
-0.179630
-0.179513
-0.187355
-0.181270
-0.181500
-0.181859
-0.181564
-0.115240
-0.164944
-0.165586
-0.160569
-0.177471
-0.111616
-0.193931
-0.194970
-0.193560
-0.193951
-0.195567
-0.111805
-0.146308
-0.184370
-0.184926
-0.185712
-0.183565
-0.188375
-0.189520
-0.188137
-0.118678
-0.189792
-0.114263
-0.188439
-0.188159
-0.187588
-0.045803
-0.031349
0.009966
-0.165981
-0.168056
-0.190841
-0.188892
-0.189964
-0.189731
-0.110871
-0.181996
-0.172929
-0.188385
-0.191483
-0.191934
-0.190985
-0.183791
-0.184809
-0.183639
-0.174955
-0.175478
-0.177589
-0.177224
-0.191052
-0.190551
-0.190345
-0.189695
-0.189643
-0.182717
-0.183524
-0.182295
-0.185445
-0.186434
-0.184905
-0.187593
-0.182169
-0.183883
-0.184589
-0.185015
-0.185623
-0.195709
-0.194401
-0.194281
-0.193135
-0.360782
-0.190117
-0.126843
-0.181952
-0.130313
-0.182183
-0.182981
-0.182670
-0.181801
-0.192790
-0.193392
-0.192387
-0.191472
-0.192756
-0.181227
-0.180962
-0.180468
-0.180713
-0.133762
-0.200731
-0.191571
-0.179990
-0.149914
-0.177370
-0.194672
-0.195645
-0.194984
-0.182630
-0.195992
-0.174718
-0.184159
-0.172093
-0.155322
-0.147934
-0.176075
-0.186764
-0.189278
-0.187164
-0.072499
-0.177596
-0.114715
-0.101618
-0.113227
-0.142144
-0.552959
-0.176561
-0.177470
-0.177346
-0.118823
-0.110492
-0.062645
-0.473399
0.242967
0.278240
0.263689
-0.206398
-0.182196
-0.183035
-0.183780
-0.184792
-0.181255
-0.181715
-0.192509
-0.192711
-0.193238
-0.192098
-0.178624
-0.190098
-0.179584
-0.183164
-0.183014
-0.182669
-0.185327
-0.185170
-0.184350
-0.185555
-0.196138
-0.195196
-0.194347
-0.194504
-0.193797
-0.195392
-0.192522
-0.192324
-0.192483
-0.181248
-0.179802
-0.180449
-0.188154
-0.185804
-0.184798
-0.184833
-0.186558
-0.186801
-0.026947
-0.139577
-0.192318
-0.183184
-0.194674
-0.195665
-0.189717
-0.191246
-0.179622
-0.182823
-0.185101
-0.184040
-0.181997
-0.183324
-0.182886
-0.179010
-0.178070
-0.193523
-0.190035
-0.179658
-0.186210
-0.186588
-0.121895
-0.181174
-0.160558
-0.171812
-0.174247
-0.176102
-0.190939
-0.189425
-0.178513
-0.191645
-0.186858
-0.187182
-0.186319
-0.179415
-0.188843
-0.188823
-0.188719
-0.138457
-0.150551
-0.192267
-0.181221
-0.180966
-0.181176
-0.196291
-0.196625
-0.180879
-0.174736
-0.165172
-0.151854
-0.181462
-0.181430
-0.181381
-0.170028
-0.189727
-0.189176
-0.170208
-0.175760
-0.177679
-0.186820
-0.187802
-0.172823
-0.173019
-0.187604
-0.188066
-0.186345
-0.185082
-0.192799
-0.193691
-0.177646
-0.173414
-0.177652
-0.177214
-0.177865
-0.185152
-0.183936
-0.192336
-0.188433
-0.187844
-0.187896
-0.186510
-0.186916
-0.195881
-0.145407
-0.194512
-0.190922
-0.191418
-0.177984
-0.177973
-0.178249
-0.179022
-0.192005
-0.191994
-0.192406
-0.330676
-1.722236
-0.180773
-0.180687
-0.192905
-0.191882
-0.188449
-0.190228
-0.185508
-0.132538
-0.196684
-0.192481
-0.192194
-0.184119
-0.188508
-0.187255
-0.184343
-0.184781
-0.185747
-0.180992
-0.189053
-0.190559
-0.190797
-0.188530
-0.189496
-0.180220
-0.179174
-0.178692
-0.182479
-0.182384
-0.181832
-0.185793
-0.191668
-0.180183
-0.179599
-0.180027
-0.179546
-0.150856
-0.148951
-0.161417
-0.192603
-0.192408
-0.105777
-0.184008
-0.183715
-0.183546
-0.184315
-0.183078
-0.081960
-0.081569
-0.183836
-0.164826
-0.184363
-0.182426
0.122202
0.340524
-0.075554
-0.178960
-0.177655
-0.179091
-0.191974
-0.176145
-0.176773
-0.189736
-0.188324
-0.188418
-0.178908
-0.188433
-0.057454
-0.008880
0.500163
0.298925
0.474771
-0.184078
-0.187605
-0.187865
-0.188140
-0.187154
-0.157265
-0.109279
-0.092119
-0.176510
-0.086761
-0.157957
-0.178965
-0.179624
-0.179247
-0.179802
-0.178734
-0.179485
-0.180481
-0.048866
0.040644
-0.072790
-0.189427
-0.189705
-0.191007
-0.187346
-0.188247
-0.183503
-0.190447
-0.180437
-0.192342
-0.190857
0.150340
0.333034
-0.183398
-0.192128
-0.183725
-0.179259
-0.183540
-0.112111
-0.189044
-0.191909
-0.192275
-0.191062
-0.189519
-0.190319
-0.186338
-0.188824
-0.189158
-0.189722
-0.190274
-0.191799
-0.187945
-0.188425
-0.187006
-0.187995
-0.187283
-0.193093
-0.196293
-0.149701
-0.142301
-0.009451
-0.181683
-0.192163
-0.192410
-0.192521
-0.181657
-0.182724
-0.186669
-0.187582
-0.187694
-0.187096
-0.199534
-0.198590
-0.113718
-0.034094
-0.006276
0.314220
-0.188222
-0.188284
-0.182265
-0.179349
-0.179323
-0.180354
-0.191817
-0.190994
-0.191303
-0.101788
-0.180909
-0.180267
-0.180449
-0.182161
-0.181493
-0.178161
-0.182234
-0.189201
-0.181915
-0.178983
-0.221376
-0.159198
-0.166721
-0.180539
-0.192922
-0.183511
-0.176966
-0.179930
-0.180878
-0.180438
-0.178531
-0.178780
-0.179054
-0.179063
-0.177823
-0.181973
-0.159483
-0.168177
-0.143407
-0.184642
-0.184667
-0.181653
-0.181774
-0.182779
-0.178296
-0.178608
-0.190911
-0.181458
-0.191705
-0.188232
-0.186650
-0.193164
-0.192146
-0.192844
-0.110183
-0.152115
-0.183149
-0.190160
-0.192179
-0.180608
-0.175824
-0.175186
-0.175395
-0.178213
-0.178277
-0.175714
-0.192063
-0.121313
-0.118887
-0.193598
-0.188305
-0.193434
-0.037640
-0.193500
-0.182055
-0.183325
-0.182175
-0.183355
-0.172965
-0.164771
-0.151841
-0.188676
-0.178750
-0.181729
-0.177249
-0.175453
-0.189944
-0.179718
-0.179319
-0.056085
-0.154186
-0.165533
-0.179229
-0.186828
-0.037871
-0.172354
-0.188483
-0.180087
-0.157047
-0.171378
-0.178768
-0.179132
-0.183900
-0.179635
-0.192894
-0.192269
-0.178877
-0.180597
-0.180496
-0.181635
-0.179332
-0.192557
-0.195762
-0.191820
-0.127659
-0.176588
-0.108520
-0.185143
-0.189832
-0.190860
-0.180991
-0.206575
-0.190673
-0.191072
-0.183256
-0.183090
-0.185999
-0.185037
-0.186197
-0.184695
-0.190476
-0.142064
-0.184904
-0.113242
-0.178510
-0.218224
-0.212634
-0.192644
-0.190302
-0.141863
-0.124490
-0.094107
-0.017109
-0.174670
-0.173852
-0.171863
-0.175179
-0.179639
-0.180329
-0.180785
-0.181509
-0.175328
-0.173158
-0.176848
-0.168328
-0.173729
-0.187666
-0.180071
-0.182222
-0.181919
-0.188676
-0.192569
-0.179006
-0.178498
-0.179297
-0.186788
-0.185677
-0.104249
-0.127886
-0.178778
-0.179532
-0.179272
-0.166447
-0.177392
-0.187435
-0.179405
-0.180120
-0.173715
0.000988
-0.169838
-0.166814
-0.176188
-0.178527
-0.179907
-0.171445
-0.172476
-0.177902
-0.177314
-0.167090
-0.180203
-0.174004
-0.185312
-0.183948
-0.184351
-0.180237
-0.179641
-0.180067
-0.187539
-0.182289
-0.179684
-0.179693
-0.180578
-0.180027
-0.179295
-0.180189
-0.186979
-0.177083
-0.105846
-0.077723
-0.103777
-0.175126
-0.176349
-0.164877
-0.154632
-0.155258
-0.152949
-0.156871
-0.194439
-0.175183
-0.205643
-0.174537
-0.176887
-0.161364
-0.170250
-0.187013
-0.167339
-0.272739
-0.007425
-0.126752
-0.135876
-0.187372
-0.177021
-0.177700
-0.171769
-0.177690
-0.182527
-0.181256
-0.181258
-0.180977
-0.162434
-0.110407
-0.179579
-0.177093
-0.158682
-0.167417
-0.181916
-0.178818
-0.178569
-0.110029
-0.179268
-0.181285
-0.182785
-0.183693
-0.185486
-0.177966
-0.163975
-0.164594
-0.110560
-0.096455
-0.105315
-0.182762
-0.178646
-0.107289
-0.893136
-0.143713
-0.184769
-0.180056
-0.181609
-0.187443
-0.191024
-0.177289
-0.154866
-0.135344
-0.262122
-0.171830
-0.172816
-0.157959
-0.175942
-0.180829
-0.178673
-0.119927
-0.127168
-0.174127
-0.165583
-0.176835
-0.185684
-0.185294
-0.184392
-0.182648
-0.182376
-0.179421
-0.181565
-0.125635
-0.100066
-0.134703
-0.162932
-0.081134
-0.176690
-0.293488
-0.002936
-0.176042
-0.176687
-0.180066
-0.180217
-0.181263
-0.184380
-0.177714
-0.191875
-0.150016
-0.181902
-0.181505
-0.175125
-0.172506
-0.170864
-0.148256
-0.177407
-0.117847
-0.131466
-0.146160
-0.162471
-0.129452
-0.174403
-0.172241
-0.228940
-0.126915
-0.178661
-0.177801
-0.181031
-0.169141
-0.152546
-0.150283
-0.034616
-0.175380
-0.165704
-0.184363
-0.192120
-0.184298
-0.181665
-0.200426
-0.181138
-0.039808
-0.186332
-0.179565
-0.178759
-0.183172
-0.182020
-0.110714
-0.145308
-0.128497
-0.179176
-0.168567
-0.188836
-0.177635
-0.178562
-0.182941
-0.175961
-0.176626
-0.180657
-0.180700
-0.151596
-0.115373
-0.206911
-0.170545
-0.163996
-0.162180
-0.155694
-0.173534
-0.171267
-0.138696
-0.145413
-0.175900
-0.175456
-0.174988
-0.127583
-0.096977
-0.105775
-0.183720
-0.182047
-0.191044
-0.193073
-0.187968
-0.188672
-0.185000
-0.184974
-0.187094
-0.178799
-0.182611
-0.182409
-0.182783
-0.171736
-0.173770
-0.179824
-0.180410
-0.180094
-0.182613
-0.188021
-0.190988
-0.184222
-0.162100
-0.180007
-0.180633
-0.180130
-0.167665
-0.161456
-0.169224
-0.185238
-0.179697
-0.030987
-0.017964
-0.083999
-0.118220
-0.006267
-0.195576
-0.192018
-0.172324
-0.182783
-0.108842
-0.168456
-0.187314
-0.184106
-0.185472
-0.148281
-0.217010
-0.185347
-0.189448
-0.180075
-0.061846
-0.120358
-0.179695
-0.151773
-0.169547
-0.181662
-0.121432
-0.172062
-0.198477
-0.178159
-0.129695
-0.181285
-0.170138
-0.166188
-0.147502
-0.186247
-0.175056
-0.181614
-0.180635
-0.173533
-0.186982
-0.173645
-0.182608
-0.045275
-0.002066
-0.179749
-0.276196
-0.359791
-0.189546
-0.180139
-0.178050
-0.181838
-0.181760
-0.179913
-0.179295
-0.188796
-0.190079
-0.175927
-0.144357
-0.187531
-0.177544
-0.174586
-0.058377
-0.173774
-0.174861
-0.186027
-0.178975
-0.179166
-0.174139
-0.174160
-0.129736
-0.138526
-0.186812
-0.182446
-0.176584
-0.177011
-0.166354
-0.108168
-0.156905
-0.140693
-0.185628
-0.182268
-0.182619
-0.170701
-0.174500
-0.159714
-0.183684
-0.174022
-0.181761
-0.206004
-0.132740
-0.213073
-0.153599
-0.178025
-0.185930
-0.173369
-0.141703
-0.182717
-0.181337
-0.436715
-0.180570
-0.142895
-0.131738
-0.151140
-0.026698
-0.102172
-0.097249
-0.094019
-0.127003
-0.180819
-0.186120
-0.181129
-0.179936
-0.187474
-0.177181
-0.175817
-0.177914
-0.178533
-0.193850
-0.169773
-0.145634
-0.332989
0.091102
0.128436
-0.140440
-0.177820
-0.181269
-0.445759
-0.195358
-0.144760
-0.180338
-0.110820
-0.179500
-0.174090
-0.175342
-0.193550
-0.177416
-0.172095
-0.094681
-0.120667
-0.097282
-0.158420
-0.114632
-0.134115
-0.169309
-0.136805
-0.113541
-0.161088
-0.186220
-0.184046
-0.180547
-0.182532
-0.179744
-0.178343
-0.181581
-0.138906
-0.199385
-0.148262
-0.177384
-0.168641
-0.132862
-0.162460
-0.186318
-0.178908
-0.180643
-0.160057
-0.135575
-0.172346
-0.179738
-0.182517
-0.179702
-0.178499
-0.180384
-0.177193
-0.153083
-0.190039
-0.184123
-0.162100
-0.165224
-0.168207
-0.189612
-0.177649
-0.180478
-0.181920
-0.181920
-0.179341
-0.181483
-0.173288
-0.172209
-0.173200
-0.176801
-0.140855
-0.179976
-0.006739
-0.007031
-0.006461
-0.007522
-0.006630
-0.007604
-0.008137
-0.008690
-0.003249
0.008896
0.008625
0.007985
0.008920
-0.060288
-0.017899
0.007992
0.008702
-0.000998
-0.001437
-0.002154
0.007933
0.008775
0.009677
-0.001018
-0.003084
-0.000403
0.016059
0.013609
0.014890
0.015852
-0.000890
-0.006530
-0.006230
-0.000728
-0.001149
-0.000746
-0.004429
-0.003324
-0.004629
-0.001064
-0.030245
0.122555
0.062710
-0.013095
-0.001480
-0.003098
-0.002252
-0.002341
-0.002906
-0.003037
-0.001993
0.008194
0.007699
0.008000
0.007739
-0.003817
-0.003427
-0.003746
-0.051883
-0.013625
-0.241203
0.000853
-0.000560
0.004181
-0.009514
0.012236