# vtk DataFile Version 2.0
Test
ASCII
DATASET POLYDATA
POINTS 3011 float
0.000000 0.000000 0.000000
2.000000 0.000000 0.000000
2.000000 4.000000 0.000000
0.000000 4.000000 0.000000
0.000000 0.500000 0.000000
1.500000 2.000000 0.000000
2.000000 2.500000 0.000000
0.285714 0.000000 0.000000
0.571429 0.000000 0.000000
0.857143 0.000000 0.000000
1.142857 0.000000 0.000000
1.428571 0.000000 0.000000
1.714286 0.000000 0.000000
2.000000 0.276366 0.000000
2.000000 0.523709 0.000000
2.000000 0.745076 0.000000
2.000000 0.943195 0.000000
2.000000 1.120508 0.000000
2.000000 1.279199 0.000000
2.000000 1.421225 0.000000
2.000000 1.548336 0.000000
2.000000 1.662097 0.000000
2.000000 1.763911 0.000000
2.000000 1.855033 0.000000
2.000000 1.936585 0.000000
2.000000 2.009573 0.000000
2.000000 2.074896 0.000000
2.000000 2.133358 0.000000
2.000000 2.185681 0.000000
2.000000 2.232509 0.000000
2.000000 2.274419 0.000000
2.000000 2.311927 0.000000
2.000000 2.345497 0.000000
2.000000 2.375541 0.000000
2.000000 2.402430 0.000000
2.000000 2.426495 0.000000
2.000000 2.448033 0.000000
2.000000 2.467309 0.000000
2.000000 2.484560 0.000000
2.000000 2.516256 0.000000
2.000000 2.535859 0.000000
2.000000 2.559499 0.000000
2.000000 2.588006 0.000000
2.000000 2.622383 0.000000
2.000000 2.663839 0.000000
2.000000 2.713831 0.000000
2.000000 2.774116 0.000000
2.000000 2.846815 0.000000
2.000000 2.934483 0.000000
2.000000 3.040202 0.000000
2.000000 3.167691 0.000000
2.000000 3.321430 0.000000
2.000000 3.506825 0.000000
2.000000 3.730395 0.000000
1.714286 4.000000 0.000000
1.428571 4.000000 0.000000
1.142857 4.000000 0.000000
0.857143 4.000000 0.000000
0.571429 4.000000 0.000000
0.285714 4.000000 0.000000
0.000000 3.713462 0.000000
0.000000 3.449209 0.000000
0.000000 3.205508 0.000000
0.000000 2.980761 0.000000
0.000000 2.773493 0.000000
0.000000 2.582346 0.000000
0.000000 2.406065 0.000000
0.000000 2.243495 0.000000
0.000000 2.093568 0.000000
0.000000 1.955302 0.000000
0.000000 1.827789 0.000000
0.000000 1.710194 0.000000
0.000000 1.601745 0.000000
0.000000 1.501730 0.000000
0.000000 1.409494 0.000000
0.000000 1.324431 0.000000
0.000000 1.245984 0.000000
0.000000 1.173639 0.000000
0.000000 1.106920 0.000000
0.000000 1.045390 0.000000
0.000000 0.988645 0.000000
0.000000 0.936314 0.000000
0.000000 0.888053 0.000000
0.000000 0.843545 0.000000
0.000000 0.802499 0.000000
0.000000 0.764646 0.000000
0.000000 0.729736 0.000000
0.000000 0.697541 0.000000
0.000000 0.667851 0.000000
0.000000 0.640469 0.000000
0.000000 0.615217 0.000000
0.000000 0.591929 0.000000
0.000000 0.570453 0.000000
0.000000 0.550646 0.000000
0.000000 0.532380 0.000000
0.000000 0.515535 0.000000
0.000000 0.483768 0.000000
0.000000 0.461535 0.000000
0.000000 0.431083 0.000000
0.000000 0.389372 0.000000
0.000000 0.332241 0.000000
0.000000 0.253989 0.000000
0.000000 0.146807 0.000000
0.010563 0.510563 0.000000
0.021127 0.521127 0.000000
0.031690 0.531690 0.000000
0.042254 0.542254 0.000000
0.052817 0.552817 0.000000
0.063380 0.563380 0.000000
0.073944 0.573944 0.000000
0.084507 0.584507 0.000000
0.095070 0.595070 0.000000
0.105634 0.605634 0.000000
0.116197 0.616197 0.000000
0.126761 0.626761 0.000000
0.137324 0.637324 0.000000
0.147887 0.647887 0.000000
0.158451 0.658451 0.000000
0.169014 0.669014 0.000000
0.179577 0.679577 0.000000
0.190141 0.690141 0.000000
0.200704 0.700704 0.000000
0.211268 0.711268 0.000000
0.221831 0.721831 0.000000
0.232394 0.732394 0.000000
0.242958 0.742958 0.000000
0.253521 0.753521 0.000000
0.264085 0.764085 0.000000
0.274648 0.774648 0.000000
0.285211 0.785211 0.000000
0.295775 0.795775 0.000000
0.306338 0.806338 0.000000
0.316901 0.816901 0.000000
0.327465 0.827465 0.000000
0.338028 0.838028 0.000000
0.348592 0.848592 0.000000
0.359155 0.859155 0.000000
0.369718 0.869718 0.000000
0.380282 0.880282 0.000000
0.390845 0.890845 0.000000
0.401408 0.901408 0.000000
0.411972 0.911972 0.000000
0.422535 0.922535 0.000000
0.433099 0.933099 0.000000
0.443662 0.943662 0.000000
0.454225 0.954225 0.000000
0.464789 0.964789 0.000000
0.475352 0.975352 0.000000
0.485915 0.985915 0.000000
0.496479 0.996479 0.000000
0.507042 1.007042 0.000000
0.517606 1.017606 0.000000
0.528169 1.028169 0.000000
0.538732 1.038732 0.000000
0.549296 1.049296 0.000000
0.559859 1.059859 0.000000
0.570423 1.070423 0.000000
0.580986 1.080986 0.000000
0.591549 1.091549 0.000000
0.602113 1.102113 0.000000
0.612676 1.112676 0.000000
0.623239 1.123239 0.000000
0.633803 1.133803 0.000000
0.644366 1.144366 0.000000
0.654930 1.154930 0.000000
0.665493 1.165493 0.000000
0.676056 1.176056 0.000000
0.686620 1.186620 0.000000
0.697183 1.197183 0.000000
0.707746 1.207746 0.000000
0.718310 1.218310 0.000000
0.728873 1.228873 0.000000
0.739437 1.239437 0.000000
0.750000 1.250000 0.000000
0.760563 1.260563 0.000000
0.771127 1.271127 0.000000
0.781690 1.281690 0.000000
0.792254 1.292254 0.000000
0.802817 1.302817 0.000000
0.813380 1.313380 0.000000
0.823944 1.323944 0.000000
0.834507 1.334507 0.000000
0.845070 1.345070 0.000000
0.855634 1.355634 0.000000
0.866197 1.366197 0.000000
0.876761 1.376761 0.000000
0.887324 1.387324 0.000000
0.897887 1.397887 0.000000
0.908451 1.408451 0.000000
0.919014 1.419014 0.000000
0.929577 1.429577 0.000000
0.940141 1.440141 0.000000
0.950704 1.450704 0.000000
0.961268 1.461268 0.000000
0.971831 1.471831 0.000000
0.982394 1.482394 0.000000
0.992958 1.492958 0.000000
1.003521 1.503521 0.000000
1.014085 1.514085 0.000000
1.024648 1.524648 0.000000
1.035211 1.535211 0.000000
1.045775 1.545775 0.000000
1.056338 1.556338 0.000000
1.066901 1.566901 0.000000
1.077465 1.577465 0.000000
1.088028 1.588028 0.000000
1.098592 1.598592 0.000000
1.109155 1.609155 0.000000
1.119718 1.619718 0.000000
1.130282 1.630282 0.000000
1.140845 1.640845 0.000000
1.151408 1.651408 0.000000
1.161972 1.661972 0.000000
1.172535 1.672535 0.000000
1.183099 1.683099 0.000000
1.193662 1.693662 0.000000
1.204225 1.704225 0.000000
1.214789 1.714789 0.000000
1.225352 1.725352 0.000000
1.235915 1.735915 0.000000
1.246479 1.746479 0.000000
1.257042 1.757042 0.000000
1.267606 1.767606 0.000000
1.278169 1.778169 0.000000
1.288732 1.788732 0.000000
1.299296 1.799296 0.000000
1.309859 1.809859 0.000000
1.320423 1.820423 0.000000
1.330986 1.830986 0.000000
1.341549 1.841549 0.000000
1.352113 1.852113 0.000000
1.362676 1.862676 0.000000
1.373239 1.873239 0.000000
1.383803 1.883803 0.000000
1.394366 1.894366 0.000000
1.404930 1.904930 0.000000
1.415493 1.915493 0.000000
1.426056 1.926056 0.000000
1.436620 1.936620 0.000000
1.447183 1.947183 0.000000
1.457746 1.957746 0.000000
1.468310 1.968310 0.000000
1.478873 1.978873 0.000000
1.489437 1.989437 0.000000
1.510417 2.010417 0.000000
1.520833 2.020833 0.000000
1.531250 2.031250 0.000000
1.541667 2.041667 0.000000
1.552083 2.052083 0.000000
1.562500 2.062500 0.000000
1.572917 2.072917 0.000000
1.583333 2.083333 0.000000
1.593750 2.093750 0.000000
1.604167 2.104167 0.000000
1.614583 2.114583 0.000000
1.625000 2.125000 0.000000
1.635417 2.135417 0.000000
1.645833 2.145833 0.000000
1.656250 2.156250 0.000000
1.666667 2.166667 0.000000
1.677083 2.177083 0.000000
1.687500 2.187500 0.000000
1.697917 2.197917 0.000000
1.708333 2.208333 0.000000
1.718750 2.218750 0.000000
1.729167 2.229167 0.000000
1.739583 2.239583 0.000000
1.750000 2.250000 0.000000
1.760417 2.260417 0.000000
1.770833 2.270833 0.000000
1.781250 2.281250 0.000000
1.791667 2.291667 0.000000
1.802083 2.302083 0.000000
1.812500 2.312500 0.000000
1.822917 2.322917 0.000000
1.833333 2.333333 0.000000
1.843750 2.343750 0.000000
1.854167 2.354167 0.000000
1.864583 2.364583 0.000000
1.875000 2.375000 0.000000
1.885417 2.385417 0.000000
1.895833 2.395833 0.000000
1.906250 2.406250 0.000000
1.916667 2.416667 0.000000
1.927083 2.427083 0.000000
1.937500 2.437500 0.000000
1.947917 2.447917 0.000000
1.958333 2.458333 0.000000
1.968750 2.468750 0.000000
1.979167 2.479167 0.000000
1.989583 2.489583 0.000000
0.206561 0.791563 0.000000
0.205359 0.816165 0.000000
0.186354 0.798211 0.000000
0.221961 0.800924 0.000000
0.280649 1.360489 0.000000
0.304015 1.400469 0.000000
0.229142 1.396096 0.000000
0.275922 1.451476 0.000000
1.869084 2.391788 0.000000
1.857928 2.378421 0.000000
1.238669 2.061899 0.000000
1.278787 2.082276 0.000000
1.238298 2.096047 0.000000
1.277579 2.032995 0.000000
0.402536 1.205823 0.000000
0.415290 1.176040 0.000000
0.428330 1.201952 0.000000
0.387294 1.172617 0.000000
0.146930 1.050586 0.000000
0.109488 1.087198 0.000000
0.102742 1.042403 0.000000
0.157178 1.091184 0.000000
0.588967 1.178581 0.000000
0.593116 1.153718 0.000000
0.608054 1.166752 0.000000
0.612180 1.145944 0.000000
0.860304 1.543784 0.000000
0.868821 1.521840 0.000000
0.878420 1.536650 0.000000
0.845380 1.517623 0.000000
1.129525 1.764330 0.000000
1.142005 1.751560 0.000000
1.145757 1.773681 0.000000
1.159368 1.759106 0.000000
1.968150 2.518865 0.000000
1.986105 2.509269 0.000000
1.986696 2.531115 0.000000
0.668964 1.191005 0.000000
0.683291 1.201259 0.000000
0.557625 1.074830 0.000000
0.569760 1.084377 0.000000
0.557769 1.089278 0.000000
0.707567 1.266174 0.000000
0.719026 1.281845 0.000000
0.700768 1.282275 0.000000
0.722329 1.266956 0.000000
0.468225 2.149688 0.000000
0.419106 2.064198 0.000000
0.523878 2.082648 0.000000
0.838546 1.421191 0.000000
0.823708 1.410355 0.000000
0.840477 1.404206 0.000000
0.818500 1.425973 0.000000
0.953187 1.488222 0.000000
0.959780 1.473222 0.000000
0.967054 1.485637 0.000000
1.047418 1.769126 0.000000
1.080240 1.782403 0.000000
1.047768 1.802712 0.000000
0.971392 1.693320 0.000000
0.949208 1.720793 0.000000
0.940644 1.684781 0.000000
0.381391 2.160909 0.000000
0.944091 1.477800 0.000000
0.530075 1.477351 0.000000
0.521303 1.516669 0.000000
0.474240 1.491166 0.000000
0.489489 1.546185 0.000000
1.537370 2.239326 0.000000
1.555275 2.267640 0.000000
1.532966 2.278201 0.000000
0.962010 1.661716 0.000000
0.986804 1.643200 0.000000
0.986259 1.672729 0.000000
1.049149 1.737940 0.000000
1.075111 1.737123 0.000000
[...]
POINT_DATA 3011
SCALARS UX float 1
LOOKUP_TABLE default
-0.000000
0.000000
0.180687
-0.008943
-0.103865
-0.014501
0.115932
-0.000000
-0.000000
-0.000000
-0.000000
0.000000
0.000000
0.033029
0.048724
0.060403
0.070675
0.081185
0.092958
0.106447
0.122468
0.140873
0.160902
0.181972
0.201983
0.221435
0.240339
0.259763
0.277094
0.289650
0.303066
0.313531
0.320912
0.291796
0.251672
0.255205
0.222137
0.142655
0.122669
0.111748
0.108908
0.106783
0.106694
0.106950
0.108941
0.112389
0.116735
0.122493
0.129641
0.137728
0.146382
0.155864
0.166753
0.175377
0.158765
0.133829
0.107032
0.079801
0.051815
0.021949
-0.011951
-0.017148
-0.026758
-0.038957
-0.053326
-0.068754
-0.084514
-0.099825
-0.113919
-0.126584
-0.137444
-0.146505
-0.153873
-0.159738
-0.164272
-0.167640
-0.169866
-0.171256
-0.172039
-0.172401
-0.172440
-0.172337
-0.172168
-0.171970
-0.171861
-0.172007
-0.172446
-0.172968
-0.173489
-0.174081
-0.174784
-0.174407
-0.178297
-0.196786
-0.166880
-0.136099
-0.083950
-0.078304
-0.069200
-0.062389
-0.053793
-0.043082
-0.030688
-0.125923
-0.140853
-0.155079
-0.144517
-0.140810
-0.136888
-0.134984
-0.134974
-0.141048
-0.136585
-0.134720
-0.131863
-0.127561
-0.124744
-0.122166
-0.120528
-0.119459
-0.118648
-0.116600
-0.115418
-0.114432
-0.113986
-0.113242
-0.112623
-0.112478
-0.111811
-0.110841
-0.109761
-0.109694
-0.108544
-0.108418
-0.107342
-0.106220
-0.106491
-0.106523
-0.106482
-0.104622
-0.104939
-0.103784
-0.102747
-0.102768
-0.102287
-0.102212
-0.101733
-0.101709
-0.100745
-0.100457
-0.099668
-0.098717
-0.097472
-0.096718
-0.095979
-0.095127
-0.094107
-0.092312
-0.091362
-0.090599
-0.089921
-0.089024
-0.088588
-0.086981
-0.084786
-0.082853
-0.080910
-0.078929
-0.078232
-0.077045
-0.077143
-0.075979
-0.075556
-0.078242
-0.074576
-0.073394
-0.072947
-0.072287
-0.071954
-0.071788
-0.071729
-0.071014
-0.070342
-0.069587
-0.067190
-0.064564
-0.062967
-0.060327
-0.059800
-0.059168
-0.058561
-0.058838
-0.058245
-0.056739
-0.056048
-0.054414
-0.053680
-0.050357
-0.047051
-0.043606
-0.040145
-0.037736
-0.034295
-0.030880
-0.026267
-0.021216
-0.024651
-0.032589
-0.032558
-0.037005
0.007174
0.023312
0.003926
0.009401
0.022053
0.004451
0.011044
-0.019859
-0.052887
-0.054057
-0.039833
-0.004284
0.027413
0.013447
-0.000429
-0.008357
-0.018763
-0.008063
-0.035179
-0.074622
0.003696
-0.027185
-0.135999
-0.011597
-0.031772
-0.025493
-0.024223
-0.024702
-0.024068
-0.021146
-0.018309
-0.015549
-0.013968
-0.012133
-0.017754
-0.020176
-0.030389
-0.005735
-0.005325
0.005298
0.008847
-0.000985
0.009616
0.011375
0.024255
0.024911
0.031724
0.046022
0.055800
0.017311
0.032648
0.048208
0.057841
0.064426
0.066354
0.071404
0.068865
0.063708
0.073638
0.076834
0.076944
0.075917
0.092299
0.094542
0.100340
0.090549
0.083121
0.094718
0.103710
0.111611
0.110466
0.108995
0.111358
0.110451
0.112864
0.115716
0.119577
0.118472
0.118042
0.115093
0.114823
-0.157728
-0.160911
-0.162229
-0.155482
-0.150724
-0.147117
-0.152034
-0.146121
0.095872
0.094432
-0.009708
-0.003711
-0.004969
-0.010828
-0.149839
-0.149718
-0.148087
-0.151764
-0.166034
-0.167506
-0.168085
-0.165286
-0.129799
-0.124428
-0.121119
-0.110871
-0.096083
-0.095859
-0.094354
-0.098689
-0.057304
-0.055339
-0.055850
-0.053653
0.103638
0.109038
0.106177
-0.097248
-0.092620
-0.108274
-0.104468
-0.116291
-0.108913
-0.109018
-0.115478
-0.104542
-0.068580
-0.082472
-0.071235
-0.100004
-0.103492
-0.098331
-0.104612
-0.074863
-0.064773
-0.066986
-0.066205
-0.061726
-0.062653
-0.079089
-0.078674
-0.081484
-0.075118
-0.075531
-0.127708
-0.125828
-0.130580
-0.126002
0.029008
0.035137
0.035727
-0.080889
-0.079135
-0.078927
-0.069180
-0.066012
-0.065106
0.032269
-0.068819
-0.053488
-0.045939
-0.039359
-0.051607
0.019255
0.019340
0.023902
0.025226
0.027529
0.023220
-0.126211
-0.127965
-0.124917
-0.124932
-0.120244
-0.119415
-0.126538
-0.113628
-0.156579
-0.154478
-0.155875
-0.155789
0.002750
-0.009904
-0.005578
-0.002749
-0.116191
-0.122840
-0.114320
0.017399
0.020675
0.020320
-0.124294
-0.160434
-0.163182
-0.163385
-0.122257
-0.120965
-0.119254
-0.118212
-0.166097
-0.130622
-0.121336
-0.128783
0.078796
0.081205
0.084790
-0.021253
-0.026402
-0.015453
-0.147211
-0.145816
-0.019909
-0.102126
-0.099350
-0.103889
-0.099037
0.006880
0.012091
0.007626
-0.098186
-0.095624
-0.098793
0.009026
-0.145101
-0.131709
-0.132741
-0.137394
-0.136757
-0.134119
-0.169298
-0.168015
-0.134316
-0.081514
-0.085252
-0.079343
-0.169889
-0.082395
-0.059156
-0.057014
-0.164760
-0.163904
-0.162851
-0.117481
-0.108222
-0.104632
-0.123014
-0.128871
0.001806
0.006062
0.008748
-0.032953
-0.032869
-0.038180
-0.055426
-0.050857
-0.053586
-0.066451
-0.069276
-0.071806
-0.057711
-0.135886
-0.142529
-0.140831
-0.100430
-0.102978
-0.102667
-0.081696
-0.100181
-0.168284
-0.167187
-0.168878
-0.125962
-0.133043
0.076416
-0.074080
0.069659
0.069527
0.064636
-0.105001
-0.101374
-0.101970
-0.106482
0.063716
0.067908
0.063938
-0.114427
-0.120311
-0.111534
0.029766
0.022174
0.029261
0.026689
0.076292
0.082699
0.016705
-0.020709
-0.023054
-0.027585
-0.057436
-0.051270
-0.050769
0.095445
0.106649
0.096122
0.111224
-0.009144
-0.009152
-0.006073
-0.113887
-0.132329
-0.134657
-0.137612
-0.137674
-0.061422
0.070561
0.066798
0.067687
0.054110
0.048610
0.047401
0.054557
0.042273
0.045636
0.040244
0.049756
0.050797
-0.089417
-0.086616
-0.086334
-0.089695
-0.097469
-0.092600
-0.095805
-0.091282
-0.000143
-0.005523
-0.004399
-0.025515
-0.023374
-0.029748
-0.000591
0.002098
0.003092
0.064129
0.059922
-0.110965
-0.112338
-0.114945
-0.106753
-0.108980
-0.105189
-0.106335
-0.112781
-0.111286
-0.108413
-0.091029
-0.093462
-0.090841
-0.093339
-0.041902
-0.040358
-0.039227
-0.045838
-0.017697
-0.104267
-0.108115
-0.102740
-0.103906
-0.100972
-0.102996
0.035601
0.035173
0.030554
0.032039
-0.054645
-0.054456
-0.092003
-0.091003
-0.088005
-0.045290
-0.034724
-0.059822
-0.061064
-0.066761
-0.063119
-0.062398
-0.076547
-0.077648
-0.072618
-0.080760
-0.017100
-0.014615
-0.090373
-0.087367
-0.095451
-0.074218
-0.073155
-0.075442
0.014483
0.014284
0.019274
-0.070449
-0.076403
-0.074349
-0.075172
0.030625
0.036561
-0.009786
-0.007630
-0.005586
-0.004092
-0.036291
-0.032946
-0.034417
-0.031498
-0.169124
-0.169716
-0.170939
-0.166908
-0.142131
-0.133714
-0.127066
0.033996
0.044187
0.017372
-0.002670
-0.150708
-0.151686
-0.153412
-0.153821
-0.019681
-0.021414
-0.013586
-0.015918
-0.078278
-0.076755
-0.068833
-0.071666
0.045569
0.047480
0.049016
0.052019
0.005887
0.003115
-0.146541
-0.146694
-0.152836
-0.166968
-0.168566
-0.167563
-0.168140
-0.166194
-0.165008
-0.073137
-0.075386
-0.076526
-0.008235
-0.009702
-0.143815
-0.143074
-0.146125
-0.144589
-0.147352
-0.092567
-0.089316
-0.093070
-0.089495
-0.147468
-0.150504
-0.149825
-0.144968
-0.107619
-0.103688
-0.163792
-0.162730
-0.160845
-0.162238
-0.164421
-0.167128
-0.169028
-0.166975
-0.161629
-0.162791
-0.159500
-0.153872
-0.155462
-0.159695
-0.155604
-0.063589
-0.066985
-0.073832
-0.029078
0.034552
0.033623
0.049845
0.011290
0.013478
0.098680
0.095150
0.098858
0.096136
0.090804
0.090621
-0.157708
-0.158580
-0.159547
-0.141461
-0.139068
-0.133447
-0.137786
0.097246
0.099827
0.105187
0.103515
-0.073024
-0.070575
-0.147562
-0.145345
-0.148551
-0.145375
-0.132632
-0.145893
-0.168949
-0.163132
-0.157846
-0.168526
0.091536
0.090113
0.084927
0.088057
-0.153533
-0.151785
0.034365
0.040478
0.040800
0.031669
0.048369
0.088277
0.085777
0.074396
0.068018
-0.112019
-0.110012
-0.110768
-0.171591
-0.171329
-0.172434
-0.170499
0.103185
0.158768
-0.157911
-0.159672
-0.161156
-0.173358
-0.173004
-0.159468
0.071860
0.069687
0.071845
-0.159855
-0.158903
-0.162589
-0.138255
-0.152505
-0.148433
0.101275
0.107550
0.101129
0.108284
0.104222
-0.009256
-0.014942
-0.161747
-0.161661
-0.160279
0.101650
0.032788
0.028789
0.036080
-0.148436
-0.141851
-0.138751
-0.142486
-0.139001
-0.136350
-0.123594
-0.122159
-0.163507
-0.160670
-0.170760
-0.169685
-0.169547
-0.168718
-0.146384
0.003841
-0.148236
-0.169519
-0.170693
-0.164732
-0.163870
0.107030
0.107696
-0.162691
-0.166183
-0.164785
0.109672
-0.171518
0.082601
0.086952
0.086056
-0.155852
-0.157817
-0.152562
-0.003251
-0.001944
0.009084
0.009150
0.018762
-0.164701
-0.163890
-0.165996
-0.166480
0.006017
0.003496
-0.151106
-0.145479
-0.149693
-0.144556
-0.136508
-0.134419
-0.138197
-0.132353
-0.136435
-0.136934
-0.134493
-0.131058
-0.134624
-0.168279
-0.172434
0.076099
0.080682
-0.151969
-0.149849
-0.152524
-0.150999
-0.154477
-0.010567
-0.008273
-0.006644
-0.129705
-0.130178
-0.152069
-0.153850
-0.130167
-0.127481
0.014283
0.011711
0.004636
0.006040
-0.153997
-0.144205
-0.135948
-0.137434
-0.132953
-0.046686
0.085637
0.075922
0.075144
0.071542
-0.053557
-0.060963
-0.055153
-0.046867
-0.043947
-0.049610
0.083030
0.081024
0.102133
0.097660
-0.056554
-0.050758
0.085781
0.091175
-0.154732
-0.150236
-0.153737
-0.138477
-0.127779
-0.122662
-0.140944
-0.148539
0.012511
-0.155487
-0.172141
0.009064
-0.028258
-0.026805
0.107762
0.102689
0.099338
-0.171280
-0.155660
-0.154146
-0.157486
-0.040545
-0.037159
-0.045186
-0.046844
0.069421
-0.163771
-0.163386
-0.161701
-0.154450
0.006865
0.000413
0.002954
0.009503
0.080618
-0.170523
-0.171291
-0.170167
-0.147750
-0.167746
-0.047998
-0.068044
-0.054852
-0.036422
-0.062327
-0.163267
-0.168712
0.041900
0.054161
0.040327
0.054699
-0.011880
-0.017996
-0.064902
-0.163690
-0.008692
-0.146419
-0.060605
-0.027879
-0.015153
-0.164945
-0.166326
-0.164579
-0.169103
-0.167776
0.034962
0.050581
0.054309
0.031081
-0.164918
-0.070269
-0.078010
-0.078330
-0.105001
-0.110157
-0.106217
-0.158724
-0.157715
-0.161306
-0.135285
-0.138654
-0.145046
-0.144011
-0.096784
-0.096091
-0.091605
-0.090606
-0.086201
0.022973
0.022199
-0.077406
-0.083824
-0.086837
-0.085525
-0.083376
0.017931
0.031103
0.020313
0.030558
0.019170
-0.026965
-0.017551
-0.002583
0.001214
-0.159172
-0.161878
-0.164364
-0.150296
0.108002
-0.157526
-0.157916
-0.160176
-0.159444
-0.106840
-0.106562
-0.106304
-0.123015
-0.119554
-0.170336
-0.156688
-0.155571
-0.168402
0.025508
0.025274
0.069738
-0.160899
0.030960
0.101893
-0.073872
-0.085559
-0.088472
0.009903
-0.098007
-0.166660
-0.167641
-0.170614
-0.169099
0.074856
-0.165271
0.122976
0.095157
0.114304
-0.163461
-0.169100
0.096588
-0.120897
-0.124195
-0.132534
-0.148069
0.072620
0.070386
0.076926
0.081808
0.082706
0.090085
-0.138927
-0.147781
-0.151139
-0.160033
-0.149575
0.136158
0.143765
0.125698
0.127552
-0.155148
-0.155571
-0.115695
-0.116632
-0.061798
-0.043766
0.059667
-0.095446
-0.170548
-0.139763
-0.141795
-0.140269
0.009911
-0.130827
-0.128362
-0.128472
-0.117037
-0.109631
-0.113988
-0.103957
-0.102432
-0.043570
-0.117323
-0.121192
-0.118347
0.129926
0.133872
0.142730
0.099107
-0.145776
-0.147639
-0.145027
-0.164729
-0.160492
-0.163246
-0.166672
-0.122486
0.041822
-0.096407
-0.103924
-0.129753
-0.125111
-0.168199
-0.163146
-0.126364
-0.125877
-0.145466
-0.008880
0.096406
0.094472
-0.166252
-0.017879
-0.079452
-0.169404
-0.156866
-0.152671
-0.148707
0.015391
-0.171022
-0.036643
-0.035414
-0.037796
0.009747
0.019807
-0.167883
0.016637
-0.142064
-0.144489
-0.148037
0.112074
-0.065202
-0.076651
-0.070134
-0.125188
-0.138866
-0.121956
-0.149176
-0.146611
-0.145312
-0.083886
-0.098740
-0.149735
-0.161902
0.051775
0.054654
-0.142325
-0.141539
-0.143605
0.048086
-0.094527
-0.090318
0.067922
0.077143
-0.035989
-0.036780
-0.041165
-0.162646
-0.164893
-0.051723
-0.053550
0.116098
0.134964
-0.082906
-0.093145
-0.149849
-0.142598
-0.148880
0.056338
0.060046
-0.033368
-0.034312
-0.129977
-0.159665
-0.156683
-0.132722
-0.135016
-0.132239
-0.011934
-0.167824
-0.126926
-0.100727
-0.101700
-0.152306
-0.153919
-0.155406
0.093628
-0.105122
-0.107762
-0.110398
-0.148870
-0.134848
-0.154488
-0.152098
-0.093034
-0.080883
0.077274
0.066404
0.112359
0.087647
-0.110837
-0.098421
-0.101358
-0.144186
-0.143040
-0.148283
-0.131048
-0.133447
-0.133205
0.151488
0.007427
0.001725
-0.011886
-0.063003
-0.058392
-0.129310
-0.117957
-0.113662
-0.001721
0.004819
0.013597
-0.032844
-0.099256
-0.153372
-0.152908
-0.155796
-0.155338
-0.032022
-0.020911
-0.023423
-0.115359
-0.113282
-0.157404
-0.133043
-0.135370
-0.132430
-0.135896
0.000655
0.105215
0.104138
-0.002091
-0.031954
-0.010146
-0.007243
-0.140967
-0.127322
-0.126613
-0.150221
-0.145883
-0.148901
-0.059571
0.053655
0.051006
-0.096283
-0.057709
-0.064564
-0.150321
-0.062456
-0.125507
-0.116490
-0.139911
-0.128871
-0.127139
-0.141792
-0.072865
-0.068879
-0.069818
-0.071075
0.095316
-0.125755
-0.137027
0.058437
-0.127438
-0.140741
0.088467
0.090432
0.085908
0.085190
0.080528
0.077308
0.092533
-0.161450
-0.155432
-0.163236
-0.138863
-0.142080
-0.140163
-0.029459
-0.037434
-0.142709
-0.150000
-0.149471
-0.033200
-0.025047
-0.130733
-0.140113
-0.036474
-0.014362
-0.139834
-0.153761
-0.165473
0.100426
-0.026353
-0.147112
-0.151796
-0.144895
-0.080777
-0.085789
-0.041710
-0.047278
-0.039819
-0.052679
-0.049655
-0.087939
0.046504
0.034977
0.041938
0.026892
0.060091
-0.033274
-0.004970
0.014360
0.024105
-0.118872
-0.143159
-0.113489
-0.115055
-0.116255
0.117531
0.121507
-0.084360
-0.085277
-0.087051
-0.086300
-0.024518
-0.027885
-0.128387
-0.126751
-0.116367
-0.137001
-0.073622
-0.056601
-0.140460
0.057907
0.063463
-0.147001
-0.072401
-0.068859
-0.061120
0.099131
0.098968
0.099005
0.105424
-0.155365
-0.157261
0.112951
-0.140719
-0.119427
-0.142913
0.051157
-0.125180
-0.121501
-0.114035
-0.135718
-0.130928
-0.129416
-0.118588
0.051973
0.054742
0.045264
-0.000377
-0.000073
0.001813
-0.001301
-0.003061
-0.003290
0.020555
0.016546
-0.131060
0.082819
0.068997
-0.126360
-0.114492
-0.112743
0.074934
0.070238
-0.084972
-0.139728
-0.094056
-0.140235
-0.139544
-0.115775
-0.113643
-0.116780
0.098741
0.094695
-0.129903
-0.061825
0.000847
0.035975
0.048469
0.050915
0.055783
0.031643
0.038050
0.043134
-0.135009
-0.139646
-0.128170
-0.089093
-0.086489
-0.116917
-0.174992
-0.114313
0.071036
0.066296
0.058737
0.078133
-0.122272
-0.121371
-0.110028
-0.130755
0.032181
-0.128587
-0.121633
-0.114810
-0.037675
0.010796
0.015831
-0.164528
0.040987
0.036926
-0.144090
-0.031323
-0.143865
0.030215
-0.067650
0.009739
-0.123414
0.044086
-0.157469
0.013297
-0.137577
-0.116651
-0.110221
-0.114020
-0.154798
0.114058
0.123559
0.105026
0.124516
-0.052555
-0.049347
-0.050888
-0.104802
-0.114614
-0.096637
-0.102216
-0.051416
-0.047458
-0.124687
-0.040270
-0.035662
-0.048539
-0.125292
-0.122525
-0.125145
-0.123791
-0.122808
-0.121409
-0.058502
-0.142592
-0.042606
-0.096292
0.120605
-0.041261
-0.030557
0.017532
-0.050963
-0.070280
-0.065609
-0.122106
-0.130083
-0.133688
-0.071618
-0.069864
-0.074066
0.069679
0.076299
0.070937
0.080254
0.013735
0.013869
0.015995
0.009825
-0.137237
-0.166975
-0.069616
-0.067447
-0.071428
-0.057213
-0.118434
-0.033034
-0.033189
-0.030650
-0.075455
-0.075670
-0.101967
-0.095206
-0.029150
-0.028231
-0.025592
-0.082322
-0.084595
-0.049924
-0.076916
-0.076749
-0.137110
-0.127659
0.051714
0.055017
-0.082155
-0.078954
-0.079553
0.056231
0.052518
0.017498
0.019967
-0.140963
0.026059
0.015267
-0.120478
-0.118023
-0.118301
-0.003369
-0.002737
-0.007811
-0.124695
-0.126233
0.000194
-0.132131
-0.138084
-0.140063
0.002376
0.001186
-0.082632
-0.084895
-0.091269
-0.088092
-0.099938
-0.008012
-0.010566
-0.010642
-0.087187
-0.081998
-0.106183
-0.086677
-0.112686
-0.110985
-0.108525
0.010076
0.013801
-0.151335
-0.156918
-0.101347
-0.085554
-0.083469
-0.096638
-0.087753
-0.168858
-0.077710
-0.133371
-0.133839
-0.126714
0.024736
-0.130174
-0.132228
-0.138783
-0.138608
-0.033817
-0.096637
-0.158860
-0.037050
-0.001559
0.000730
-0.018237
-0.019471
-0.016152
-0.019527
-0.056263
-0.056649
-0.054343
-0.060257
-0.058366
-0.022537
0.028842
0.025484
-0.096496
-0.086678
-0.090564
-0.118810
-0.114730
-0.077139
-0.073669
-0.085465
-0.052058
-0.113735
-0.047212
-0.049356
-0.041001
-0.048865
0.038845
-0.052405
-0.059526
0.022001
0.025656
0.022345
0.026110
-0.018334
0.012056
-0.093789
-0.091271
-0.036341
-0.026566
-0.032608
-0.067105
-0.072477
-0.119819
-0.123686
-0.123882
-0.110547
-0.108458
-0.073117
-0.072734
-0.083448
-0.037359
-0.031546
-0.040485
-0.026400
-0.039281
0.029242
0.023384
0.064114
0.058865
-0.011828
-0.015081
-0.012344
-0.021514
-0.018872
-0.016688
-0.136024
0.006650
0.004811
0.005515
0.015490
0.021726
0.040421
0.045415
-0.082405
-0.101923
-0.104275
0.063444
0.064292
-0.133427
0.057056
0.064635
0.064974
0.063246
0.065061
-0.172601
-0.172707
-0.168477
-0.172753
-0.170011
0.145577
0.054971
-0.077486
-0.120625
-0.110980
-0.119689
-0.164709
-0.120479
0.046179
0.044225
0.150989
0.162569
-0.016275
-0.018052
-0.023679
-0.098909
-0.024145
-0.071136
-0.060753
-0.057933
-0.125309
0.060352
-0.064079
-0.003470
-0.000776
0.063243
0.069211
0.002279
0.005105
0.013188
0.013411
0.011276
-0.063995
-0.052130
-0.149090
-0.019335
0.037775
0.034642
0.040404
-0.076635
-0.067565
-0.066967
-0.121917
-0.119380
-0.112858
-0.114854
-0.093653
-0.094988
-0.045629
-0.044269
-0.049022
0.019022
-0.121075
-0.115449
-0.127036
0.060979
0.060192
0.023526
-0.020247
-0.024243
-0.041280
-0.117107
-0.092145
-0.124142
0.065715
-0.029156
-0.029478
-0.033291
0.061819
0.061644
0.058503
-0.149323
0.040256
-0.115144
-0.103191
-0.101847
-0.107131
-0.118697
-0.038230
-0.053066
-0.167421
-0.119198
-0.026433
-0.055782
0.020950
-0.082365
-0.046180
-0.103075
-0.107248
-0.103268
-0.050636
0.006006
-0.098845
-0.109494
-0.114401
-0.086562
-0.098919
-0.042255
-0.087145
-0.156799
-0.146379
0.020182
-0.032585
-0.136994
-0.055346
-0.053958
-0.015827
0.057677
0.059729
0.092553
0.084148
-0.114976
0.099963
-0.105215
0.048830
-0.152423
-0.089244
-0.112614
-0.009960
-0.000748
-0.032059
-0.067576
-0.069094
-0.013532
-0.013698
-0.157563
-0.156585
0.084585
0.078658
-0.030647
-0.043696
-0.066754
-0.110391
0.037249
-0.107894
0.042456
0.046534
0.028762
-0.102799
-0.102166
0.056037
0.051578
-0.021148
-0.028283
0.032616
0.097704
0.027303
0.023957
-0.023038
-0.023155
0.058616
0.060011
0.099896
0.078658
0.087559
-0.027644
-0.163707
0.003936
0.088179
-0.027377
-0.126501
-0.046542
-0.013184
-0.114887
-0.110888
-0.005703
0.048634
0.019587
0.025140
-0.122820
-0.075509
-0.156436
-0.133899
-0.086607
-0.089804
-0.094504
-0.097331
-0.117658
-0.097851
-0.086181
-0.081043
-0.009347
-0.046548
-0.036811
-0.037677
-0.059320
0.060296
-0.095925
0.015835
0.015764
-0.012988
-0.112229
-0.101825
-0.069800
-0.061730
-0.059134
0.044162
0.043275
-0.132352
-0.033332
-0.036647
-0.083009
0.010157
0.067283
0.007549
-0.002827
-0.005588
0.033114
-0.002454
-0.098898
-0.032236
0.059325
-0.013523
-0.089177
-0.078337
-0.075561
-0.096241
-0.090103
-0.079418
-0.091981
-0.062578
-0.064736
-0.024869
-0.077585
-0.021970
-0.024299
-0.018570
-0.090744
-0.061086
-0.024508
0.023490
-0.040267
-0.081034
-0.031667
-0.041495
-0.039497
-0.006228
-0.095423
-0.046955
-0.066651
0.006830
-0.043203
0.004269
-0.098133
-0.074735
-0.077013
0.055342
-0.009230
0.062534
-0.027239
-0.025350
0.006107
-0.053082
-0.029121
0.002514
-0.138162
-0.115382
0.004442
-0.014981
0.008066
0.040345
0.046933
-0.097737
-0.081114
-0.041751
-0.064264
-0.055526
-0.054748
-0.087754
-0.064870
-0.077219
-0.056922
-0.064993
-0.047713
0.201862
0.204001
0.190773
0.131145
0.129334
0.126818
0.199085
0.187404
0.000302
0.000054
-0.003145
0.035408
0.041149
0.046112
-0.036285
-0.045130
-0.035022
0.269406
0.255848
0.262581
0.264099
-0.044493
-0.066598
-0.055280
-0.042319
-0.038138
-0.034979
-0.019625
-0.019913
-0.025618
-0.046171
0.105579
0.102163
0.099847
0.106123
-0.032072
-0.014013
-0.036820
-0.041541
-0.034393
-0.006718
-0.003182
0.065314
0.059729
0.057563
0.066337
-0.051783
-0.048815
-0.059496
0.056787
0.053789
0.026712
-0.006986
-0.015305
-0.006145
-0.019260
0.101670
0.086045
-0.057438
-0.027867
-0.019491
-0.047420
-0.039905
-0.045981
-0.010347
-0.006040
-0.006938
-0.036807
-0.037600
-0.031312
-0.032955
-0.001780
0.048102
0.043507
0.051332
0.040626
0.060608
0.053361
0.064289
0.053318
-0.002327
0.001691
0.001816
0.101246
0.097758
0.103350
0.101583
-0.014101
-0.022450
-0.012373
-0.022302
-0.044821
-0.028868
-0.029923
-0.016551
-0.046215
0.168642
0.211418
0.170961
0.213009
0.032253
0.026258
0.033424
0.026878
0.120462
0.120939
0.115678
0.121777