# vtk DataFile Version 2.0
Test
ASCII
DATASET POLYDATA
POINTS 3011 float
0.000000 0.000000 0.000000
2.000000 0.000000 0.000000
2.000000 4.000000 0.000000
0.000000 4.000000 0.000000
0.000000 0.500000 0.000000
1.500000 2.000000 0.000000
2.000000 2.500000 0.000000
0.285714 0.000000 0.000000
0.571429 0.000000 0.000000
0.857143 0.000000 0.000000
1.142857 0.000000 0.000000
1.428571 0.000000 0.000000
1.714286 0.000000 0.000000
2.000000 0.276366 0.000000
2.000000 0.523709 0.000000
2.000000 0.745076 0.000000
2.000000 0.943195 0.000000
2.000000 1.120508 0.000000
2.000000 1.279199 0.000000
2.000000 1.421225 0.000000
2.000000 1.548336 0.000000
2.000000 1.662097 0.000000
2.000000 1.763911 0.000000
2.000000 1.855033 0.000000
2.000000 1.936585 0.000000
2.000000 2.009573 0.000000
2.000000 2.074896 0.000000
2.000000 2.133358 0.000000
2.000000 2.185681 0.000000
2.000000 2.232509 0.000000
2.000000 2.274419 0.000000
2.000000 2.311927 0.000000
2.000000 2.345497 0.000000
2.000000 2.375541 0.000000
2.000000 2.402430 0.000000
2.000000 2.426495 0.000000
2.000000 2.448033 0.000000
2.000000 2.467309 0.000000
2.000000 2.484560 0.000000
2.000000 2.516256 0.000000
2.000000 2.535859 0.000000
2.000000 2.559499 0.000000
2.000000 2.588006 0.000000
2.000000 2.622383 0.000000
2.000000 2.663839 0.000000
2.000000 2.713831 0.000000
2.000000 2.774116 0.000000
2.000000 2.846815 0.000000
2.000000 2.934483 0.000000
2.000000 3.040202 0.000000
2.000000 3.167691 0.000000
2.000000 3.321430 0.000000
2.000000 3.506825 0.000000
2.000000 3.730395 0.000000
1.714286 4.000000 0.000000
1.428571 4.000000 0.000000
1.142857 4.000000 0.000000
0.857143 4.000000 0.000000
0.571429 4.000000 0.000000
0.285714 4.000000 0.000000
0.000000 3.713462 0.000000
0.000000 3.449209 0.000000
0.000000 3.205508 0.000000
0.000000 2.980761 0.000000
0.000000 2.773493 0.000000
0.000000 2.582346 0.000000
0.000000 2.406065 0.000000
0.000000 2.243495 0.000000
0.000000 2.093568 0.000000
0.000000 1.955302 0.000000
0.000000 1.827789 0.000000
0.000000 1.710194 0.000000
0.000000 1.601745 0.000000
0.000000 1.501730 0.000000
0.000000 1.409494 0.000000
0.000000 1.324431 0.000000
0.000000 1.245984 0.000000
0.000000 1.173639 0.000000
0.000000 1.106920 0.000000
0.000000 1.045390 0.000000
0.000000 0.988645 0.000000
0.000000 0.936314 0.000000
0.000000 0.888053 0.000000
0.000000 0.843545 0.000000
0.000000 0.802499 0.000000
0.000000 0.764646 0.000000
0.000000 0.729736 0.000000
0.000000 0.697541 0.000000
0.000000 0.667851 0.000000
0.000000 0.640469 0.000000
0.000000 0.615217 0.000000
0.000000 0.591929 0.000000
0.000000 0.570453 0.000000
0.000000 0.550646 0.000000
0.000000 0.532380 0.000000
0.000000 0.515535 0.000000
0.000000 0.483768 0.000000
0.000000 0.461535 0.000000
0.000000 0.431083 0.000000
0.000000 0.389372 0.000000
0.000000 0.332241 0.000000
0.000000 0.253989 0.000000
0.000000 0.146807 0.000000
0.010563 0.510563 0.000000
0.021127 0.521127 0.000000
0.031690 0.531690 0.000000
0.042254 0.542254 0.000000
0.052817 0.552817 0.000000
0.063380 0.563380 0.000000
0.073944 0.573944 0.000000
0.084507 0.584507 0.000000
0.095070 0.595070 0.000000
0.105634 0.605634 0.000000
0.116197 0.616197 0.000000
0.126761 0.626761 0.000000
0.137324 0.637324 0.000000
0.147887 0.647887 0.000000
0.158451 0.658451 0.000000
0.169014 0.669014 0.000000
0.179577 0.679577 0.000000
0.190141 0.690141 0.000000
0.200704 0.700704 0.000000
0.211268 0.711268 0.000000
0.221831 0.721831 0.000000
0.232394 0.732394 0.000000
0.242958 0.742958 0.000000
0.253521 0.753521 0.000000
0.264085 0.764085 0.000000
0.274648 0.774648 0.000000
0.285211 0.785211 0.000000
0.295775 0.795775 0.000000
0.306338 0.806338 0.000000
0.316901 0.816901 0.000000
0.327465 0.827465 0.000000
0.338028 0.838028 0.000000
0.348592 0.848592 0.000000
0.359155 0.859155 0.000000
0.369718 0.869718 0.000000
0.380282 0.880282 0.000000
0.390845 0.890845 0.000000
0.401408 0.901408 0.000000
0.411972 0.911972 0.000000
0.422535 0.922535 0.000000
0.433099 0.933099 0.000000
0.443662 0.943662 0.000000
0.454225 0.954225 0.000000
0.464789 0.964789 0.000000
0.475352 0.975352 0.000000
0.485915 0.985915 0.000000
0.496479 0.996479 0.000000
0.507042 1.007042 0.000000
0.517606 1.017606 0.000000
0.528169 1.028169 0.000000
0.538732 1.038732 0.000000
0.549296 1.049296 0.000000
0.559859 1.059859 0.000000
0.570423 1.070423 0.000000
0.580986 1.080986 0.000000
0.591549 1.091549 0.000000
0.602113 1.102113 0.000000
0.612676 1.112676 0.000000
0.623239 1.123239 0.000000
0.633803 1.133803 0.000000
0.644366 1.144366 0.000000
0.654930 1.154930 0.000000
0.665493 1.165493 0.000000
0.676056 1.176056 0.000000
0.686620 1.186620 0.000000
0.697183 1.197183 0.000000
0.707746 1.207746 0.000000
0.718310 1.218310 0.000000
0.728873 1.228873 0.000000
0.739437 1.239437 0.000000
0.750000 1.250000 0.000000
0.760563 1.260563 0.000000
0.771127 1.271127 0.000000
0.781690 1.281690 0.000000
0.792254 1.292254 0.000000
0.802817 1.302817 0.000000
0.813380 1.313380 0.000000
0.823944 1.323944 0.000000
0.834507 1.334507 0.000000
0.845070 1.345070 0.000000
0.855634 1.355634 0.000000
0.866197 1.366197 0.000000
0.876761 1.376761 0.000000
0.887324 1.387324 0.000000
0.897887 1.397887 0.000000
0.908451 1.408451 0.000000
0.919014 1.419014 0.000000
0.929577 1.429577 0.000000
0.940141 1.440141 0.000000
0.950704 1.450704 0.000000
0.961268 1.461268 0.000000
0.971831 1.471831 0.000000
0.982394 1.482394 0.000000
0.992958 1.492958 0.000000
1.003521 1.503521 0.000000
1.014085 1.514085 0.000000
1.024648 1.524648 0.000000
1.035211 1.535211 0.000000
1.045775 1.545775 0.000000
1.056338 1.556338 0.000000
1.066901 1.566901 0.000000
1.077465 1.577465 0.000000
1.088028 1.588028 0.000000
1.098592 1.598592 0.000000
1.109155 1.609155 0.000000
1.119718 1.619718 0.000000
1.130282 1.630282 0.000000
1.140845 1.640845 0.000000
1.151408 1.651408 0.000000
1.161972 1.661972 0.000000
1.172535 1.672535 0.000000
1.183099 1.683099 0.000000
1.193662 1.693662 0.000000
1.204225 1.704225 0.000000
1.214789 1.714789 0.000000
1.225352 1.725352 0.000000
1.235915 1.735915 0.000000
1.246479 1.746479 0.000000
1.257042 1.757042 0.000000
1.267606 1.767606 0.000000
1.278169 1.778169 0.000000
1.288732 1.788732 0.000000
1.299296 1.799296 0.000000
1.309859 1.809859 0.000000
1.320423 1.820423 0.000000
1.330986 1.830986 0.000000
1.341549 1.841549 0.000000
1.352113 1.852113 0.000000
1.362676 1.862676 0.000000
1.373239 1.873239 0.000000
1.383803 1.883803 0.000000
1.394366 1.894366 0.000000
1.404930 1.904930 0.000000
1.415493 1.915493 0.000000
1.426056 1.926056 0.000000
1.436620 1.936620 0.000000
1.447183 1.947183 0.000000
1.457746 1.957746 0.000000
1.468310 1.968310 0.000000
1.478873 1.978873 0.000000
1.489437 1.989437 0.000000
1.510417 2.010417 0.000000
1.520833 2.020833 0.000000
1.531250 2.031250 0.000000
1.541667 2.041667 0.000000
1.552083 2.052083 0.000000
1.562500 2.062500 0.000000
1.572917 2.072917 0.000000
1.583333 2.083333 0.000000
1.593750 2.093750 0.000000
1.604167 2.104167 0.000000
1.614583 2.114583 0.000000
1.625000 2.125000 0.000000
1.635417 2.135417 0.000000
1.645833 2.145833 0.000000
1.656250 2.156250 0.000000
1.666667 2.166667 0.000000
1.677083 2.177083 0.000000
1.687500 2.187500 0.000000
1.697917 2.197917 0.000000
1.708333 2.208333 0.000000
1.718750 2.218750 0.000000
1.729167 2.229167 0.000000
1.739583 2.239583 0.000000
1.750000 2.250000 0.000000
1.760417 2.260417 0.000000
1.770833 2.270833 0.000000
1.781250 2.281250 0.000000
1.791667 2.291667 0.000000
1.802083 2.302083 0.000000
1.812500 2.312500 0.000000
1.822917 2.322917 0.000000
1.833333 2.333333 0.000000
1.843750 2.343750 0.000000
1.854167 2.354167 0.000000
1.864583 2.364583 0.000000
1.875000 2.375000 0.000000
1.885417 2.385417 0.000000
1.895833 2.395833 0.000000
1.906250 2.406250 0.000000
1.916667 2.416667 0.000000
1.927083 2.427083 0.000000
1.937500 2.437500 0.000000
1.947917 2.447917 0.000000
1.958333 2.458333 0.000000
1.968750 2.468750 0.000000
1.979167 2.479167 0.000000
1.989583 2.489583 0.000000
0.206561 0.791563 0.000000
0.205359 0.816165 0.000000
0.186354 0.798211 0.000000
0.221961 0.800924 0.000000
0.280649 1.360489 0.000000
0.304015 1.400469 0.000000
0.229142 1.396096 0.000000
0.275922 1.451476 0.000000
1.869084 2.391788 0.000000
1.857928 2.378421 0.000000
1.238669 2.061899 0.000000
1.278787 2.082276 0.000000
1.238298 2.096047 0.000000
1.277579 2.032995 0.000000
0.402536 1.205823 0.000000
0.415290 1.176040 0.000000
0.428330 1.201952 0.000000
0.387294 1.172617 0.000000
0.146930 1.050586 0.000000
0.109488 1.087198 0.000000
0.102742 1.042403 0.000000
0.157178 1.091184 0.000000
0.588967 1.178581 0.000000
0.593116 1.153718 0.000000
0.608054 1.166752 0.000000
0.612180 1.145944 0.000000
0.860304 1.543784 0.000000
0.868821 1.521840 0.000000
0.878420 1.536650 0.000000
0.845380 1.517623 0.000000
1.129525 1.764330 0.000000
1.142005 1.751560 0.000000
1.145757 1.773681 0.000000
1.159368 1.759106 0.000000
1.968150 2.518865 0.000000
1.986105 2.509269 0.000000
1.986696 2.531115 0.000000
0.668964 1.191005 0.000000
0.683291 1.201259 0.000000
0.557625 1.074830 0.000000
0.569760 1.084377 0.000000
0.557769 1.089278 0.000000
0.707567 1.266174 0.000000
0.719026 1.281845 0.000000
0.700768 1.282275 0.000000
0.722329 1.266956 0.000000
0.468225 2.149688 0.000000
0.419106 2.064198 0.000000
0.523878 2.082648 0.000000
0.838546 1.421191 0.000000
0.823708 1.410355 0.000000
0.840477 1.404206 0.000000
0.818500 1.425973 0.000000
0.953187 1.488222 0.000000
0.959780 1.473222 0.000000
0.967054 1.485637 0.000000
1.047418 1.769126 0.000000
1.080240 1.782403 0.000000
1.047768 1.802712 0.000000
0.971392 1.693320 0.000000
0.949208 1.720793 0.000000
0.940644 1.684781 0.000000
0.381391 2.160909 0.000000
0.944091 1.477800 0.000000
0.530075 1.477351 0.000000
0.521303 1.516669 0.000000
0.474240 1.491166 0.000000
0.489489 1.546185 0.000000
1.537370 2.239326 0.000000
1.555275 2.267640 0.000000
1.532966 2.278201 0.000000
0.962010 1.661716 0.000000
0.986804 1.643200 0.000000
0.986259 1.672729 0.000000
1.049149 1.737940 0.000000
1.075111 1.737123 0.000000
[...]
POINT_DATA 3011
SCALARS UX float 1
LOOKUP_TABLE default
-0.000000
0.000000
-0.128954
-0.154459
-0.031480
-0.068372
0.011936
-0.000000
-0.000000
-0.000000
-0.000000
0.000000
-0.000000
0.007571
0.011340
0.014689
0.017799
0.020765
0.023553
0.026106
0.028292
0.029985
0.031148
0.031764
0.032062
0.032158
0.032341
0.032897
0.033800
0.035504
0.038160
0.041863
0.047099
0.053003
0.051315
0.040973
0.035824
0.034596
0.035733
-0.004543
-0.068056
-0.106364
-0.112652
-0.116291
-0.118059
-0.119233
-0.120335
-0.121322
-0.122323
-0.123438
-0.124636
-0.126151
-0.127638
-0.128530
-0.133733
-0.138000
-0.141796
-0.145283
-0.148560
-0.151568
-0.153955
-0.153079
-0.151622
-0.149913
-0.148089
-0.146290
-0.144560
-0.142933
-0.141376
-0.139860
-0.138331
-0.136806
-0.135312
-0.133843
-0.132429
-0.131144
-0.129943
-0.128705
-0.127354
-0.125992
-0.124850
-0.124182
-0.122510
-0.119152
-0.112773
-0.110450
-0.091006
-0.005679
0.068912
-0.198887
-0.143076
-0.109300
-0.076625
-0.071598
-0.040956
-0.035896
-0.028376
-0.025750
-0.023135
-0.016493
-0.010687
-0.006643
-0.004502
-0.035503
-0.040768
-0.041846
-0.046396
-0.053202
-0.062649
-0.072384
-0.101418
-0.108397
-0.074880
-0.138072
-0.224747
-0.332756
0.030013
0.044801
0.070321
-0.014443
-0.056839
-0.059327
-0.067026
-0.080502
-0.059823
-0.056748
-0.086438
-0.089503
-0.086436
-0.086081
-0.442558
-0.054486
-0.037278
-0.007355
-0.013962
-0.012985
-0.013103
-0.013540
-0.098945
-0.115371
-0.080263
-0.089848
-0.099347
-0.070376
-0.060921
-0.035738
-0.267291
-0.127982
-0.024992
-0.067558
-0.105865
-0.045511
-0.077383
0.125718
0.309063
0.426088
0.302865
0.122919
-0.126752
-0.117419
-0.111271
-0.106575
-0.071808
-0.048639
-0.074306
-0.077502
-0.079835
-0.089250
-0.081153
-0.043104
-0.045460
-0.065505
-0.048872
-0.023968
-0.020933
0.111668
0.011168
0.007816
0.017514
-0.054810
-0.054732
-0.062021
-0.120078
-0.116899
-0.099859
-0.058326
-0.102271
-0.103311
-0.131185
-0.057441
-0.027201
0.012180
-0.090193
-0.075015
-0.043148
-0.053705
-0.064295
-0.061944
-0.068168
-0.059896
-0.065276
-0.062145
-0.060646
-0.051401
-0.039489
-0.037077
-0.049376
-0.044350
-0.046613
-0.043650
-0.041051
-0.023789
-0.022130
-0.039421
-0.041874
-0.054031
-0.070882
-0.069077
-0.026738
0.051467
0.126408
0.055036
-0.015312
-0.049713
-0.043557
-0.040135
-0.044278
-0.065918
-0.078975
-0.098828
-0.058951
-0.060193
-0.052650
-0.050773
-0.056724
-0.057512
-0.053496
-0.043608
-0.035277
-0.032025
-0.029204
-0.021762
-0.258971
-0.010731
-0.075250
-0.093770
-0.081797
-0.079523
-0.092720
-0.106130
-0.093641
-0.108434
-0.109034
-0.099405
-0.086334
-0.076615
-0.078759
-0.080990
-0.085935
-0.117769
-0.075370
-0.059900
-0.095769
-0.103727
-0.101363
-0.086942
-0.078282
-0.086270
-0.075541
-0.069921
-0.064661
-0.044099
-0.037878
-0.034897
-0.034543
-0.026142
-0.011361
-0.007870
-0.017712
-0.018437
-0.014510
-0.025088
-0.022930
-0.009549
0.004926
0.006426
-0.007961
-0.016899
-0.011047
0.002759
0.011162
-0.111342
-0.106478
-0.108144
-0.111533
-0.128368
-0.128951
-0.129538
-0.130070
-0.065639
0.006509
-0.127438
-0.126467
-0.127193
-0.127183
-0.122387
-0.120817
-0.121919
-0.121130
-0.123764
-0.125166
-0.124058
-0.124518
-0.113161
-0.109553
-0.089685
-0.092928
-0.123736
-0.122346
-0.122957
-0.122892
-0.124049
-0.122555
-0.123402
-0.122064
-0.076620
-0.025967
-0.069247
-0.095515
-0.112086
-0.425462
-0.138048
-0.098734
-0.135473
-0.123953
-0.127713
-0.113386
-0.136683
-0.136298
-0.135305
-0.107675
-0.108423
-0.103174
-0.114441
-0.096211
-0.093633
-0.095606
-0.126166
-0.125738
-0.126429
-0.126443
-0.126823
-0.126358
-0.137805
-0.094532
-0.128318
-0.128783
-0.129001
-0.129489
-0.120995
-0.120871
-0.121618
-0.125788
-0.125228
-0.126083
-0.125719
-0.125016
-0.125589
-0.120202
-0.125097
-0.107332
-0.055350
-0.076790
-0.096256
-0.124430
-0.123624
-0.124152
-0.122915
-0.123804
-0.123493
-0.127123
-0.127017
-0.126489
-0.130364
-0.129748
-0.130686
-0.126327
-0.130433
-0.123340
-0.123157
-0.124475
-0.121786
-0.131271
-0.131421
-0.130713
-0.132606
-0.132790
-0.131626
-0.131636
-0.120796
-0.120063
-0.121421
-0.133000
-0.126418
-0.127372
-0.126091
-0.126145
-0.125451
-0.125801
-0.125577
-0.127284
-0.135624
-0.135983
-0.137353
-0.113277
-0.105415
-0.106147
-0.131186
-0.130288
-0.130499
-0.123403
-0.122178
-0.129491
-0.126761
-0.127316
-0.127405
-0.126546
-0.116683
-0.119665
-0.118981
-0.124659
-0.125495
-0.125701
-0.116498
-0.051493
-0.011330
-0.063032
-0.123009
-0.121294
-0.122713
-0.127531
-0.128781
-0.119697
-0.128742
-0.128157
-0.128115
-0.126265
-0.127513
-0.126607
-0.125839
-0.122374
-0.123457
-0.121159
-0.139853
-0.099940
-0.128542
-0.112758
-0.126515
-0.116531
-0.108270
-0.112745
-0.126049
-0.126498
-0.125630
-0.124461
-0.123670
-0.124842
-0.119415
-0.123719
-0.121340
-0.125151
-0.142798
-0.116281
-0.114706
-0.118418
-0.121440
-0.118782
-0.126928
-0.121025
-0.114964
-0.114708
-0.118263
-0.115188
-0.117235
-0.110431
-0.123224
-0.090559
-0.104720
-0.105855
-0.118361
-0.113740
-0.116802
-0.112445
-0.119543
-0.119422
-0.120850
-0.125114
-0.123280
-0.116576
-0.127190
-0.126908
-0.126400
-0.128111
-0.095589
-0.081750
-0.119756
-0.127386
-0.127444
-0.126900
-0.113753
-0.115013
-0.117238
-0.130630
-0.130429
-0.132990
-0.133093
-0.047301
-0.037001
-0.104808
-0.115943
-0.115933
-0.117330
-0.119164
-0.119573
-0.121727
-0.117912
-0.118256
-0.116568
-0.122805
-0.123421
-0.122293
-0.123760
-0.121919
-0.121191
-0.120998
-0.105940
-0.101011
-0.123438
-0.123234
-0.123539
-0.121428
-0.108539
-0.107034
-0.111507
-0.105961
-0.125102
-0.126149
-0.125312
-0.111428
-0.111721
-0.120084
-0.107544
-0.106097
-0.110516
-0.087330
-0.103074
-0.115549
-0.122240
-0.121785
-0.124316
-0.123255
-0.122990
-0.121327
-0.117086
-0.113903
-0.108524
-0.116712
-0.116658
-0.113551
-0.121154
-0.117393
-0.113657
-0.106428
-0.118965
-0.132244
-0.104389
-0.113783
-0.125929
-0.124904
-0.125119
-0.099393
-0.114519
-0.117256
-0.116705
-0.118465
-0.123498
-0.122355
-0.123186
-0.124307
-0.124561
-0.054732
-0.053970
-0.092602
-0.119105
-0.121978
-0.117661
-0.122779
-0.121045
-0.122273
-0.119838
-0.123081
-0.061377
-0.062145
-0.072056
-0.151626
-0.190969
-0.127471
-0.124418
-0.126797
-0.123666
-0.124712
-0.125589
-0.121618
-0.126905
-0.126732
-0.125904
-0.122284
-0.122561
-0.116318
-0.110828
-0.119128
-0.116652
-0.120671
-0.120816
-0.122366
-0.123860
-0.123401
-0.124843
-0.124536
-0.122319
-0.114438
-0.118200
-0.100274
-0.144481
-0.145288
-0.147493
-0.086107
-0.117025
-0.117948
-0.117231
-0.119060
-0.128605
-0.127920
-0.128155
-0.127687
-0.132036
-0.131159
-0.131702
-0.130741
-0.110747
-0.107820
-0.107409
-0.103497
-0.113393
-0.114598
-0.133513
-0.135007
-0.133988
-0.137030
-0.130792
-0.042499
-0.227349
-0.118871
-0.120126
-0.126111
-0.126664
-0.126813
-0.125203
-0.126428
-0.119088
-0.119863
-0.119613
-0.120990
-0.120906
-0.125248
-0.126035
-0.126205
-0.126887
-0.112777
-0.111694
-0.110451
-0.112696
-0.125468
-0.123966
-0.105483
-0.099400
-0.100226
-0.109533
-0.113695
-0.432914
-0.109635
0.123720
0.415220
-0.474501
-0.087355
-0.088804
-0.072814
-0.085075
-0.079624
-0.130886
-0.130142
-0.129685
-0.127297
-0.150029
-0.149150
-0.148124
-0.152066
-0.150151
-0.118794
-0.118504
-0.117475
-0.120129
-0.120386
-0.119295
-0.116343
-0.119102
-0.118077
-0.132982
-0.131801
-0.133030
-0.134367
-0.123032
-0.121440
-0.122667
-0.123977
-0.126401
-0.126554
-0.119310
-0.118075
-0.116945
-0.116596
-0.064958
0.071917
-0.071027
-0.057941
-0.068488
-0.084269
-0.100089
-0.109241
-0.114096
-0.094723
-0.115021
-0.113838
-0.127937
-0.127636
-0.128816
-0.129339
-0.128052
-0.134927
-0.137383
-0.135692
-0.138825
-0.125662
-0.126378
-0.124480
0.045101
-0.008473
0.028326
-0.122521
-0.118310
-0.130956
-0.106978
-0.114411
-0.113975
-0.115951
-0.086743
-0.105027
-0.115657
-0.113721
-0.110578
-0.089958
-0.105668
-0.101482
-0.136256
-0.084613
-0.097808
-0.069141
-0.046181
-0.070834
-0.045816
-0.048412
-0.127745
-0.127502
-0.122722
-0.121352
-0.120822
-0.107655
-0.125564
-0.124754
-0.124623
-0.120005
-0.125157
-0.126530
-0.126087
-0.125318
-0.126594
-0.125784
-0.124884
-0.129871
-0.131131
-0.119423
-0.115452
-0.118700
-0.113549
-0.117638
-0.105099
-0.118738
-0.140021
-0.137474
-0.122503
-0.125957
-0.119432
-0.120918
-0.031299
-0.212187
-0.188683
-0.024496
-0.102353
-0.118201
-0.118421
-0.119990
-0.092966
-0.095161
-0.083805
-0.135881
-0.134268
-0.135151
-0.133558
-0.134151
-0.107479
-0.078939
-0.092801
-0.110607
-0.124248
-0.125606
-0.091223
-0.057697
-0.072009
-0.057358
-0.127492
-0.127989
-0.127862
-0.128457
-0.128425
-0.129755
-0.129077
-0.129878
-0.130430
-0.106829
-0.106963
-0.116284
-0.116395
-0.122859
-0.123851
-0.124473
-0.126253
-0.125884
-0.066776
-0.081299
-0.096027
-0.126936
-0.127358
-0.119472
-0.120569
-0.126672
-0.126170
-0.129492
-0.130764
-0.130223
-0.129412
-0.108370
-0.067327
-0.111675
-0.043760
-0.112569
-0.062373
-0.073939
-0.093736
-0.107508
-0.108419
-0.130819
-0.130188
-0.129545
-0.130189
-0.129469
-0.128850
-0.121054
-0.119663
-0.115571
-0.115275
-0.128557
-0.128088
-0.116028
-0.117685
-0.112655
-0.119922
-0.121843
-0.062349
-0.082292
-0.078492
-0.078126
-0.082594
-0.125850
-0.041612
-0.028412
-0.125119
-0.128137
-0.128846
-0.011942
-0.038204
-0.107826
-0.062399
-0.130377
-0.131634
-0.132660
-0.126988
-0.127902
-0.127575
-0.126669
-0.112420
-0.116710
-0.119425
-0.117898
-0.128243
-0.126322
-0.126788
-0.127378
-0.126982
-0.090549
-0.105604
-0.099562
-0.085118
-0.091674
-0.092453
-0.141221
-0.141038
-0.139580
-0.142606
-0.143270
0.046300
0.200737
-0.132051
-0.133196
-0.134033
-0.131085
-0.134779
-0.136038
-0.127046
0.254721
-0.137332
-0.194863
-0.127172
-0.133076
-0.133398
-0.090185
-0.089941
-0.080303
-0.110116
-0.107931
-0.142537
-0.139806
-0.142007
-0.140227
-0.096023
-0.054864
-0.124575
-0.127849
-0.128137
-0.127506
-0.126602
-0.124360
-0.125718
-0.124852
-0.104162
-0.108086
-0.106632
-0.104658
-0.129425
-0.128630
-0.129273
-0.128482
-0.129092
-0.129151
-0.130215
-0.126114
-0.125627
-0.125709
-0.124952
-0.122099
-0.128239
-0.131014
-0.131587
-0.132608
-0.132957
-0.147457
-0.145508
-0.146568
-0.144548
-0.365119
-0.164974
-0.118520
-0.118479
-0.024461
-0.120850
-0.122785
-0.123089
-0.120975
-0.131362
-0.132800
-0.130367
-0.126791
-0.126354
-0.122915
-0.117191
-0.114673
-0.121809
-0.095185
-0.103954
-0.145979
-0.118414
-0.109415
-0.120129
-0.139549
-0.140276
-0.138317
-0.128626
-0.139504
-0.107082
-0.126541
-0.114814
-0.091017
-0.103533
-0.111647
-0.139280
-0.142810
-0.139533
-0.508716
-0.122610
-0.066144
-0.024096
-0.016095
-0.039446
-0.499829
-0.119305
-0.120788
-0.120414
-0.077477
-0.094977
0.011008
-0.345549
-0.100000
-0.075030
-0.079445
-0.352385
-0.130778
-0.132925
-0.133280
-0.135386
-0.117106
-0.118924
-0.126067
-0.125502
-0.138046
-0.137976
-0.123759
-0.127897
-0.121958
-0.121378
-0.120973
-0.120055
-0.132083
-0.126657
-0.126373
-0.126314
-0.137888
-0.136368
-0.134272
-0.135408
-0.134107
-0.145090
-0.126813
-0.127250
-0.127503
-0.128420
-0.125934
-0.127743
-0.140693
-0.125996
-0.124620
-0.124780
-0.128676
-0.128408
-0.090209
-0.098533
-0.128982
-0.130294
-0.136669
-0.137981
-0.127724
-0.127563
-0.119904
-0.124330
-0.125868
-0.125840
-0.118767
-0.128912
-0.115479
-0.117142
-0.114262
-0.143631
-0.130340
-0.121037
-0.127314
-0.127313
-0.117307
-0.126580
0.004842
-0.116484
-0.121264
-0.121100
-0.140933
-0.138931
-0.117593
-0.142819
-0.127119
-0.127457
-0.126631
-0.124083
-0.129554
-0.128840
-0.128897
-0.040411
-0.052011
-0.128092
-0.110295
-0.112187
-0.094256
-0.142199
-0.141015
-0.111673
-0.103294
-0.108482
-0.100609
-0.113835
-0.122184
-0.148270
-0.112582
-0.127118
-0.127681
-0.115189
-0.118439
-0.123222
-0.130236
-0.131140
-0.088850
-0.094151
-0.127271
-0.126370
-0.137864
-0.136482
-0.134455
-0.134960
-0.099399
-0.094445
-0.100365
-0.122032
-0.122660
-0.128584
-0.127381
-0.130940
-0.129838
-0.128964
-0.127477
-0.127097
-0.127013
-0.149102
-0.095772
-0.134318
-0.128059
-0.128962
-0.100699
-0.097871
-0.105111
-0.121520
-0.129533
-0.128728
-0.129522
-0.231122
0.041750
-0.114899
-0.113213
-0.133342
-0.133108
-0.140215
-0.143131
-0.135955
-0.089102
-0.139687
-0.131959
-0.130934
-0.123639
-0.128477
-0.127633
-0.126659
-0.126645
-0.126853
-0.129461
-0.137381
-0.139579
-0.138818
-0.128849
-0.131761
-0.109365
-0.156125
-0.096142
-0.128189
-0.128157
-0.127610
-0.129414
-0.130120
-0.112704
-0.109664
-0.112786
-0.111166
-0.060968
-0.073569
-0.092452
-0.129437
-0.128635
-0.224363
-0.126256
-0.124817
-0.125195
-0.126016
-0.128938
-0.020843
-0.033153
-0.129670
-0.085009
-0.129871
-0.128129
-0.084027
-0.077930
-0.077234
-0.109994
-0.108808
-0.109911
-0.135864
-0.120786
-0.121604
-0.126246
-0.127705
-0.127709
-0.103577
-0.128186
-0.095654
-0.045430
-0.069577
-0.088839
-0.059739
-0.123896
-0.127503
-0.127445
-0.127841
-0.127054
-0.089880
-0.091066
-0.087675
-0.121051
-0.094177
-0.095368
-0.121347
-0.122711
-0.122275
-0.123412
-0.122074
-0.123458
-0.124568
-0.072447
0.162090
-0.083002
-0.128944
-0.129488
-0.130558
-0.131804
-0.132248
-0.122341
-0.130838
-0.111631
-0.139633
-0.137685
-0.080853
-0.093980
-0.126560
-0.141105
-0.123474
-0.109176
-0.125743
-0.056997
-0.134532
-0.132044
-0.132802
-0.131012
-0.129477
-0.130065
-0.128583
-0.132028
-0.133372
-0.132855
-0.134071
-0.132130
-0.137888
-0.138146
-0.136117
-0.136949
-0.137314
-0.141103
-0.150495
-0.095944
-0.097804
-0.014006
-0.118011
-0.126597
-0.127280
-0.127959
-0.128517
-0.130834
-0.126440
-0.126980
-0.126600
-0.126053
-0.060895
-0.043505
-0.107340
-0.097949
-0.144577
-0.083992
-0.128137
-0.126997
-0.133351
-0.124911
-0.124500
-0.111804
-0.134017
-0.133040
-0.134488
-0.072272
-0.125863
-0.124540
-0.125413
-0.120202
-0.119109
-0.122147
-0.118614
-0.124598
-0.118641
-0.124621
-0.094969
-0.094668
-0.084404
-0.113455
-0.131937
-0.126084
-0.108756
-0.125843
-0.127042
-0.126533
-0.115743
-0.112201
-0.115974
-0.118533
-0.114074
-0.127605
-0.105856
-0.103642
-0.110087
-0.133143
-0.133000
0.068686
-0.015586
0.116170
-0.121797
-0.122629
-0.131062
-0.118235
-0.131120
-0.128142
-0.127036
-0.124829
-0.124277
-0.125261
-0.064975
-0.109589
-0.124150
-0.132483
-0.142602
-0.126642
-0.120347
-0.119557
-0.119952
-0.123183
-0.123550
-0.120052
-0.131153
-0.070322
-0.088456
-0.125254
-0.127445
-0.125660
-0.067052
-0.123720
-0.128430
-0.130685
-0.128894
-0.130660
-0.030592
-0.052533
-0.034159
-0.084082
-0.123980
-0.115341
-0.076960
-0.171392
-0.134802
-0.122534
-0.122941
-0.028372
-0.111281
-0.109377
-0.111004
-0.130902
-0.038270
-0.113249
-0.128346
-0.123415
0.024074
-0.114703
-0.109690
-0.122090
-0.124544
-0.106463
-0.121997
-0.125193
-0.106968
-0.126222
-0.126617
-0.127654
-0.124599
-0.118915
-0.111284
-0.116833
-0.099163
-0.041893
-0.065036
-0.122835
-0.113994
-0.109293
-0.085723
-0.083387
-0.136258
-0.135549
-0.125562
-0.125313
-0.125377
-0.125009
-0.124467
-0.124104
-0.133414
-0.083557
-0.125984
-0.068098
-0.122995
0.037489
0.124344
-0.144815
-0.120800
-0.062234
-0.103590
-0.013795
-0.091227
-0.087202
-0.126252
-0.130791
-0.124809
-0.124404
-0.125068
-0.126256
-0.127029
-0.119159
-0.116404
-0.117519
-0.116637
-0.098950
-0.129898
-0.124033
-0.124337
-0.125330
-0.124489
-0.128795
-0.124858
-0.124080
-0.125223
-0.127086
-0.126750
-0.124357
-0.087569
-0.125548
-0.126242
-0.127001
-0.123893
-0.124499
-0.125546
-0.124365
-0.125399
-0.111450
-0.107454
-0.113611
-0.111790
-0.123780
-0.122317
-0.124038
-0.116875
-0.116765
-0.114885
-0.118042
-0.109896
-0.125688
-0.113303
-0.123271
-0.121595
-0.122730
-0.122300
-0.120410
-0.122470
-0.125516
-0.105914
-0.121216
-0.065151
-0.166034
-0.102457
-0.119219
-0.122740
-0.110642
-0.105294
-0.026892
-0.030448
-0.076706
-0.102929
-0.048206
-0.101264
-0.107650
-0.096845
-0.108323
-0.104844
-0.123758
-0.121399
-0.119539
-0.117034
-0.119793
-0.106670
-0.101434
-0.124129
-0.126591
-0.136637
-0.129265
-0.108248
-0.105489
-0.127432
-0.116510
-0.117005
-0.114435
-0.121895
-0.120586
-0.087455
-0.117707
-0.117272
-0.086315
-0.115423
-0.115078
-0.108148
-0.093126
-0.087103
-0.126314
-0.124049
-0.123558
-0.129204
-0.114743
-0.119613
-0.120868
-0.123229
-0.123828
-0.127883
-0.104552
-0.111824
-0.084044
-0.054615
-0.094376
-0.125852
-0.128862
-0.103029
-0.104901
-0.105245
-0.120182
-0.077543
-0.107347
-0.121421
-0.069346
-0.107926
-0.107540
-0.104660
-0.098380
-0.110882
-0.115372
-0.103063
-0.117999
-0.127587
-0.120752
-0.073292
-0.092224
-0.118224
-0.095539
-0.117222
-0.116442
-0.118558
-0.107704
-0.120900
-0.119021
-0.093719
-0.099996
-0.101578
-0.096416
-0.101383
-0.109110
-0.106365
-0.119541
-0.086710
-0.093999
-0.119316
-0.118319
-0.125550
-0.126035
-0.122758
-0.120108
-0.119221
-0.089518
-0.074225
-0.112486
-0.118434
-0.113192
-0.105422
-0.111724
-0.093743
-0.115103
-0.028269
-0.100919
-0.103863
-0.067341
-0.077503
-0.118509
-0.116715
-0.116992
-0.105172
-0.123375
-0.122049
-0.127022
-0.113937
0.071255
-0.172558
-0.056366
-0.137026
-0.133925
-0.135766
-0.146206
-0.126483
-0.104071
-0.088919
-0.094346
-0.085439
-0.123887
-0.125396
-0.124342
-0.133701
-0.132141
-0.085455
-0.103570
-0.103443
-0.088501
-0.126459
-0.067365
-0.058033
-0.064345
-0.124345
-0.120266
-0.070391
-0.123968
-0.124222
-0.104576
-0.093038
-0.101272
-0.101164
-0.112745
-0.107911
-0.106565
-0.117364
-0.112736
-0.111814
-0.077816
-0.120157
-0.119362
-0.119156
-0.092664
-0.092927
-0.091914
-0.125236
-0.125290
-0.121714
-0.125078
-0.124127
-0.124781
-0.123794
-0.125114
-0.124578
-0.122828
-0.117297
-0.110982
-0.122793
-0.115684
-0.118011
-0.124907
-0.127592
-0.127001
-0.124296
-0.123722
-0.130188
-0.125486
-0.109537
-0.126160
-0.126354
-0.125540
-0.112166
-0.109102
-0.114115
-0.125265
-0.125520
-0.115620
-0.127011
-0.079395
-0.077343
-0.013774
-0.035158
-0.136734
-0.105326
-0.118427
-0.081701
-0.114631
-0.135521
-0.124917
-0.122491
-0.088237
-0.110707
-0.105255
-0.122432
-0.122795
-0.081565
-0.099228
-0.118880
-0.116367
-0.102493
-0.122759
-0.150770
0.037584
0.003459
-0.122187
-0.076941
0.018035
-0.064149
-0.067392
-0.078778
-0.135451
-0.119424
-0.127002
-0.125138
-0.070052
-0.138318
-0.112407
-0.129540
-0.095066
-0.098896
-0.112678
0.062623
-0.036711
-0.058122
-0.130107
-0.123257
-0.125596
-0.126715
-0.113830
-0.112032
-0.141221
-0.143488
-0.123426
-0.035784
-0.126679
-0.117244
-0.118270
-0.136270
-0.118028
-0.119096
-0.134010
-0.120148
-0.103179
-0.118746
-0.118397
-0.092056
-0.110766
-0.135387
-0.129019
-0.119789
-0.119755
-0.119815
-0.092885
-0.110214
-0.103086
-0.135601
-0.128573
-0.129178
-0.119862
-0.105106
-0.103997
-0.131343
-0.124352
-0.114061
-0.092476
-0.104199
-0.081114
0.037703
-0.110375
-0.134637
-0.112218
-0.096988
-0.124258
-0.121130
-0.069442
-0.105219
-0.098619
-0.101914
-0.111321
-0.098475
-0.111921
-0.088896
-0.030160
-0.097471
-0.124131
-0.121435
-0.125137
-0.124174
-0.124885
-0.121703
-0.120986
-0.121243
-0.121884
-0.043979
-0.078227
-0.100618
-0.103943
-0.061297
-0.049830
-0.105449
-0.122996
-0.014571
0.120343
0.022707
-0.095257
-0.124222
-0.095317
-0.120748
-0.100701
-0.101029
-0.147675
-0.109610
-0.114793
-0.090595
-0.095032
-0.069602
-0.100171
-0.082676
-0.139729
-0.097065
-0.098104
-0.139458
-0.102575
-0.125109
-0.124075
-0.126947
-0.098198
-0.127518
-0.127457
-0.127960
-0.103947
-0.126864
-0.089790
-0.120928
-0.089636
-0.103175
-0.060883
-0.109453
-0.122241
-0.123936
-0.110073
-0.119963
-0.126857
-0.121723
-0.120848
-0.121480
-0.117008
-0.126295
-0.123128
-0.100732
-0.082943
-0.131978
-0.115755
-0.126131
-0.111961
-0.120391
-0.125358
-0.123854
-0.118158
-0.120677
-0.118043
-0.127474
-0.115155
-0.116453
-0.117025
-0.120316
-0.099956
-0.121401
-0.010510
-0.009274
-0.008736
-0.012471
-0.008789
-0.009856
-0.026136
-0.010051
-0.009908
0.030008
0.029466
0.029334
0.025601
0.006077
0.025775
0.028910
0.030047
-0.000833
-0.001191
-0.001715
0.009382
0.010418
0.012152
-0.002806
-0.013052
-0.002670
0.031745
0.030617
0.031585
0.031297
-0.004867
-0.010369
-0.008411
-0.004891
-0.005948
-0.003945
-0.004076
-0.003443
-0.004669
-0.010377
0.018436
-0.003665
0.028287
0.003364
-0.003986
-0.002897
-0.004873
-0.006504
-0.004767
-0.002475
-0.001670
0.015860
0.014537
0.014527
0.015589
-0.008209
-0.008590
-0.008932
-0.011686
-0.006914
-0.020136
0.006644
0.005364
0.005704
0.003917
0.025129
0.022298
-0.009339