# vtk DataFile Version 2.0
Test
ASCII
DATASET POLYDATA
POINTS 3011 float
0.000000 0.000000 0.000000
2.000000 0.000000 0.000000
2.000000 4.000000 0.000000
0.000000 4.000000 0.000000
0.000000 0.500000 0.000000
1.500000 2.000000 0.000000
2.000000 2.500000 0.000000
0.285714 0.000000 0.000000
0.571429 0.000000 0.000000
0.857143 0.000000 0.000000
1.142857 0.000000 0.000000
1.428571 0.000000 0.000000
1.714286 0.000000 0.000000
2.000000 0.276366 0.000000
2.000000 0.523709 0.000000
2.000000 0.745076 0.000000
2.000000 0.943195 0.000000
2.000000 1.120508 0.000000
2.000000 1.279199 0.000000
2.000000 1.421225 0.000000
2.000000 1.548336 0.000000
2.000000 1.662097 0.000000
2.000000 1.763911 0.000000
2.000000 1.855033 0.000000
2.000000 1.936585 0.000000
2.000000 2.009573 0.000000
2.000000 2.074896 0.000000
2.000000 2.133358 0.000000
2.000000 2.185681 0.000000
2.000000 2.232509 0.000000
2.000000 2.274419 0.000000
2.000000 2.311927 0.000000
2.000000 2.345497 0.000000
2.000000 2.375541 0.000000
2.000000 2.402430 0.000000
2.000000 2.426495 0.000000
2.000000 2.448033 0.000000
2.000000 2.467309 0.000000
2.000000 2.484560 0.000000
2.000000 2.516256 0.000000
2.000000 2.535859 0.000000
2.000000 2.559499 0.000000
2.000000 2.588006 0.000000
2.000000 2.622383 0.000000
2.000000 2.663839 0.000000
2.000000 2.713831 0.000000
2.000000 2.774116 0.000000
2.000000 2.846815 0.000000
2.000000 2.934483 0.000000
2.000000 3.040202 0.000000
2.000000 3.167691 0.000000
2.000000 3.321430 0.000000
2.000000 3.506825 0.000000
2.000000 3.730395 0.000000
1.714286 4.000000 0.000000
1.428571 4.000000 0.000000
1.142857 4.000000 0.000000
0.857143 4.000000 0.000000
0.571429 4.000000 0.000000
0.285714 4.000000 0.000000
0.000000 3.713462 0.000000
0.000000 3.449209 0.000000
0.000000 3.205508 0.000000
0.000000 2.980761 0.000000
0.000000 2.773493 0.000000
0.000000 2.582346 0.000000
0.000000 2.406065 0.000000
0.000000 2.243495 0.000000
0.000000 2.093568 0.000000
0.000000 1.955302 0.000000
0.000000 1.827789 0.000000
0.000000 1.710194 0.000000
0.000000 1.601745 0.000000
0.000000 1.501730 0.000000
0.000000 1.409494 0.000000
0.000000 1.324431 0.000000
0.000000 1.245984 0.000000
0.000000 1.173639 0.000000
0.000000 1.106920 0.000000
0.000000 1.045390 0.000000
0.000000 0.988645 0.000000
0.000000 0.936314 0.000000
0.000000 0.888053 0.000000
0.000000 0.843545 0.000000
0.000000 0.802499 0.000000
0.000000 0.764646 0.000000
0.000000 0.729736 0.000000
0.000000 0.697541 0.000000
0.000000 0.667851 0.000000
0.000000 0.640469 0.000000
0.000000 0.615217 0.000000
0.000000 0.591929 0.000000
0.000000 0.570453 0.000000
0.000000 0.550646 0.000000
0.000000 0.532380 0.000000
0.000000 0.515535 0.000000
0.000000 0.483768 0.000000
0.000000 0.461535 0.000000
0.000000 0.431083 0.000000
0.000000 0.389372 0.000000
0.000000 0.332241 0.000000
0.000000 0.253989 0.000000
0.000000 0.146807 0.000000
0.010563 0.510563 0.000000
0.021127 0.521127 0.000000
0.031690 0.531690 0.000000
0.042254 0.542254 0.000000
0.052817 0.552817 0.000000
0.063380 0.563380 0.000000
0.073944 0.573944 0.000000
0.084507 0.584507 0.000000
0.095070 0.595070 0.000000
0.105634 0.605634 0.000000
0.116197 0.616197 0.000000
0.126761 0.626761 0.000000
0.137324 0.637324 0.000000
0.147887 0.647887 0.000000
0.158451 0.658451 0.000000
0.169014 0.669014 0.000000
0.179577 0.679577 0.000000
0.190141 0.690141 0.000000
0.200704 0.700704 0.000000
0.211268 0.711268 0.000000
0.221831 0.721831 0.000000
0.232394 0.732394 0.000000
0.242958 0.742958 0.000000
0.253521 0.753521 0.000000
0.264085 0.764085 0.000000
0.274648 0.774648 0.000000
0.285211 0.785211 0.000000
0.295775 0.795775 0.000000
0.306338 0.806338 0.000000
0.316901 0.816901 0.000000
0.327465 0.827465 0.000000
0.338028 0.838028 0.000000
0.348592 0.848592 0.000000
0.359155 0.859155 0.000000
0.369718 0.869718 0.000000
0.380282 0.880282 0.000000
0.390845 0.890845 0.000000
0.401408 0.901408 0.000000
0.411972 0.911972 0.000000
0.422535 0.922535 0.000000
0.433099 0.933099 0.000000
0.443662 0.943662 0.000000
0.454225 0.954225 0.000000
0.464789 0.964789 0.000000
0.475352 0.975352 0.000000
0.485915 0.985915 0.000000
0.496479 0.996479 0.000000
0.507042 1.007042 0.000000
0.517606 1.017606 0.000000
0.528169 1.028169 0.000000
0.538732 1.038732 0.000000
0.549296 1.049296 0.000000
0.559859 1.059859 0.000000
0.570423 1.070423 0.000000
0.580986 1.080986 0.000000
0.591549 1.091549 0.000000
0.602113 1.102113 0.000000
0.612676 1.112676 0.000000
0.623239 1.123239 0.000000
0.633803 1.133803 0.000000
0.644366 1.144366 0.000000
0.654930 1.154930 0.000000
0.665493 1.165493 0.000000
0.676056 1.176056 0.000000
0.686620 1.186620 0.000000
0.697183 1.197183 0.000000
0.707746 1.207746 0.000000
0.718310 1.218310 0.000000
0.728873 1.228873 0.000000
0.739437 1.239437 0.000000
0.750000 1.250000 0.000000
0.760563 1.260563 0.000000
0.771127 1.271127 0.000000
0.781690 1.281690 0.000000
0.792254 1.292254 0.000000
0.802817 1.302817 0.000000
0.813380 1.313380 0.000000
0.823944 1.323944 0.000000
0.834507 1.334507 0.000000
0.845070 1.345070 0.000000
0.855634 1.355634 0.000000
0.866197 1.366197 0.000000
0.876761 1.376761 0.000000
0.887324 1.387324 0.000000
0.897887 1.397887 0.000000
0.908451 1.408451 0.000000
0.919014 1.419014 0.000000
0.929577 1.429577 0.000000
0.940141 1.440141 0.000000
0.950704 1.450704 0.000000
0.961268 1.461268 0.000000
0.971831 1.471831 0.000000
0.982394 1.482394 0.000000
0.992958 1.492958 0.000000
1.003521 1.503521 0.000000
1.014085 1.514085 0.000000
1.024648 1.524648 0.000000
1.035211 1.535211 0.000000
1.045775 1.545775 0.000000
1.056338 1.556338 0.000000
1.066901 1.566901 0.000000
1.077465 1.577465 0.000000
1.088028 1.588028 0.000000
1.098592 1.598592 0.000000
1.109155 1.609155 0.000000
1.119718 1.619718 0.000000
1.130282 1.630282 0.000000
1.140845 1.640845 0.000000
1.151408 1.651408 0.000000
1.161972 1.661972 0.000000
1.172535 1.672535 0.000000
1.183099 1.683099 0.000000
1.193662 1.693662 0.000000
1.204225 1.704225 0.000000
1.214789 1.714789 0.000000
1.225352 1.725352 0.000000
1.235915 1.735915 0.000000
1.246479 1.746479 0.000000
1.257042 1.757042 0.000000
1.267606 1.767606 0.000000
1.278169 1.778169 0.000000
1.288732 1.788732 0.000000
1.299296 1.799296 0.000000
1.309859 1.809859 0.000000
1.320423 1.820423 0.000000
1.330986 1.830986 0.000000
1.341549 1.841549 0.000000
1.352113 1.852113 0.000000
1.362676 1.862676 0.000000
1.373239 1.873239 0.000000
1.383803 1.883803 0.000000
1.394366 1.894366 0.000000
1.404930 1.904930 0.000000
1.415493 1.915493 0.000000
1.426056 1.926056 0.000000
1.436620 1.936620 0.000000
1.447183 1.947183 0.000000
1.457746 1.957746 0.000000
1.468310 1.968310 0.000000
1.478873 1.978873 0.000000
1.489437 1.989437 0.000000
1.510417 2.010417 0.000000
1.520833 2.020833 0.000000
1.531250 2.031250 0.000000
1.541667 2.041667 0.000000
1.552083 2.052083 0.000000
1.562500 2.062500 0.000000
1.572917 2.072917 0.000000
1.583333 2.083333 0.000000
1.593750 2.093750 0.000000
1.604167 2.104167 0.000000
1.614583 2.114583 0.000000
1.625000 2.125000 0.000000
1.635417 2.135417 0.000000
1.645833 2.145833 0.000000
1.656250 2.156250 0.000000
1.666667 2.166667 0.000000
1.677083 2.177083 0.000000
1.687500 2.187500 0.000000
1.697917 2.197917 0.000000
1.708333 2.208333 0.000000
1.718750 2.218750 0.000000
1.729167 2.229167 0.000000
1.739583 2.239583 0.000000
1.750000 2.250000 0.000000
1.760417 2.260417 0.000000
1.770833 2.270833 0.000000
1.781250 2.281250 0.000000
1.791667 2.291667 0.000000
1.802083 2.302083 0.000000
1.812500 2.312500 0.000000
1.822917 2.322917 0.000000
1.833333 2.333333 0.000000
1.843750 2.343750 0.000000
1.854167 2.354167 0.000000
1.864583 2.364583 0.000000
1.875000 2.375000 0.000000
1.885417 2.385417 0.000000
1.895833 2.395833 0.000000
1.906250 2.406250 0.000000
1.916667 2.416667 0.000000
1.927083 2.427083 0.000000
1.937500 2.437500 0.000000
1.947917 2.447917 0.000000
1.958333 2.458333 0.000000
1.968750 2.468750 0.000000
1.979167 2.479167 0.000000
1.989583 2.489583 0.000000
0.206561 0.791563 0.000000
0.205359 0.816165 0.000000
0.186354 0.798211 0.000000
0.221961 0.800924 0.000000
0.280649 1.360489 0.000000
0.304015 1.400469 0.000000
0.229142 1.396096 0.000000
0.275922 1.451476 0.000000
1.869084 2.391788 0.000000
1.857928 2.378421 0.000000
1.238669 2.061899 0.000000
1.278787 2.082276 0.000000
1.238298 2.096047 0.000000
1.277579 2.032995 0.000000
0.402536 1.205823 0.000000
0.415290 1.176040 0.000000
0.428330 1.201952 0.000000
0.387294 1.172617 0.000000
0.146930 1.050586 0.000000
0.109488 1.087198 0.000000
0.102742 1.042403 0.000000
0.157178 1.091184 0.000000
0.588967 1.178581 0.000000
0.593116 1.153718 0.000000
0.608054 1.166752 0.000000
0.612180 1.145944 0.000000
0.860304 1.543784 0.000000
0.868821 1.521840 0.000000
0.878420 1.536650 0.000000
0.845380 1.517623 0.000000
1.129525 1.764330 0.000000
1.142005 1.751560 0.000000
1.145757 1.773681 0.000000
1.159368 1.759106 0.000000
1.968150 2.518865 0.000000
1.986105 2.509269 0.000000
1.986696 2.531115 0.000000
0.668964 1.191005 0.000000
0.683291 1.201259 0.000000
0.557625 1.074830 0.000000
0.569760 1.084377 0.000000
0.557769 1.089278 0.000000
0.707567 1.266174 0.000000
0.719026 1.281845 0.000000
0.700768 1.282275 0.000000
0.722329 1.266956 0.000000
0.468225 2.149688 0.000000
0.419106 2.064198 0.000000
0.523878 2.082648 0.000000
0.838546 1.421191 0.000000
0.823708 1.410355 0.000000
0.840477 1.404206 0.000000
0.818500 1.425973 0.000000
0.953187 1.488222 0.000000
0.959780 1.473222 0.000000
0.967054 1.485637 0.000000
1.047418 1.769126 0.000000
1.080240 1.782403 0.000000
1.047768 1.802712 0.000000
0.971392 1.693320 0.000000
0.949208 1.720793 0.000000
0.940644 1.684781 0.000000
0.381391 2.160909 0.000000
0.944091 1.477800 0.000000
0.530075 1.477351 0.000000
0.521303 1.516669 0.000000
0.474240 1.491166 0.000000
0.489489 1.546185 0.000000
1.537370 2.239326 0.000000
1.555275 2.267640 0.000000
1.532966 2.278201 0.000000
0.962010 1.661716 0.000000
0.986804 1.643200 0.000000
0.986259 1.672729 0.000000
1.049149 1.737940 0.000000
1.075111 1.737123 0.000000
[...]
POINT_DATA 3011
SCALARS UX float 1
LOOKUP_TABLE default
-0.000000
0.000000
0.607404
0.652633
-0.127779
-0.593620
0.397630
0.000000
-0.000000
0.000000
-0.000000
0.000000
0.000000
-0.020355
-0.037009
-0.060142
-0.086530
-0.107208
-0.109467
-0.085275
-0.043492
0.011259
0.090191
0.229830
0.514039
1.270128
1.393602
-4.538567
-5.271364
1.023451
4.946906
5.786167
4.701789
1.663739
0.887507
0.468784
0.412604
0.408208
0.394261
0.401975
0.407282
0.414243
0.423417
0.436896
0.452891
0.466175
0.478411
0.491099
0.505055
0.519686
0.534222
0.552061
0.581173
0.599032
0.618078
0.628308
0.638396
0.647777
0.653984
0.654894
0.649095
0.644540
0.633811
0.616745
0.592131
0.557218
0.510633
0.454753
0.387990
0.315019
0.236603
0.158313
0.078319
-0.002612
-0.082648
-0.160550
-0.239785
-0.319630
-0.397039
-0.471384
-0.545973
-0.617174
-0.669976
-0.726034
-1.157604
-1.339771
-1.620766
-1.409647
-1.161059
-0.867012
-0.558814
-0.255467
0.023189
-0.025749
-0.109040
-0.519835
-0.062907
-0.022943
-0.008081
-0.003441
-0.001165
0.000210
0.000472
-0.161441
-0.134814
-0.103729
-0.069225
-0.034459
-0.088288
-0.016041
-0.158280
-0.191902
-0.433227
-1.943307
-1.216386
0.490011
-0.544053
-1.324799
-1.429224
-2.165804
-1.394720
-1.508187
-1.506240
-1.457644
-1.390091
-1.303805
-1.205586
-1.128910
-0.979406
-0.173721
-0.083516
0.007581
-1.349947
-1.037960
-1.471187
2.175739
-1.423308
-0.841088
-0.618490
-0.775864
-1.192880
-0.849273
-2.160803
-0.654168
-1.220991
-1.143383
-0.747183
-0.274925
-0.006355
0.029483
0.065822
3.439938
-0.204192
1.025836
0.478100
2.001118
1.800194
1.388842
0.472340
0.024809
0.024455
0.035197
0.108668
0.114003
0.127936
0.120425
0.124254
0.130207
0.134189
1.246248
1.089865
-0.595296
-0.658096
-0.720861
-0.675994
-0.550428
-0.337025
-0.230795
-0.192151
-0.190441
-0.307545
-0.396480
-0.469044
-0.071557
0.193519
0.300277
0.409769
0.423431
0.345209
0.267423
-0.178298
-0.251454
-0.263030
-0.312077
0.430240
-0.057698
-0.035527
-0.012466
0.009130
0.016481
-0.878660
-2.516341
-5.230124
-4.171578
-3.309394
-2.755913
-2.203563
-2.011031
-1.816860
-0.988177
-0.158703
-0.792305
-0.845416
-1.401920
-2.011545
-2.202885
-2.375218
-2.520663
-2.731533
-3.531207
-4.914585
-12.603388
-34.317699
-7.585727
-5.719258
-6.619624
-5.430185
-4.053550
0.255600
0.902498
-0.626603
0.057713
0.061289
0.070424
0.079214
0.044770
-0.663166
-0.000673
-0.258042
-0.330893
-0.194408
-0.024046
-0.424618
-0.501259
-0.725439
-0.875595
-0.624538
0.087035
1.005348
0.735736
0.641245
0.946645
0.902408
1.218631
1.415258
2.743459
0.515448
0.990822
0.974750
-0.197507
0.023971
-0.677661
0.559893
1.164858
0.746842
0.406497
0.107840
0.117237
0.013190
-0.843746
-0.787546
-0.113832
-3.518750
-3.302733
-2.542521
-0.675468
-0.052545
0.111994
2.098144
1.561174
1.670959
-1.666913
0.699858
0.369472
0.372706
0.375491
0.378767
0.388497
0.390395
0.393252
0.394932
-1.113842
-0.856109
-1.080602
-0.990036
-0.109192
-0.069765
-0.080085
-0.026786
1.091608
1.014153
0.329624
0.332072
0.364221
0.236974
-0.276648
-0.227232
-0.268199
-0.383700
-0.453723
-0.410553
-0.466079
-0.405743
-0.378949
-0.424932
-0.094476
-0.171235
0.066110
0.063653
0.062017
0.048740
-0.440469
-0.802310
-2.365366
-4.299506
0.402367
0.399975
0.405752
1.534690
1.363482
1.616262
1.254980
1.088511
0.344764
-0.324824
-0.130627
-0.429023
0.448489
0.404301
0.420351
0.208477
0.099123
0.236489
0.004740
0.325581
0.186868
0.928670
0.206934
0.202171
0.235828
0.161526
0.182675
0.158772
0.448128
-0.119348
0.010691
0.040685
0.021531
0.062732
0.273300
0.283447
0.368451
0.142599
0.129008
0.147226
0.185961
0.183525
0.193703
0.369752
0.169230
0.083450
-0.877029
-2.166360
0.072239
0.410019
0.390166
0.402643
0.343108
0.386306
0.379741
-0.028300
-0.050779
-0.046211
0.095702
0.099948
0.131668
-0.073624
0.149966
-0.294493
-0.294015
-0.277939
-0.485314
0.491963
0.484918
0.476137
0.505659
0.203498
0.141244
0.180023
0.277700
0.182775
0.135953
0.174922
-0.257301
-0.256529
-0.311858
-0.036362
-0.054988
-0.026052
-0.042926
-0.301278
0.212930
0.261241
0.258496
0.394623
0.431508
0.397270
0.480997
0.475882
0.472225
-0.300969
-0.329576
0.462882
0.102118
0.127384
0.110614
0.109219
-0.351266
0.440606
-0.754242
0.071966
0.095911
0.090021
0.533208
-1.444954
-2.835992
-1.500245
-0.301283
-1.511645
-0.407259
-0.339224
-0.263261
-0.537729
0.246636
0.209734
0.234934
-0.403816
0.198822
0.265624
0.233137
-0.485798
-0.439623
-0.478524
-0.368531
0.865404
-0.012567
0.267303
-0.660776
0.621453
0.951937
0.704768
0.568513
0.559887
0.580046
0.167264
0.103411
0.237117
-0.821155
-0.337072
0.022898
0.172238
-1.621361
-1.529676
-1.668937
0.131668
0.017164
0.026289
0.178741
-0.013677
-0.693344
-0.670039
-0.667808
-0.518224
-0.783357
0.441441
0.077650
-0.479239
-3.201026
1.118710
0.000158
0.034837
0.089487
0.605653
0.295423
0.382901
0.384432
0.388936
0.453226
0.771432
0.474939
0.459863
0.462800
0.483501
-3.328729
-3.230471
0.372245
0.402082
0.429861
0.593516
0.812055
-1.140896
-0.903642
0.551755
0.560931
0.573740
0.580644
-0.661691
-0.802379
-0.819441
-0.427951
-0.789704
-0.883409
-1.206091
-1.078450
-0.535670
0.425329
0.337073
0.129444
0.412272
0.418314
0.411239
0.419200
0.355417
0.389652
0.300080
1.024711
1.958288
0.083549
0.451508
0.092813
-0.164043
0.312187
0.250561
0.189823
0.304466
0.312423
0.256686
0.199762
-0.771202
-2.025658
-0.260791
-0.515876
0.249497
0.034412
0.087320
0.173192
-0.795980
-0.075409
-0.099965
0.034840
0.010988
0.022410
0.001620
-0.260961
-1.017958
-0.654945
0.062323
0.186773
-0.359760
0.027823
-0.760759
4.054612
-3.118570
-4.970129
0.492541
-0.658220
-0.828391
0.080269
0.055435
0.070543
-0.553477
0.392161
0.385592
0.398600
0.388138
0.420470
-1.340528
0.059658
0.082461
0.086045
-1.199788
-0.152259
-0.342338
0.069048
0.062251
0.045032
0.093953
0.078134
0.075791
0.073255
0.083976
-0.405375
0.019056
-0.297102
-0.442361
-0.599305
0.017061
0.045621
0.116842
0.389682
0.403765
0.432942
0.031717
0.142839
0.113277
0.123219
0.371661
0.374927
-0.639331
-0.262255
-0.066873
-0.874902
-0.044982
-0.093522
0.126334
0.109551
-0.514644
-0.461485
-0.512764
-0.510289
-1.391061
-1.483567
-1.660038
0.633864
0.640009
0.641614
-0.538121
-1.103948
-1.127883
-1.109616
-1.159816
0.445781
0.444672
0.418630
0.390546
0.339257
0.328045
0.369280
0.340356
0.725271
0.780961
0.362802
-0.167640
-0.153140
0.543775
0.078042
0.115332
0.050932
-1.441921
-1.155956
-1.333807
-1.511961
-0.573013
-0.528153
0.162398
0.167196
0.147847
0.060036
0.123197
-0.294180
-0.893820
-0.065970
-0.908419
-0.200654
0.098358
0.127069
0.121362
0.151529
-1.535715
-1.571189
-1.341329
-1.272783
0.051445
0.041127
-0.645477
-0.708993
-0.685188
-0.601502
-0.606127
-1.235943
-1.136765
-1.167195
-0.805984
-1.988101
-0.785543
-0.830541
-0.805682
-0.758663
-0.760081
0.376717
0.348443
0.308792
0.500133
0.654125
0.651301
0.651818
0.652919
0.648165
0.440465
0.421634
0.427891
0.448422
0.428526
0.403517
-1.015512
-0.554876
-0.465751
0.091801
0.069167
0.133830
0.147977
0.480824
0.470607
0.489949
0.500119
0.180012
0.199672
-1.111044
-1.130393
-1.133388
-0.451148
-1.505089
-1.502876
0.063346
-0.027243
-0.057800
-0.112668
0.390247
0.382793
0.381955
0.520266
-1.117989
-1.082305
0.488138
0.487190
0.502492
0.503439
0.492683
0.585162
0.602586
0.587031
0.608837
0.036573
0.060827
0.021924
-1.233963
-1.384391
-1.298479
-1.274567
0.443078
0.600165
-0.579413
-0.511519
-0.554983
-0.341916
-0.103181
-0.609565
0.371305
0.026939
0.451738
-1.247042
-1.091021
-1.087023
0.190745
-1.257533
-1.188730
0.395124
0.393400
0.397585
0.392275
0.398032
0.387298
0.303553
-0.420824
-0.456203
-0.446768
0.410043
0.453174
0.423911
0.441691
-0.156106
-0.211282
-0.148644
-0.158138
-0.241348
-0.161929
-0.065236
-0.082500
-0.164893
-0.093437
-0.702462
-0.696807
-0.699937
-0.637041
1.467471
0.549352
3.210189
-0.647443
-0.527279
-0.393114
-0.476156
0.461316
0.475658
-1.509303
-1.461771
-1.434996
0.395069
-0.868518
0.393100
0.394921
0.411298
-0.628488
-0.698820
-0.727154
0.544885
0.527084
0.547732
0.528624
0.546189
-1.083075
-0.878329
-0.834624
-0.815477
0.318267
0.355867
-0.729412
-0.811334
-0.788646
-0.570230
-0.087776
-0.048229
-0.073573
-0.013551
-0.036993
0.012074
0.001334
0.048549
0.047813
-0.303450
-0.298968
0.388575
0.375216
-0.262960
-0.230176
-0.210345
-0.169344
-0.204514
-0.938654
-0.997416
-1.079531
-0.076020
-0.052724
-1.359299
-0.543687
-0.102440
-0.112692
0.482504
0.495931
0.478413
0.467014
-0.245687
-0.771991
-0.899982
-0.740952
-0.887643
0.012476
-2.712313
0.047476
-2.922434
-0.307186
0.416441
0.375879
0.390577
0.436660
0.443521
0.407976
0.417931
0.405179
0.423009
0.412340
0.364794
0.389775
0.376971
0.391424
-0.325642
-0.526306
-0.383486
-0.836922
-0.840202
-0.836799
-0.839283
-0.836706
0.414936
-0.478503
-1.468944
0.375148
0.477615
0.468350
0.380145
0.389103
0.403306
-1.513226
-0.078721
-0.026783
-0.020174
0.472218
0.474116
0.427526
0.395622
-2.907225
-0.564902
-0.541534
-0.535126
-0.138178
0.400212
0.382976
0.417607
0.427290
-0.172179
-1.281330
-1.415175
-1.411220
-0.839485
-1.386225
0.543949
0.506036
0.515263
0.573544
0.541031
-0.641668
-0.943113
0.542182
0.559963
0.562961
0.534382
0.524922
0.532845
0.256171
-0.771682
0.555514
-0.682384
0.290008
0.495542
0.506649
-1.253631
-1.307125
-1.392085
-0.971571
-0.857717
0.624773
0.612182
0.626344
0.609453
-1.094024
0.031258
0.051683
0.027693
0.125518
0.085935
0.081815
-0.300785
-0.249278
-0.321923
-0.814075
-0.586984
-0.543668
-0.609033
0.197020
0.177451
0.216800
0.197304
0.236032
0.491594
0.504058
0.139344
0.135151
0.122159
0.108012
-0.029500
0.470532
0.523114
0.517434
0.540700
0.532663
0.615328
0.612995
0.628623
0.621005
-1.350738
-1.419578
-1.383484
-1.297744
0.397049
-0.533323
-0.367543
-0.378900
-0.494671
0.205069
0.243363
0.180794
-0.014755
-0.001172
-0.584892
-1.431091
-1.460014
-0.558074
0.200702
-0.572450
0.648478
-0.490179
0.269984
0.461308
0.475208
0.456611
0.420589
0.459900
0.410700
-0.682313
-0.355578
-0.778907
-1.283407
0.381853
-0.681577
0.630840
0.640112
0.628184
-1.302295
-1.287587
1.153214
-0.631341
-0.840109
-0.598726
-1.335924
0.398507
0.395650
0.407428
0.230507
0.397876
0.911192
-1.336481
-1.485745
-1.381437
-1.409851
0.885442
0.577163
0.599785
0.590580
0.605033
-1.101708
-1.228684
0.023940
-0.001707
0.482889
0.517531
0.414384
0.159725
-0.655650
-1.231086
-1.129487
-1.247342
0.511246
-0.139382
-0.178157
-0.134285
0.317679
0.315515
0.251716
0.315187
0.291719
0.584165
0.032282
0.016882
0.044579
0.557369
0.540262
0.556643
0.628927
-0.155639
-0.202995
-0.205387
-0.224277
-0.186318
-1.257367
-1.105816
0.065296
0.520216
0.367375
0.367048
-0.029358
-0.000725
-0.604933
-0.369943
-0.153302
-0.144822
4.424505
0.436316
0.399250
0.400879
-0.634696
0.600789
0.300343
-0.630013
-0.187029
-0.154330
-1.140770
0.437235
-1.075047
0.180844
0.085660
0.060190
0.603283
0.593770
-0.642455
0.619465
-0.115334
-0.108180
-0.143769
0.510105
0.344502
0.273385
0.305816
-0.768608
-0.793342
0.039932
-1.089777
-1.128536
-1.104685
0.485745
0.431128
-1.119105
-0.774919
0.367390
0.302841
-2.387119
-1.175561
-1.135781
0.365366
0.140818
0.172766
-1.438156
0.405803
-0.069742
0.468557
0.461806
-0.817374
-0.770253
0.363417
0.320869
0.616726
0.619855
0.368294
0.343870
-0.657954
-0.702983
-0.595611
0.405484
0.405058
0.471455
0.497333
0.086828
-0.128740
-0.132250
-0.067208
-0.106548
-0.092842
0.633365
-1.193389
0.199034
0.141883
0.162582
-0.535536
-0.596756
-0.474133
0.456867
0.162938
0.129164
0.138435
-1.357983
-1.336949
-1.407411
-1.196985
0.308952
0.348847
0.619897
0.633962
0.600938
0.586793
0.372436
0.256256
0.217933
-0.267757
-0.063524
-0.116161
-0.194895
-0.169906
-0.127529
0.580386
0.570321
0.585798
0.567105
0.339502
0.410591
0.804580
0.087396
2.312828
0.427588
0.440049
0.449935
0.473967
0.205497
-1.452072
-0.518994
-0.630229
-0.438597
-5.078194
-3.475831
-2.256272
0.113981
0.101743
-0.644830
-0.249111
-0.292049
-0.386338
-0.234482
0.448293
0.378346
0.680208
0.461031
-11.069473
0.460428
0.414916
-1.152455
-1.281758
-1.189123
-0.501180
-0.754836
-1.310255
0.459218
0.399205
0.404280
0.111579
0.333264
0.288663
-0.457605
0.321783
-1.104299
-1.364393
-1.355999
-1.444109
-1.370073
-0.274110
0.237682
0.251460
0.269276
0.222597
0.397940
-1.120511
-1.094022
0.391247
-0.865142
-0.850263
0.435646
0.456713
0.437552
0.450348
0.419461
0.424794
0.484765
-1.496987
-1.491368
-1.266326
-0.027963
-0.024623
0.021562
0.484770
0.476189
-0.939658
-0.025081
-1.349828
0.550797
0.541784
-1.503149
-1.431111
0.549803
0.585520
-0.290089
-0.301477
-0.357771
1.143925
0.508627
0.031747
0.024089
0.011475
0.271719
0.265593
0.451555
0.450455
0.481235
0.443748
0.463052
0.303205
0.597307
0.595525
0.581920
0.581344
0.596687
0.564356
0.641976
0.459807
1.432250
-1.216851
1.350093
0.049266
0.057112
0.067669
0.551548
0.571181
0.155263
0.168691
0.150804
0.138251
-2.729007
-2.822517
-0.975948
-1.022566
-1.168621
-1.273969
0.263424
0.316115
-1.269713
0.436852
0.419936
-1.309731
0.394928
0.391199
0.437378
0.388699
0.511060
0.497774
0.515916
-0.627528
-0.983372
0.492352
-0.799421
-0.069306
0.117261
0.434679
-1.904143
-1.587051
-2.183637
-1.875532
0.113514
0.575931
-1.045617
0.457049
0.469902
0.473391
0.022021
1.349467
1.071805
-1.319002
-1.015076
0.405604
0.639619
0.441065
-0.320185
0.566736
0.561710
0.356420
0.948491
0.565957
0.411049
0.408167
0.293261
0.133513
0.255061
-0.066433
-0.120084
-0.035336
-0.004778
-0.018624
0.390056
0.388422
-0.395375
0.408545
0.608544
0.473209
0.392504
0.392783
0.389892
0.383368
0.424723
0.373996
0.068502
-1.014652
-1.027056
0.103924
0.180161
-0.054791
0.012821
-0.051325
0.488145
0.528331
0.497417
0.537344
2.691423
1.426195
1.795243
3.080627
0.410320
-1.429512
-1.588864
-0.955749
0.495175
0.323017
0.344118
-0.084381
0.485741
0.797413
-1.204416
0.476210
-0.155126
0.976311
0.299704
0.335724
0.092852
0.381389
-0.511047
0.267217
-0.282835
-0.507550
-0.015684
0.015509
-0.390242
0.529955
0.540457
0.533935
0.523630
-2.610640
-4.955329
-4.514635
-0.814794
-0.770437
-0.405631
0.032915
-3.106263
-6.236899
-1.331079
-5.065894
0.512797
0.481475
0.343022
0.060924
-0.116315
-0.109955
-0.089662
-0.090142
0.431500
-0.871184
0.452092
-0.536689
0.505750
-3.460241
-5.130458
0.630237
-0.786077
-0.005372
-0.032338
-1.126272
-0.978789
-0.911909
0.136105
0.031413
0.112440
0.423604
0.440591
0.443227
0.482841
0.534212
0.540459
0.437985
0.657007
-0.808654
-0.202706
0.125736
0.153564
0.147597
0.175009
0.081039
-0.069301
-0.095299
-0.105646
0.206338
0.183157
1.097825
1.011883
-0.142075
0.017140
0.033126
0.075068
0.087622
0.337910
0.114372
0.125149
-1.059015
-1.057796
0.369576
0.382618
0.101776
0.095205
0.112665
0.392700
0.379298
0.402303
0.306001
-0.655209
0.444275
0.491570
-0.075948
-0.143070
-0.126568
0.287893
-0.307628
0.393296
-0.093782
-1.773075
-0.020226
-1.154625
0.808711
-1.258943
0.090209
0.160835
0.780109
0.299363
-0.738790
-0.581055
-0.716758
-0.651040
-0.520184
0.356246
-0.155921
0.115040
-0.927793
-0.420399
-0.039873
-0.050486
-0.035947
0.636763
0.512672
-0.853584
-0.802330
0.053345
-0.382365
-0.259676
-0.430433
0.134357
-1.438616
0.214020
-0.080290
1.262328
0.747553
0.164843
0.264486
7.495284
1.804259
-0.810255
-2.145393
-0.699027
-0.498596
-0.117480
0.474694
0.173847
-0.687555
-0.770701
-0.729431
-0.729994
0.080128
0.099401
-0.792974
0.124722
-0.037416
-0.574434
1.320648
0.634995
-0.466088
-0.314526
-0.337636
0.144340
-0.595595
0.366085
0.297540
0.268104
-1.210181
-0.090753
-1.326300
-3.526758
-3.054312
0.125820
0.889032
-3.672472
-3.777442
0.269360
0.599311
-0.166446
0.438704
0.226992
-0.271333
0.797676
-0.204537
-0.065965
-0.297975
-0.127006
-0.069990
0.085002
0.477337
-0.070729
0.469402
-0.344025
0.739190
-0.417751
-0.692679
-1.377443
0.219690
-14.979174
-0.489595
-3.981820
-17.231966
0.370462
0.233681
0.430109
0.446198
-0.976097
-0.925566
-1.164019
-0.428036
-0.535417
-0.841652
-0.579725
0.486123
0.432499
0.669156
1.366985
0.296786
-0.302037
0.930898
0.330040
0.108819
0.133977
0.162981
0.089442
-1.766087
0.205132
0.406615
0.395665
0.455904
-0.469834
-1.053477
-0.736131
-0.045503
-0.495055
-1.560240
0.621729
0.645942
0.157771
0.135806
0.121634
0.123013
-0.135060
-0.094027
0.454673
0.421512
0.612538
0.612219
-0.677995
-0.817533
-0.674877
0.073727
-0.707930
0.053428
0.027137
0.035984
0.759788
0.344376
0.053954
0.168138
0.206194
0.614369
-1.042868
0.584282
0.454738
0.602568
0.558147
0.980306
0.016598
0.028773
-1.066453
-0.996778
0.330518
0.400821
0.369363
-0.360249
-0.287946
-0.323832
0.137726
0.078215
-0.058476
-0.068085
0.074045
0.083138
0.418882
0.428473
0.349791
0.364335
0.351939
1.163314
-0.244673
0.281494
0.276407
0.423477
0.206792
0.278777
0.468160
-0.074995
0.239713
-0.034645
1.324809
-0.005940
0.538069
0.388821
0.480853
0.983245
0.424977
-0.178274
0.452965
-1.003234
-0.241339
-0.474174
-0.594160
-1.167418
-2.992313
0.485500
-0.535577
0.819126
0.184235
0.059052
0.562984
0.121693
-0.219811
-0.680059
-0.025620
0.109808
-0.741793
0.244255
0.131273
-0.945473
-1.758559
-0.327935
-0.850346
-0.113814
-0.312809
-1.500708
-1.393455
0.336809
-2.354083
-0.019970
-0.279221
-0.480506
-0.873851
0.580968
0.339538
0.515293
0.463711
-1.714768
0.612436
1.290768
0.512484
-1.092407
1.213672
0.993291
-38.781541
-5.678495
-5.061199
-0.150545
-0.195611
-0.189295
0.110046
-0.463499
-0.545060
0.627156
0.638637
-0.245470
-2.018297
0.227758
-0.059751
0.377054
-0.440429
0.365114
0.379209
0.554516
0.019521
0.016462
0.380383
0.385468
-2.992088
-0.586904
0.570770
0.540384
0.256279
0.115186
-0.868970
-0.258592
0.383636
0.443959
0.594211
0.503923
0.531702
-0.294897
-0.754027
0.683470
0.552660
-0.449684
-0.354504
-3.604844
-0.995602
-1.858867
0.221345
-0.769096
0.570740
0.427874
0.765593
0.597016
0.089842
-1.449254
-1.280212
-0.955590
-1.476115
0.246191
-0.189830
0.061884
0.122246
-0.228385
-0.913792
0.199769
-0.443678
0.637515
-0.014826
0.192185
0.397051
0.295736
0.324823
0.521725
-0.425185
-0.254766
0.795217
0.254206
-0.005175
0.016721
0.768322
0.423830
-0.192082
-6.357863
-6.602694
-0.534131
0.364953
0.383977
0.191208
-0.959310
-1.093913
0.646458
-1.304927
-0.126673
-0.810228
0.286466
-5.237084
0.493254
0.320362
0.399458
-0.040311
0.343864
0.188203
0.392283
0.182718
0.169074
0.398475
-0.017444
-0.055856
-0.111906
-0.089845
0.343052
-0.223848
-0.726235
0.037088
-6.838606
0.501152
-2.613437
-6.009287
-0.073811
0.281783
0.223335
-0.655819
-0.162666
0.204860
-0.253834
0.094683
0.565162
0.141158
0.103738
0.367936
-0.377092
0.546104
-0.557361
-0.590374
0.689841
-3.890633
-0.070110
0.283161
-0.426323
-0.193569
0.175520
0.132136
0.638081
0.376174
0.369657
-0.189331
-0.150084
-0.235018
0.001656
0.002044
0.001123
0.355491
0.002504
-0.365310
0.102359
0.116262
0.094352
0.278141
0.904893
0.231593
0.069730
0.058479
0.158423
0.843924
0.258218
0.002134
0.002504
0.003271
-0.047799
-0.049201
-0.065594
0.012842
0.009129
0.007900
-12.187379
4.291346
-32.556760
-7.681289
0.016426
0.001551
0.001611
0.006940
0.000231
0.005047
0.007156
0.007840
0.008500
-0.020991
0.045007
-5.318246
-0.332309
-2.060247
0.008275
0.006012
0.011082
-0.011618
0.019045
0.003886
0.003139
-0.058023
-0.051643
-0.059403
-0.049944
0.079254
0.183444
0.175946
-0.049308
-0.008374
-0.073785
-0.074363
-0.125643
-0.021815
-0.129876
-0.089146
-0.116811
0.314935
0.006564
0.005805
-0.000582
0.001941
0.007399
-0.003485
-0.003894
-0.009039
0.005484
0.011041
0.010392
0.014850
-0.007799
-0.050952
-0.053367
-0.060415
-0.038977
-0.102229
-0.090827
-0.110096
-0.087282
0.002176
0.000331
-0.000637
0.011674
-0.024108
0.009438
-0.005726
0.004830
0.005013
0.003890
0.001341
0.000536
-0.014868
-0.112758
-0.069135
-0.074226
0.827501
1.651098
0.560638
1.844310
-0.026031
-0.017079
-0.026824
-0.019044
0.083893
0.308062
0.698669
0.099166
1.457326
0.278854
0.558094
-0.082453
0.114478
0.113319
-0.495396
-0.629690
-1.298652
-3.189047
-1.465483
-0.306015
-0.317705
-0.792301
0.112402
0.277105
0.027959
0.114861
0.117314
0.124713
-0.009027
0.028640
0.025751
0.019979
0.021121
-0.259868
0.004553
0.002659
0.003524
-0.853561
-1.258234
-0.689666
-1.133471
-0.744029
-0.013313
0.126810
0.123063
-1.548692
-1.656497
-1.230177
-0.006177
-0.443286
0.215421
0.024648
-0.136306
0.112028
0.103623
0.081880
-0.081169
0.871547
0.820267
0.277586
0.002786
0.002182
-0.496278
0.386571