# vtk DataFile Version 2.0
Test
ASCII
DATASET POLYDATA
POINTS 9785 float
0.000000 0.000000 0.000000
2.000000 0.000000 0.000000
2.000000 4.000000 0.000000
0.000000 4.000000 0.000000
0.000000 0.500000 0.000000
1.500000 2.000000 0.000000
2.000000 2.500000 0.000000
0.285714 0.000000 0.000000
0.571429 0.000000 0.000000
0.857143 0.000000 0.000000
1.142857 0.000000 0.000000
1.428571 0.000000 0.000000
1.714286 0.000000 0.000000
2.000000 0.280673 0.000000
2.000000 0.530361 0.000000
2.000000 0.752483 0.000000
2.000000 0.950084 0.000000
2.000000 1.125869 0.000000
2.000000 1.282249 0.000000
2.000000 1.421364 0.000000
2.000000 1.545121 0.000000
2.000000 1.655216 0.000000
2.000000 1.753157 0.000000
2.000000 1.840285 0.000000
2.000000 1.917794 0.000000
2.000000 1.986746 0.000000
2.000000 2.048086 0.000000
2.000000 2.102655 0.000000
2.000000 2.151199 0.000000
2.000000 2.194384 0.000000
2.000000 2.232801 0.000000
2.000000 2.266977 0.000000
2.000000 2.297380 0.000000
2.000000 2.324427 0.000000
2.000000 2.348488 0.000000
2.000000 2.369892 0.000000
2.000000 2.388934 0.000000
2.000000 2.405873 0.000000
2.000000 2.420943 0.000000
2.000000 2.434348 0.000000
2.000000 2.446274 0.000000
2.000000 2.456883 0.000000
2.000000 2.466321 0.000000
2.000000 2.474717 0.000000
2.000000 2.482186 0.000000
2.000000 2.488831 0.000000
2.000000 2.494742 0.000000
2.000000 2.505473 0.000000
2.000000 2.512124 0.000000
2.000000 2.520207 0.000000
2.000000 2.530031 0.000000
2.000000 2.541968 0.000000
2.000000 2.556476 0.000000
2.000000 2.574107 0.000000
2.000000 2.595533 0.000000
2.000000 2.621572 0.000000
2.000000 2.653216 0.000000
2.000000 2.691672 0.000000
2.000000 2.738407 0.000000
2.000000 2.795203 0.000000
2.000000 2.864225 0.000000
2.000000 2.948106 0.000000
2.000000 3.050044 0.000000
2.000000 3.173927 0.000000
2.000000 3.324478 0.000000
2.000000 3.507439 0.000000
2.000000 3.729787 0.000000
1.714286 4.000000 0.000000
1.428571 4.000000 0.000000
1.142857 4.000000 0.000000
0.857143 4.000000 0.000000
0.571429 4.000000 0.000000
0.285714 4.000000 0.000000
0.000000 3.714677 0.000000
0.000000 3.452225 0.000000
0.000000 3.210813 0.000000
0.000000 2.988752 0.000000
0.000000 2.784493 0.000000
0.000000 2.596607 0.000000
0.000000 2.423783 0.000000
0.000000 2.264813 0.000000
0.000000 2.118586 0.000000
0.000000 1.984081 0.000000
0.000000 1.860358 0.000000
0.000000 1.746553 0.000000
0.000000 1.641871 0.000000
0.000000 1.545581 0.000000
0.000000 1.457009 0.000000
0.000000 1.375538 0.000000
0.000000 1.300597 0.000000
0.000000 1.231664 0.000000
0.000000 1.168257 0.000000
0.000000 1.109932 0.000000
0.000000 1.056283 0.000000
0.000000 1.006935 0.000000
0.000000 0.961543 0.000000
0.000000 0.919789 0.000000
0.000000 0.881382 0.000000
0.000000 0.846054 0.000000
0.000000 0.813558 0.000000
0.000000 0.783667 0.000000
0.000000 0.756173 0.000000
0.000000 0.730882 0.000000
0.000000 0.707618 0.000000
0.000000 0.686220 0.000000
0.000000 0.666537 0.000000
0.000000 0.648431 0.000000
0.000000 0.631777 0.000000
0.000000 0.616458 0.000000
0.000000 0.602367 0.000000
0.000000 0.589406 0.000000
0.000000 0.577484 0.000000
0.000000 0.566517 0.000000
0.000000 0.556429 0.000000
0.000000 0.547151 0.000000
0.000000 0.538615 0.000000
0.000000 0.530765 0.000000
0.000000 0.523543 0.000000
0.000000 0.516900 0.000000
0.000000 0.510790 0.000000
0.000000 0.505170 0.000000
0.000000 0.494407 0.000000
0.000000 0.486677 0.000000
0.000000 0.475993 0.000000
0.000000 0.461226 0.000000
0.000000 0.440815 0.000000
0.000000 0.412605 0.000000
0.000000 0.373615 0.000000
0.000000 0.319724 0.000000
0.000000 0.245240 0.000000
0.000000 0.142291 0.000000
0.003529 0.503529 0.000000
0.007059 0.507059 0.000000
0.010588 0.510588 0.000000
0.014118 0.514118 0.000000
0.017647 0.517647 0.000000
0.021176 0.521176 0.000000
0.024706 0.524706 0.000000
0.028235 0.528235 0.000000
0.031765 0.531765 0.000000
0.035294 0.535294 0.000000
0.038824 0.538824 0.000000
0.042353 0.542353 0.000000
0.045882 0.545882 0.000000
0.049412 0.549412 0.000000
0.052941 0.552941 0.000000
0.056471 0.556471 0.000000
0.060000 0.560000 0.000000
0.063529 0.563529 0.000000
0.067059 0.567059 0.000000
0.070588 0.570588 0.000000
0.074118 0.574118 0.000000
0.077647 0.577647 0.000000
0.081176 0.581176 0.000000
0.084706 0.584706 0.000000
0.088235 0.588235 0.000000
0.091765 0.591765 0.000000
0.095294 0.595294 0.000000
0.098824 0.598824 0.000000
0.102353 0.602353 0.000000
0.105882 0.605882 0.000000
0.109412 0.609412 0.000000
0.112941 0.612941 0.000000
0.116471 0.616471 0.000000
0.120000 0.620000 0.000000
0.123529 0.623529 0.000000
0.127059 0.627059 0.000000
0.130588 0.630588 0.000000
0.134118 0.634118 0.000000
0.137647 0.637647 0.000000
0.141176 0.641176 0.000000
0.144706 0.644706 0.000000
0.148235 0.648235 0.000000
0.151765 0.651765 0.000000
0.155294 0.655294 0.000000
0.158824 0.658824 0.000000
0.162353 0.662353 0.000000
0.165882 0.665882 0.000000
0.169412 0.669412 0.000000
0.172941 0.672941 0.000000
0.176471 0.676471 0.000000
0.180000 0.680000 0.000000
0.183529 0.683529 0.000000
0.187059 0.687059 0.000000
0.190588 0.690588 0.000000
0.194118 0.694118 0.000000
0.197647 0.697647 0.000000
0.201176 0.701176 0.000000
0.204706 0.704706 0.000000
0.208235 0.708235 0.000000
0.211765 0.711765 0.000000
0.215294 0.715294 0.000000
0.218824 0.718824 0.000000
0.222353 0.722353 0.000000
0.225882 0.725882 0.000000
0.229412 0.729412 0.000000
0.232941 0.732941 0.000000
0.236471 0.736471 0.000000
0.240000 0.740000 0.000000
0.243529 0.743529 0.000000
0.247059 0.747059 0.000000
0.250588 0.750588 0.000000
0.254118 0.754118 0.000000
0.257647 0.757647 0.000000
0.261176 0.761176 0.000000
0.264706 0.764706 0.000000
0.268235 0.768235 0.000000
0.271765 0.771765 0.000000
0.275294 0.775294 0.000000
0.278824 0.778824 0.000000
0.282353 0.782353 0.000000
0.285882 0.785882 0.000000
0.289412 0.789412 0.000000
0.292941 0.792941 0.000000
0.296471 0.796471 0.000000
0.300000 0.800000 0.000000
0.303529 0.803529 0.000000
0.307059 0.807059 0.000000
0.310588 0.810588 0.000000
0.314118 0.814118 0.000000
0.317647 0.817647 0.000000
0.321176 0.821176 0.000000
0.324706 0.824706 0.000000
0.328235 0.828235 0.000000
0.331765 0.831765 0.000000
0.335294 0.835294 0.000000
0.338824 0.838824 0.000000
0.342353 0.842353 0.000000
0.345882 0.845882 0.000000
0.349412 0.849412 0.000000
0.352941 0.852941 0.000000
0.356471 0.856471 0.000000
0.360000 0.860000 0.000000
0.363529 0.863529 0.000000
0.367059 0.867059 0.000000
0.370588 0.870588 0.000000
0.374118 0.874118 0.000000
0.377647 0.877647 0.000000
0.381176 0.881176 0.000000
0.384706 0.884706 0.000000
0.388235 0.888235 0.000000
0.391765 0.891765 0.000000
0.395294 0.895294 0.000000
0.398824 0.898824 0.000000
0.402353 0.902353 0.000000
0.405882 0.905882 0.000000
0.409412 0.909412 0.000000
0.412941 0.912941 0.000000
0.416471 0.916471 0.000000
0.420000 0.920000 0.000000
0.423529 0.923529 0.000000
0.427059 0.927059 0.000000
0.430588 0.930588 0.000000
0.434118 0.934118 0.000000
0.437647 0.937647 0.000000
0.441176 0.941176 0.000000
0.444706 0.944706 0.000000
0.448235 0.948235 0.000000
0.451765 0.951765 0.000000
0.455294 0.955294 0.000000
0.458824 0.958824 0.000000
0.462353 0.962353 0.000000
0.465882 0.965882 0.000000
0.469412 0.969412 0.000000
0.472941 0.972941 0.000000
0.476471 0.976471 0.000000
0.480000 0.980000 0.000000
0.483529 0.983529 0.000000
0.487059 0.987059 0.000000
0.490588 0.990588 0.000000
0.494118 0.994118 0.000000
0.497647 0.997647 0.000000
0.501176 1.001176 0.000000
0.504706 1.004706 0.000000
0.508235 1.008235 0.000000
0.511765 1.011765 0.000000
0.515294 1.015294 0.000000
0.518824 1.018824 0.000000
0.522353 1.022353 0.000000
0.525882 1.025882 0.000000
0.529412 1.029412 0.000000
0.532941 1.032941 0.000000
0.536471 1.036471 0.000000
0.540000 1.040000 0.000000
0.543529 1.043529 0.000000
0.547059 1.047059 0.000000
0.550588 1.050588 0.000000
0.554118 1.054118 0.000000
0.557647 1.057647 0.000000
0.561176 1.061176 0.000000
0.564706 1.064706 0.000000
0.568235 1.068235 0.000000
0.571765 1.071765 0.000000
0.575294 1.075294 0.000000
0.578824 1.078824 0.000000
0.582353 1.082353 0.000000
0.585882 1.085882 0.000000
0.589412 1.089412 0.000000
0.592941 1.092941 0.000000
0.596471 1.096471 0.000000
0.600000 1.100000 0.000000
0.603529 1.103529 0.000000
0.607059 1.107059 0.000000
0.610588 1.110588 0.000000
0.614118 1.114118 0.000000
0.617647 1.117647 0.000000
0.621176 1.121176 0.000000
0.624706 1.124706 0.000000
0.628235 1.128235 0.000000
0.631765 1.131765 0.000000
0.635294 1.135294 0.000000
0.638824 1.138824 0.000000
0.642353 1.142353 0.000000
0.645882 1.145882 0.000000
0.649412 1.149412 0.000000
0.652941 1.152941 0.000000
0.656471 1.156471 0.000000
0.660000 1.160000 0.000000
0.663529 1.163529 0.000000
0.667059 1.167059 0.000000
0.670588 1.170588 0.000000
0.674118 1.174118 0.000000
0.677647 1.177647 0.000000
0.681176 1.181176 0.000000
0.684706 1.184706 0.000000
0.688235 1.188235 0.000000
0.691765 1.191765 0.000000
0.695294 1.195294 0.000000
0.698824 1.198824 0.000000
0.702353 1.202353 0.000000
0.705882 1.205882 0.000000
0.709412 1.209412 0.000000
0.712941 1.212941 0.000000
0.716471 1.216471 0.000000
0.720000 1.220000 0.000000
0.723529 1.223529 0.000000
0.727059 1.227059 0.000000
0.730588 1.230588 0.000000
0.734118 1.234118 0.000000
0.737647 1.237647 0.000000
0.741176 1.241176 0.000000
0.744706 1.244706 0.000000
0.748235 1.248235 0.000000
0.751765 1.251765 0.000000
0.755294 1.255294 0.000000
0.758824 1.258824 0.000000
0.762353 1.262353 0.000000
0.765882 1.265882 0.000000
0.769412 1.269412 0.000000
0.772941 1.272941 0.000000
0.776471 1.276471 0.000000
0.780000 1.280000 0.000000
0.783529 1.283529 0.000000
0.787059 1.287059 0.000000
0.790588 1.290588 0.000000
0.794118 1.294118 0.000000
0.797647 1.297647 0.000000
0.801176 1.301176 0.000000
0.804706 1.304706 0.000000
0.808235 1.308235 0.000000
0.811765 1.311765 0.000000
0.815294 1.315294 0.000000
0.818824 1.318824 0.000000
0.822353 1.322353 0.000000
0.825882 1.325882 0.000000
0.829412 1.329412 0.000000
0.832941 1.332941 0.000000
[...]
POINT_DATA 9785
SCALARS UX float 1
LOOKUP_TABLE default
0.009794
0.034874
-0.008346
-0.032975
0.011406
0.028805
0.012789
0.011654
0.014123
0.016841
0.020655
0.024508
0.029447
0.035443
0.036844
0.038952
0.041357
0.043873
0.046371
0.048610
0.050347
0.051217
0.051051
0.049536
0.047045
0.043803
0.040200
0.036589
0.033265
0.030255
0.027626
0.025364
0.023423
0.021769
0.020360
0.019153
0.018117
0.017224
0.016460
0.015792
0.015216
0.014716
0.014279
0.013898
0.013564
0.013271
0.013014
0.012556
0.012277
0.011942
0.011546
0.011070
0.010508
0.009853
0.009087
0.008189
0.007158
0.006022
0.004736
0.003274
0.001705
0.000091
-0.001629
-0.003360
-0.005071
-0.006655
-0.007788
-0.013769
-0.018531
-0.022517
-0.025877
-0.028449
-0.030842
-0.032019
-0.030125
-0.027066
-0.023599
-0.019964
-0.016555
-0.013592
-0.011240
-0.009545
-0.008615
-0.008252
-0.008406
-0.008967
-0.009820
-0.010916
-0.012150
-0.013517
-0.014937
-0.016394
-0.017844
-0.019294
-0.020712
-0.022096
-0.023420
-0.024673
-0.025857
-0.026958
-0.027979
-0.028921
-0.029768
-0.030535
-0.031211
-0.031798
-0.032288
-0.032697
-0.033016
-0.033226
-0.033358
-0.033372
-0.033251
-0.033010
-0.032583
-0.031913
-0.030858
-0.029460
-0.026940
-0.021041
-0.009858
0.011754
0.011868
0.011925
0.011860
0.011771
0.011569
0.011251
0.010872
0.010392
0.010030
0.010681
0.010681
0.009479
0.006556
0.005270
0.004021
0.001860
0.001264
-0.003451
-0.005157
-0.004545
-0.004676
-0.005703
-0.007122
-0.007823
-0.008035
-0.007906
-0.004838
-0.003810
-0.002939
-0.003664
-0.003058
-0.003255
-0.002155
-0.003264
-0.003794
-0.002446
-0.003198
-0.002352
-0.003370
-0.009128
-0.006691
-0.008576
-0.009326
-0.007655
-0.007068
-0.007224
-0.005009
-0.005401
-0.004322
-0.006112
-0.005184
-0.005746
-0.007596
-0.006458
-0.006735
-0.004926
-0.010380
-0.006372
-0.003832
-0.002787
-0.003111
-0.003773
-0.007483
-0.007538
-0.006509
-0.005448
-0.004446
-0.002929
-0.005820
-0.007035
-0.002459
-0.000727
-0.002620
-0.001251
-0.001263
-0.004144
-0.003945
-0.002072
-0.002972
-0.004678
-0.003806
-0.004732
-0.001903
-0.002531
-0.001374
-0.004215
-0.007312
-0.004235
-0.002192
-0.002007
-0.003257
-0.002301
-0.002965
-0.003473
-0.001326
-0.001519
0.000528
-0.003624
-0.002981
-0.000723
-0.001788
-0.002614
-0.003983
-0.004226
-0.004959
-0.004433
-0.002102
0.000862
0.000994
0.002406
0.000181
-0.001814
-0.001123
-0.001371
0.001957
0.005604
0.001179
0.001851
0.001455
0.003655
-0.000493
-0.001338
-0.003674
-0.004799
-0.002065
0.001493
-0.001197
-0.004504
-0.002115
-0.000646
0.001562
-0.000274
0.001947
0.003679
0.003779
0.001210
-0.001733
0.002818
0.001944
0.001681
0.001626
0.002480
0.000840
0.000851
0.002946
0.005066
0.001906
0.004290
0.002759
-0.000300
0.001437
0.002858
0.004664
0.004787
0.003621
0.004852
0.004973
0.007771
0.008457
0.009158
0.007998
0.008221
0.007286
0.004282
0.004692
0.006569
0.007340
0.006990
0.003443
0.004480
0.005637
0.005858
0.007676
0.007101
0.006255
0.005572
0.006529
0.006849
0.008672
0.008723
0.006767
0.008749
0.006258
0.007711
0.010253
0.008552
0.006600
0.007032
0.007376
0.004505
0.006823
0.006871
0.007329
0.006644
0.008052
0.005502
0.009837
0.008624
0.008214
0.009507
0.008641
0.009688
0.007532
0.008398
0.006357
0.006837
0.010123
0.011164
0.011668
0.011067
0.011929
0.014468
0.012911
0.011117
0.011131
0.009879
0.006737
0.010010
0.011993
0.011528
0.010400
0.011968
0.013426
0.012220
0.008620
0.007912
0.009487
0.009380
0.010260
0.006890
0.011543
0.012824
0.011240
0.013406
0.012155
0.010242
0.009146
0.010396
0.011237
0.012386
0.014765
0.013296
0.014696
0.012066
0.011507
0.013012
0.016227
0.016320
0.014901
0.012351
0.011010
0.013431
0.010358
0.010199
0.010054
0.012424
0.012564
0.014539
0.013666
0.013344
0.012908
0.013697
0.013264
0.013911
0.014296
0.014561
0.016533
0.015854
0.013930
0.013340
0.011593
0.015047
0.017243
0.018733
0.018036
0.019174
0.019691
0.017375
0.015621
0.015651
0.018208
0.018306
0.014839
0.015879
0.016222
0.017779
0.017454
0.018796
0.017296
0.017962
0.019917
0.016932
0.018755
0.019740
0.021532
0.023456
0.020667
0.019381
0.018088
0.019465
0.018353
0.017953
0.017801
0.016007
0.017633
0.017870
0.019711
0.020539
0.019536
0.020193
0.018556
0.019192
0.020728
0.020175
0.019405
0.020819
0.020622
0.021572
0.020506
0.019708
0.019308
0.020244
0.019281
0.019567
0.020554
0.020004
0.019146
0.020052
0.020146
0.020314
0.021263
0.023044
0.020023
0.019589
0.020569
0.020832
0.020028
0.021302
0.022073
0.021106
0.021689
0.024042
0.024072
0.022173
0.017783
0.021795
0.023411
0.025644
0.023076
0.023672
0.022562
0.023170
0.022922
0.022528
0.023145
0.022723
0.022719
0.021985
0.024866
0.026537
0.026259
0.025777
0.024108
0.022958
0.020824
0.022226
0.023597
0.026887
0.026908
0.024155
0.025239
0.027955
0.025894
0.025807
0.025122
0.026084
0.024360
0.024232
0.024668
0.025587
0.026214
0.025684
0.027200
0.025211
0.027144
0.025630
0.023851
0.025723
0.026405
0.027044
0.027096
0.026032
0.024639
0.024952
0.025260
0.025096
0.026278
0.025253
0.025799
0.026334
0.027591
0.030459
0.028406
0.028673
0.028181
0.029056
0.028452
0.029613
0.028493
0.028316
0.028443
0.027911
0.026950
0.026648
0.027186
0.027857
0.027214
0.028545
0.028104
0.026719
0.025853
0.026863
0.027260
0.027522
0.027856
0.027775
0.028465
0.026789
0.027535
0.027920
0.027881
0.027813
0.028215
0.028980
0.028778
0.028492
0.028242
0.027985
0.027710
0.027462
0.027233
0.026996
0.026774
0.026568
0.026360
0.026165
0.025980
0.025796
0.025615
0.025440
0.025271
0.025107
0.024948
0.024789
0.024639
0.024490
0.024346
0.024201
0.024061
0.023925
0.023792
0.023659
0.023528
0.023401
0.023273
0.023149
0.023026
0.022905
0.022785
0.022666
0.022547
0.022430
0.022314
0.022199
0.022085
0.021972
0.021861
0.021747
0.021635
0.021524
0.021413
0.021302
0.021192
0.021082
0.020973
0.020863
0.020754
0.020646
0.020537
0.020430
0.020321
0.020213
0.020104
0.019996
0.019888
0.019781
0.019673
0.019565
0.019457
0.019350
0.019242
0.019134
0.019026
0.018918
0.018811
0.018703
0.018595
0.018488
0.018381
0.018274
0.018167
0.018060
0.017954
0.017848
0.017741
0.017635
0.017529
0.017424
0.017318
0.017213
0.017109
0.017005
0.016901
0.016798
0.016696
0.016593
0.016492
0.016391
0.016291
0.016191
0.016092
0.015993
0.015895
0.015798
0.015702
0.015606
0.015512
0.015418
0.015325
0.015234
0.015143
0.015053
0.014964
0.014876
0.014789
0.014704
0.014619
0.014536
0.014454
0.014373
0.014293
0.014214
0.014137
0.014061
0.013987
0.013914
0.013842
0.013771
0.013702
0.013634
0.013568
0.013503
0.013439
0.013377
0.013317
0.013257
0.013200
0.013143
0.013088
0.013035
0.012983
0.012932
0.012883
0.012835
0.026117
0.027033
0.026713
0.018319
0.018093
0.018495
0.021586
0.021824
0.022073
0.022364
0.004840
0.004582
0.004688
0.013715
0.014329
0.013420
0.014413
0.014539
0.015329
0.013451
-0.004032
-0.004930
-0.004448
-0.005070
0.013935
0.014394
0.014275
0.014440
-0.004373
-0.005442
-0.004978
-0.004742
0.001392
0.002277
0.003242
0.003712
0.004723
0.007651
0.007894
0.007740
0.007725
0.018112
0.017786
0.018300
0.000885
-0.000441
-0.007036
-0.007684
-0.006785
0.010156
0.011237
0.011172
0.010667
-0.002365
-0.000359
-0.002523
-0.007860
-0.004999
-0.005168
-0.005890
0.014071
0.013129
0.013015
0.014424
0.014752
0.014213
0.014287
0.013691
0.013159
0.014797
0.010555
0.011621
0.011711
0.010804
-0.007210
-0.009185
0.012167
-0.017514
-0.017315
-0.017279
-0.017539
-0.001085
-0.001298
-0.001150
-0.001306
0.017603
0.014748
-0.011997
-0.012122
-0.012222
-0.011868
-0.006962
-0.007007
-0.006786
0.011393
0.013846
0.001040
0.001162
0.001209
0.015308
0.015404
0.015015
0.015264
0.014841
0.014905
0.014622
0.000970
0.009484
0.009043
0.008318
0.015177
0.018055
0.017733
0.018228
0.018090
0.021308
0.021858
0.021159
0.021988
0.021481
0.022022
0.022348
0.014104
0.014351
0.014185
0.016220
0.015764
0.016234
0.015574
0.014506
0.024017
0.025184
0.024058
0.009620
0.009772
0.009489
0.009663
0.019718
0.020419
0.020000
-0.021874
-0.021971
-0.022136
-0.021693
0.020848
0.006012
0.005980
0.006161
0.006147
0.014482
0.013241
0.013769
0.014364
0.018865
0.019698
0.019083
0.019941
-0.000007
-0.000143
-0.000212
-0.000340
0.009524
0.009346
0.009538
0.002033
0.001982
0.001840
0.002030
0.000040
0.001688
0.009347
0.001704
0.004821
0.004889
0.005057
0.004700
0.010148
0.010468
0.010260
0.010582
-0.011521
-0.011585
-0.011222
0.019543
0.019595
0.019163
0.019485
0.016954
0.015888
0.015965
0.015201
0.017843
0.020008
0.019661
0.019597
0.006997
0.006517
0.007194
0.006768
0.006901
0.005840
0.006202
0.002955
0.002640
0.002871
0.002714
0.013785
0.013737
0.014406
0.012987
0.013157
0.012714
0.012981
0.012772
0.017523
0.017327
0.017776
0.017552
0.012577
0.012145
0.013105
0.011259
-0.007902
-0.008010
-0.008296
0.005685
0.005533
0.005477
0.005649
-0.032003
-0.031817
-0.031574
-0.031410
-0.004740
-0.004925
-0.004621
-0.004918
-0.004311
-0.004166
0.019200
-0.003210
0.001052
0.002229
0.000710
0.002798
-0.001288
-0.002985
-0.003611
-0.003902
0.007117
0.007290
0.007205
0.007375
-0.014676
-0.014033
-0.014591
-0.016272
-0.015568
-0.016146
-0.006568
-0.005794
-0.005899
-0.006106
-0.031540
-0.031834
-0.031823
-0.031594
-0.031735
-0.031966
-0.017230
-0.016464
-0.016870
-0.015783
-0.021819
-0.021605
-0.021019
-0.022157
-0.010940
-0.010933
-0.011131
-0.015421
-0.000220
0.000349
-0.001764
-0.031184
0.009685
0.010206
0.005803
0.005821
0.005979
-0.008247
-0.008543
-0.008696
-0.008795
0.000293
0.000016
0.000450
0.000022
0.006069
0.006041
0.007510
0.005297
-0.019653
-0.019359
-0.019391
-0.018999
-0.006939
-0.006569
-0.004803
-0.007681
-0.011403
-0.010739
-0.013897
-0.012228
-0.016983
-0.017511
-0.017678
-0.016637
-0.011492
-0.011695
-0.011167
-0.011632
-0.010302
-0.010200
-0.009594
-0.009625
-0.005863
-0.005725
-0.006030
-0.005951
-0.013096
-0.012242
-0.012294
-0.011477
-0.012086
-0.011555
-0.011918
-0.004840
-0.000033
-0.001324
-0.000784
-0.001870
0.013770
0.013879
0.001332
0.000522
0.000496
0.023368
0.023856
0.022969
-0.003835
-0.003500
-0.003625
-0.003693
0.012089
0.012313
0.012671
0.016933
0.015899
0.009015
0.008348
0.008625
0.015034
-0.007222
-0.007600
0.020033
0.006770
0.006777
0.006988
-0.009172
-0.008991
-0.008986
-0.016071
-0.016746
-0.009149
-0.008879
-0.004715
-0.004736
-0.004540
-0.004495
-0.018845
-0.019051
-0.017892
-0.019586
-0.022805
-0.023227
-0.022878
-0.023409
-0.027504
-0.027277
-0.028088
-0.026830
0.004197
0.002580
0.003533
0.001835
-0.025167
-0.024775
-0.024695
-0.025321
-0.000466
-0.000095
-0.000239
-0.001018
-0.000234
-0.000839
0.000233
0.012598
0.013355
0.013012
-0.007078
-0.008682
-0.009199
-0.001304
-0.001267
-0.000806
-0.000455
-0.009569
-0.006983
-0.006772
-0.006759
-0.006920
0.007111
0.007223
0.006977
0.022871
0.023246
0.022433
0.023065
0.001708
0.001616
0.001572
0.022206
0.021974
0.021676
0.013230
0.013130
0.022576
0.022240
0.022026
0.022786
-0.000447
0.001401
0.001497
0.008044
0.009795
0.006107
0.001005
0.003770
0.003680
0.003647
0.003864
0.004452
0.002592
0.002338
0.016593
0.017370
0.017509
0.007706
0.008094
0.007367
0.006896
0.005960
0.009216
0.008934
0.009046
-0.009051
-0.008776
-0.009697
0.003500
0.003045
0.003473
0.004975
0.004900
0.005100
0.008251
0.012462
0.012736
0.012510
-0.007584
-0.008463
-0.008603
-0.007304
-0.002837
-0.002689
-0.001752
-0.003605
-0.025086
-0.024252
-0.024260
-0.023319
0.018542
0.026171
0.025835
0.002872
0.001398
0.025166
0.007428
0.006563
0.006816
-0.006815
-0.006705
0.024653
0.025723
0.025719
0.006264
-0.010299
-0.010163
-0.010310
-0.010109
0.000291
0.023359
0.024016
-0.008286
-0.003852
-0.003313
-0.003165
0.007481
0.007483
0.007733
0.005711
0.005890
0.006141
0.006213
-0.001836
-0.001663
-0.001771
-0.001586
0.005384
0.004777
0.004989
0.007282
-0.005241
-0.006023
-0.006543
-0.008110
0.012448
0.012898
0.012642
0.012900
0.012782
0.012899
0.013870
0.007141
0.006732
0.006722
0.006418
-0.008995
-0.007627
-0.009604
-0.016624
-0.016441
-0.016727
-0.016497
-0.024247
-0.023136
0.000626
0.000882
0.000692
0.024081
0.024708
0.024654
0.001013
0.003352
0.003406
0.003211
0.003524
0.010388
0.010593
0.011330
-0.025243
-0.024344
0.024066
0.009593
0.002987
0.003165
0.003015
0.003190
0.016022
0.016275
0.016512
0.015917
0.001159
0.000322
0.014700
0.016632
0.016321
-0.006570
-0.008514
-0.006829
-0.000823
-0.000888
-0.001026
-0.002032
-0.002630
-0.002524
-0.000658
-0.003257
-0.003011
-0.003524
-0.001157
-0.001119
-0.001277
0.014568
0.015393
0.014839
0.012243
0.012396
0.012192
0.001668
0.001555
0.001490
0.001762
0.002020
0.001895
0.001802
0.011778
0.012450
0.007658
0.012078
0.011807
0.012033
0.003582
0.003743
0.003517
0.003296
-0.015739
-0.015947
-0.015794
0.001719
0.006495
0.005344
0.006889
0.006846
0.013374
0.013432
0.013701
0.001310
0.002225
0.006544
0.006559
0.003048
0.002939
0.003464
0.003300
0.004904
0.005453
0.005224
-0.002353
-0.001960
-0.002705
-0.002497
0.004392
0.004429
-0.007515
-0.007760
-0.007690
-0.007942
0.013158
0.010863
0.012056
0.011976
0.023336
0.023555
0.010700
0.010623
0.010489
0.014253
0.014972
0.014224
-0.004230
-0.003709
-0.003782
0.002556
0.001261
0.014818
0.018573
0.019509
0.019124
0.014322
0.013059
0.014910
-0.008858
-0.008041
-0.007943
-0.011401
-0.011603
-0.011560
-0.011766
-0.016033
0.015774
0.015596
0.015222
0.016182
0.004400
0.004489
0.004138
0.007210
0.007273
0.006822
0.005018
0.004019
0.003910
0.014181
0.014509
0.013913
0.014682
0.003821
0.019801
0.019435
0.020098
0.018122
0.017693
0.018187
0.019270
-0.025769
-0.029046
-0.028691
-0.029990
0.010662
0.010460
0.010675
0.010478
0.019492
0.019633
-0.023597
-0.023054
-0.023584
0.012359
0.012359
0.012866
-0.022626
-0.023567
-0.023857
-0.023808
0.002546
0.002463
0.002667
0.010329
0.010100
0.010506
0.010212
-0.005528
-0.005811
-0.005694
0.002495
0.000831
0.001567
0.011235
0.010661
0.010018
0.022566
0.022368
0.023179
0.001815
0.023152
0.002130
0.002382
0.001982
-0.018028
-0.018086
-0.019034
-0.018432
-0.018321
-0.018859
0.007510
0.007149
0.007687
0.003685
0.003502
0.001392
0.000340
-0.000757
0.001740
0.011575
0.011048
0.011156
0.011422
0.011640
0.011912
-0.030724
-0.030672
-0.029429
0.002148
0.002283
0.001893
-0.000494
-0.000541
-0.000823
0.002804
0.004543
0.004530
0.006779
0.006672
0.006586
-0.000761
-0.000731
-0.000530
0.022469
0.022168
0.021908
0.006862
-0.009431
-0.009662
-0.009601
-0.009541
0.003916
0.003913
-0.011821
-0.011837
-0.012038
0.003692
0.003099
0.017458
0.018313
0.017896
0.013322
0.013628
-0.013964
-0.014046
-0.013763
-0.006100
-0.005743
-0.006145
0.016928
0.002642
0.003253
0.002713
0.013895
0.014032
-0.016898
-0.016488
-0.016685
-0.016734
0.001447
-0.000315
-0.000663
0.009245
0.009453
0.009178
0.009613
0.007068
0.006947
0.000727
0.007231
-0.018436
-0.018230
-0.018222
-0.012221
-0.018037
-0.018626
-0.018592
-0.018856
0.018227
0.002757
0.002571
0.002782
0.004978
0.004411
0.006767
0.007187
0.015511
0.016033
0.001177
0.002283
0.000816
0.001874
0.007023
0.006509
0.015447
0.015746
0.016298
0.014808
0.012719
0.012619
0.001529
0.001592
0.017802
0.017686
0.017310
0.017181
0.001349
0.002624
0.003801
0.003096
0.007209
0.006827
0.007127
0.019667
0.020231
0.019494
0.020566
0.004527
0.003786
0.007080
0.004820
0.004434
0.004658
0.006856
0.004495
0.015454
0.014734
0.005120
0.015399
0.005082
0.005279
0.005224
0.007312
0.006704
0.007977
0.016411
0.016376
0.015773
0.016045
-0.016086
-0.017317
-0.016505
0.005144
-0.010784
-0.011565
-0.010855
-0.011285
-0.017304
-0.026435
-0.027217
-0.026155
0.005535
0.005224
-0.027405
0.013438
0.013151
0.012887
-0.016526
-0.018662
-0.018656
0.012577
-0.001426
-0.000884
0.002632
0.004035
0.001718
-0.005527
-0.006795
-0.009021
0.006610
0.006758
0.006488
0.001109
0.001163
0.001006
0.001279
-0.001227
-0.001450
-0.004436
-0.004508
-0.004702
-0.004243
0.006617
0.006411
-0.004964
-0.004805
-0.005000
0.001128
0.001268
0.006270
0.006119
0.006295
0.006135
0.016214
0.016083
0.015857
0.004283
0.003770
0.004072
0.016777
0.016741
0.006232
0.004301
0.004672
0.004501
-0.001907
-0.002178
-0.002198
0.013291
0.013603
0.012802
0.006340
0.018348
0.018820
0.018781
0.009799
0.009775
0.010046
0.015685
0.015726
0.015430
0.009513
0.015545
-0.001345
-0.001054
0.008464
0.008622
0.008418
-0.012368
-0.012461
-0.012639
-0.012259
0.009298
0.008814
0.010023
0.010242
0.006629
0.007888
-0.003010
0.007884
0.007695
0.007918
0.008607
0.004527
0.004765
0.004700
-0.012844
-0.012689
-0.012514
-0.012955
-0.015564
-0.015813
0.012585
-0.015587
0.005652
0.005071
0.005407
0.013524
0.017332
0.011538
0.011728
0.011868
0.012109
0.017531
0.008229
0.007931
0.016306
-0.013907
-0.013901
-0.013660
-0.013430
-0.031443
-0.031164
-0.031617
0.005116
0.021065
0.020695
0.020098
0.021668
0.021431
-0.020602
-0.020794
-0.021086
-0.019968
-0.021185
-0.019759
-0.018316
-0.015519
-0.020468
0.014036
0.014031
0.009489
0.009821
0.010206
-0.002782
-0.003113
-0.002939
0.014118
-0.003174
-0.000155
-0.001645
0.007789
0.008792
0.009080
0.010131
-0.018690
-0.018907
-0.018767
0.007550
-0.008505
-0.019077
-0.001316
-0.001621
-0.001738
-0.018443
-0.018357
0.011340
0.011715
0.011611
-0.001206
0.011431
0.003112
-0.011398
-0.011373
-0.011183
0.003749
-0.000332
-0.000527
0.003540
-0.016300
-0.015988
-0.018431
-0.018485
-0.020643
-0.023551
-0.015125
-0.015362
-0.015328
0.005290
0.005619
-0.000164
-0.000112
-0.015093
0.000078
0.014928
0.014872
0.014430
0.005302
0.003904
0.004110
0.015478
0.013758
0.013991
0.013260
0.015559
0.015969
0.016193
0.016527
-0.018837
-0.019239
-0.018689
-0.019178
-0.018763
-0.007794
-0.008327
-0.008081
-0.008083
-0.007675
-0.003636
0.001984
-0.001823
-0.025530
0.003811
0.003710
0.003535
0.003995
0.014177
0.006635
0.006463
-0.002454
-0.002700
-0.002506
-0.002091
-0.026337
-0.026655
-0.026380
-0.026550
-0.026506
0.012222
0.011299
0.011994
0.010901
0.011217
0.003074
0.002746
0.003087
-0.011089
0.020994
0.020618
0.019590
0.007323
0.019680
-0.000946
-0.000865
-0.000973
-0.001993
-0.002604
-0.001814
0.001834
0.001939
0.001445
0.001484
0.008816
0.001341
-0.025410
-0.025168
-0.025525
-0.025831
-0.025111
0.004131
-0.002589
-0.003305
-0.018999
-0.019264
-0.019243
-0.003506
-0.019497
-0.021011
-0.021295
-0.020629
-0.020924
0.019165
0.018990
-0.001357
-0.013790
-0.011025
0.011604
0.010816
0.005362
0.005233
0.005388
0.000823
0.001833
-0.011505
-0.011112
-0.011125
0.013117
0.009790
0.010232
-0.004238
-0.025597
-0.025434
-0.025765
-0.025313
0.013785
0.013374
0.014069
0.001586
0.001228
0.001660
0.012666
0.009760
0.009338
0.009419
0.009293
0.006412
0.008158
0.007709
0.012732
0.013556
0.013834
0.014263
-0.008508
-0.008849
-0.008621
0.003924
0.011293
0.010702
0.010930
0.011595
0.011486
0.015258
0.014724
0.015500
0.014565
0.005373
0.004029
0.005263
0.005906
-0.021935
-0.022334
-0.022420
-0.002706
-0.002217
-0.002924
0.006603
0.005915
0.003664
0.002791
0.002595
0.003112
0.002982
-0.023301
-0.022723
0.003591
-0.002094
-0.001457
-0.000638
-0.000888
-0.001050
0.013273
0.012935
0.013912
-0.031249
-0.031747
-0.031257
0.012886
-0.003125
0.010216
0.009274
0.009296
-0.008738
-0.009124
-0.008802
-0.009195
0.013607
0.013834
0.016871
-0.024010
0.007544
0.007894
0.006326
0.006081
0.006435
0.005158
0.005630
0.004006
0.006969
-0.016730
-0.017423
-0.020109
-0.020357
-0.016580
0.015929
0.015885
0.015516
0.012730
-0.015233
-0.014950
-0.015028
0.015682
-0.014810
0.017190
0.016748
0.016794
0.008715
0.009122
0.009424
0.009746
0.015206
-0.015579
-0.010688
-0.010111
-0.010601
-0.000182
0.000015
-0.000054
-0.011871
0.000199
-0.016141
-0.003555
-0.004166
-0.003835
-0.009534
-0.009535
-0.009980
-0.019285
-0.019460
-0.019126
-0.000223
-0.000190
-0.006886
-0.006368
-0.006676
-0.006406
0.005352
0.005241
0.005004
-0.016451
-0.016677
-0.016800
0.004878
0.002298
-0.000369
0.018081
0.018373
0.014034
0.013231
0.014421
0.012820
-0.023374
-0.020144
-0.022533
-0.021529
-0.010418
-0.010325
-0.010142
0.014208
0.013542
0.013493
-0.015752
-0.015876
-0.016084
0.004843
0.014331
0.004399
0.018516
0.015071
0.014879
0.015174
-0.026509
-0.026951
-0.026549
-0.026884
0.007062
0.016515
0.010799
0.011278
0.011798
0.010187
0.012351
0.012805
0.016427
0.016481
-0.013228
-0.012799
-0.013562
-0.004844
-0.005120
-0.005215
-0.007173
-0.007364
-0.007054
-0.012713
-0.013499
-0.015126
-0.015306
-0.019979
-0.022634
-0.024679
0.013589
0.013333
-0.025982
-0.026717
-0.027852
-0.026716
-0.025648
-0.028471
-0.012353
-0.012174
-0.012325