# vtk DataFile Version 2.0
Test
ASCII
DATASET POLYDATA
POINTS 3011 float
0.000000 0.000000 0.000000
2.000000 0.000000 0.000000
2.000000 4.000000 0.000000
0.000000 4.000000 0.000000
0.000000 0.500000 0.000000
1.500000 2.000000 0.000000
2.000000 2.500000 0.000000
0.285714 0.000000 0.000000
0.571429 0.000000 0.000000
0.857143 0.000000 0.000000
1.142857 0.000000 0.000000
1.428571 0.000000 0.000000
1.714286 0.000000 0.000000
2.000000 0.276366 0.000000
2.000000 0.523709 0.000000
2.000000 0.745076 0.000000
2.000000 0.943195 0.000000
2.000000 1.120508 0.000000
2.000000 1.279199 0.000000
2.000000 1.421225 0.000000
2.000000 1.548336 0.000000
2.000000 1.662097 0.000000
2.000000 1.763911 0.000000
2.000000 1.855033 0.000000
2.000000 1.936585 0.000000
2.000000 2.009573 0.000000
2.000000 2.074896 0.000000
2.000000 2.133358 0.000000
2.000000 2.185681 0.000000
2.000000 2.232509 0.000000
2.000000 2.274419 0.000000
2.000000 2.311927 0.000000
2.000000 2.345497 0.000000
2.000000 2.375541 0.000000
2.000000 2.402430 0.000000
2.000000 2.426495 0.000000
2.000000 2.448033 0.000000
2.000000 2.467309 0.000000
2.000000 2.484560 0.000000
2.000000 2.516256 0.000000
2.000000 2.535859 0.000000
2.000000 2.559499 0.000000
2.000000 2.588006 0.000000
2.000000 2.622383 0.000000
2.000000 2.663839 0.000000
2.000000 2.713831 0.000000
2.000000 2.774116 0.000000
2.000000 2.846815 0.000000
2.000000 2.934483 0.000000
2.000000 3.040202 0.000000
2.000000 3.167691 0.000000
2.000000 3.321430 0.000000
2.000000 3.506825 0.000000
2.000000 3.730395 0.000000
1.714286 4.000000 0.000000
1.428571 4.000000 0.000000
1.142857 4.000000 0.000000
0.857143 4.000000 0.000000
0.571429 4.000000 0.000000
0.285714 4.000000 0.000000
0.000000 3.713462 0.000000
0.000000 3.449209 0.000000
0.000000 3.205508 0.000000
0.000000 2.980761 0.000000
0.000000 2.773493 0.000000
0.000000 2.582346 0.000000
0.000000 2.406065 0.000000
0.000000 2.243495 0.000000
0.000000 2.093568 0.000000
0.000000 1.955302 0.000000
0.000000 1.827789 0.000000
0.000000 1.710194 0.000000
0.000000 1.601745 0.000000
0.000000 1.501730 0.000000
0.000000 1.409494 0.000000
0.000000 1.324431 0.000000
0.000000 1.245984 0.000000
0.000000 1.173639 0.000000
0.000000 1.106920 0.000000
0.000000 1.045390 0.000000
0.000000 0.988645 0.000000
0.000000 0.936314 0.000000
0.000000 0.888053 0.000000
0.000000 0.843545 0.000000
0.000000 0.802499 0.000000
0.000000 0.764646 0.000000
0.000000 0.729736 0.000000
0.000000 0.697541 0.000000
0.000000 0.667851 0.000000
0.000000 0.640469 0.000000
0.000000 0.615217 0.000000
0.000000 0.591929 0.000000
0.000000 0.570453 0.000000
0.000000 0.550646 0.000000
0.000000 0.532380 0.000000
0.000000 0.515535 0.000000
0.000000 0.483768 0.000000
0.000000 0.461535 0.000000
0.000000 0.431083 0.000000
0.000000 0.389372 0.000000
0.000000 0.332241 0.000000
0.000000 0.253989 0.000000
0.000000 0.146807 0.000000
0.010563 0.510563 0.000000
0.021127 0.521127 0.000000
0.031690 0.531690 0.000000
0.042254 0.542254 0.000000
0.052817 0.552817 0.000000
0.063380 0.563380 0.000000
0.073944 0.573944 0.000000
0.084507 0.584507 0.000000
0.095070 0.595070 0.000000
0.105634 0.605634 0.000000
0.116197 0.616197 0.000000
0.126761 0.626761 0.000000
0.137324 0.637324 0.000000
0.147887 0.647887 0.000000
0.158451 0.658451 0.000000
0.169014 0.669014 0.000000
0.179577 0.679577 0.000000
0.190141 0.690141 0.000000
0.200704 0.700704 0.000000
0.211268 0.711268 0.000000
0.221831 0.721831 0.000000
0.232394 0.732394 0.000000
0.242958 0.742958 0.000000
0.253521 0.753521 0.000000
0.264085 0.764085 0.000000
0.274648 0.774648 0.000000
0.285211 0.785211 0.000000
0.295775 0.795775 0.000000
0.306338 0.806338 0.000000
0.316901 0.816901 0.000000
0.327465 0.827465 0.000000
0.338028 0.838028 0.000000
0.348592 0.848592 0.000000
0.359155 0.859155 0.000000
0.369718 0.869718 0.000000
0.380282 0.880282 0.000000
0.390845 0.890845 0.000000
0.401408 0.901408 0.000000
0.411972 0.911972 0.000000
0.422535 0.922535 0.000000
0.433099 0.933099 0.000000
0.443662 0.943662 0.000000
0.454225 0.954225 0.000000
0.464789 0.964789 0.000000
0.475352 0.975352 0.000000
0.485915 0.985915 0.000000
0.496479 0.996479 0.000000
0.507042 1.007042 0.000000
0.517606 1.017606 0.000000
0.528169 1.028169 0.000000
0.538732 1.038732 0.000000
0.549296 1.049296 0.000000
0.559859 1.059859 0.000000
0.570423 1.070423 0.000000
0.580986 1.080986 0.000000
0.591549 1.091549 0.000000
0.602113 1.102113 0.000000
0.612676 1.112676 0.000000
0.623239 1.123239 0.000000
0.633803 1.133803 0.000000
0.644366 1.144366 0.000000
0.654930 1.154930 0.000000
0.665493 1.165493 0.000000
0.676056 1.176056 0.000000
0.686620 1.186620 0.000000
0.697183 1.197183 0.000000
0.707746 1.207746 0.000000
0.718310 1.218310 0.000000
0.728873 1.228873 0.000000
0.739437 1.239437 0.000000
0.750000 1.250000 0.000000
0.760563 1.260563 0.000000
0.771127 1.271127 0.000000
0.781690 1.281690 0.000000
0.792254 1.292254 0.000000
0.802817 1.302817 0.000000
0.813380 1.313380 0.000000
0.823944 1.323944 0.000000
0.834507 1.334507 0.000000
0.845070 1.345070 0.000000
0.855634 1.355634 0.000000
0.866197 1.366197 0.000000
0.876761 1.376761 0.000000
0.887324 1.387324 0.000000
0.897887 1.397887 0.000000
0.908451 1.408451 0.000000
0.919014 1.419014 0.000000
0.929577 1.429577 0.000000
0.940141 1.440141 0.000000
0.950704 1.450704 0.000000
0.961268 1.461268 0.000000
0.971831 1.471831 0.000000
0.982394 1.482394 0.000000
0.992958 1.492958 0.000000
1.003521 1.503521 0.000000
1.014085 1.514085 0.000000
1.024648 1.524648 0.000000
1.035211 1.535211 0.000000
1.045775 1.545775 0.000000
1.056338 1.556338 0.000000
1.066901 1.566901 0.000000
1.077465 1.577465 0.000000
1.088028 1.588028 0.000000
1.098592 1.598592 0.000000
1.109155 1.609155 0.000000
1.119718 1.619718 0.000000
1.130282 1.630282 0.000000
1.140845 1.640845 0.000000
1.151408 1.651408 0.000000
1.161972 1.661972 0.000000
1.172535 1.672535 0.000000
1.183099 1.683099 0.000000
1.193662 1.693662 0.000000
1.204225 1.704225 0.000000
1.214789 1.714789 0.000000
1.225352 1.725352 0.000000
1.235915 1.735915 0.000000
1.246479 1.746479 0.000000
1.257042 1.757042 0.000000
1.267606 1.767606 0.000000
1.278169 1.778169 0.000000
1.288732 1.788732 0.000000
1.299296 1.799296 0.000000
1.309859 1.809859 0.000000
1.320423 1.820423 0.000000
1.330986 1.830986 0.000000
1.341549 1.841549 0.000000
1.352113 1.852113 0.000000
1.362676 1.862676 0.000000
1.373239 1.873239 0.000000
1.383803 1.883803 0.000000
1.394366 1.894366 0.000000
1.404930 1.904930 0.000000
1.415493 1.915493 0.000000
1.426056 1.926056 0.000000
1.436620 1.936620 0.000000
1.447183 1.947183 0.000000
1.457746 1.957746 0.000000
1.468310 1.968310 0.000000
1.478873 1.978873 0.000000
1.489437 1.989437 0.000000
1.510417 2.010417 0.000000
1.520833 2.020833 0.000000
1.531250 2.031250 0.000000
1.541667 2.041667 0.000000
1.552083 2.052083 0.000000
1.562500 2.062500 0.000000
1.572917 2.072917 0.000000
1.583333 2.083333 0.000000
1.593750 2.093750 0.000000
1.604167 2.104167 0.000000
1.614583 2.114583 0.000000
1.625000 2.125000 0.000000
1.635417 2.135417 0.000000
1.645833 2.145833 0.000000
1.656250 2.156250 0.000000
1.666667 2.166667 0.000000
1.677083 2.177083 0.000000
1.687500 2.187500 0.000000
1.697917 2.197917 0.000000
1.708333 2.208333 0.000000
1.718750 2.218750 0.000000
1.729167 2.229167 0.000000
1.739583 2.239583 0.000000
1.750000 2.250000 0.000000
1.760417 2.260417 0.000000
1.770833 2.270833 0.000000
1.781250 2.281250 0.000000
1.791667 2.291667 0.000000
1.802083 2.302083 0.000000
1.812500 2.312500 0.000000
1.822917 2.322917 0.000000
1.833333 2.333333 0.000000
1.843750 2.343750 0.000000
1.854167 2.354167 0.000000
1.864583 2.364583 0.000000
1.875000 2.375000 0.000000
1.885417 2.385417 0.000000
1.895833 2.395833 0.000000
1.906250 2.406250 0.000000
1.916667 2.416667 0.000000
1.927083 2.427083 0.000000
1.937500 2.437500 0.000000
1.947917 2.447917 0.000000
1.958333 2.458333 0.000000
1.968750 2.468750 0.000000
1.979167 2.479167 0.000000
1.989583 2.489583 0.000000
0.206561 0.791563 0.000000
0.205359 0.816165 0.000000
0.186354 0.798211 0.000000
0.221961 0.800924 0.000000
0.280649 1.360489 0.000000
0.304015 1.400469 0.000000
0.229142 1.396096 0.000000
0.275922 1.451476 0.000000
1.869084 2.391788 0.000000
1.857928 2.378421 0.000000
1.238669 2.061899 0.000000
1.278787 2.082276 0.000000
1.238298 2.096047 0.000000
1.277579 2.032995 0.000000
0.402536 1.205823 0.000000
0.415290 1.176040 0.000000
0.428330 1.201952 0.000000
0.387294 1.172617 0.000000
0.146930 1.050586 0.000000
0.109488 1.087198 0.000000
0.102742 1.042403 0.000000
0.157178 1.091184 0.000000
0.588967 1.178581 0.000000
0.593116 1.153718 0.000000
0.608054 1.166752 0.000000
0.612180 1.145944 0.000000
0.860304 1.543784 0.000000
0.868821 1.521840 0.000000
0.878420 1.536650 0.000000
0.845380 1.517623 0.000000
1.129525 1.764330 0.000000
1.142005 1.751560 0.000000
1.145757 1.773681 0.000000
1.159368 1.759106 0.000000
1.968150 2.518865 0.000000
1.986105 2.509269 0.000000
1.986696 2.531115 0.000000
0.668964 1.191005 0.000000
0.683291 1.201259 0.000000
0.557625 1.074830 0.000000
0.569760 1.084377 0.000000
0.557769 1.089278 0.000000
0.707567 1.266174 0.000000
0.719026 1.281845 0.000000
0.700768 1.282275 0.000000
0.722329 1.266956 0.000000
0.468225 2.149688 0.000000
0.419106 2.064198 0.000000
0.523878 2.082648 0.000000
0.838546 1.421191 0.000000
0.823708 1.410355 0.000000
0.840477 1.404206 0.000000
0.818500 1.425973 0.000000
0.953187 1.488222 0.000000
0.959780 1.473222 0.000000
0.967054 1.485637 0.000000
1.047418 1.769126 0.000000
1.080240 1.782403 0.000000
1.047768 1.802712 0.000000
0.971392 1.693320 0.000000
0.949208 1.720793 0.000000
0.940644 1.684781 0.000000
0.381391 2.160909 0.000000
0.944091 1.477800 0.000000
0.530075 1.477351 0.000000
0.521303 1.516669 0.000000
0.474240 1.491166 0.000000
0.489489 1.546185 0.000000
1.537370 2.239326 0.000000
1.555275 2.267640 0.000000
1.532966 2.278201 0.000000
0.962010 1.661716 0.000000
0.986804 1.643200 0.000000
0.986259 1.672729 0.000000
1.049149 1.737940 0.000000
1.075111 1.737123 0.000000
[...]
POINT_DATA 3011
SCALARS UX float 1
LOOKUP_TABLE default
-0.000000
0.000000
-1.013707
-1.071974
1.129511
-1.072549
-0.889961
0.000000
-0.000000
-0.000000
-0.000000
0.000000
-0.000000
0.015227
0.021732
0.023521
0.021176
0.016096
0.006970
-0.006373
-0.022119
-0.038676
-0.050776
-0.057645
-0.050474
-0.047391
-0.057345
-0.068944
-0.063967
-0.023164
0.069850
0.378424
1.425754
2.304155
2.210428
-0.024459
-1.045449
-0.867021
-0.886955
-0.894517
-0.896225
-0.896537
-0.897668
-0.900138
-0.899326
-0.901676
-0.905136
-0.914017
-0.953185
-0.963049
-0.978133
-0.990948
-1.001887
-1.009985
-1.021642
-1.030064
-1.039988
-1.050291
-1.059332
-1.066290
-1.070855
-1.069233
-1.064795
-1.057645
-1.047856
-1.035598
-1.021172
-1.005569
-0.988766
-0.971672
-0.955899
-0.942554
-0.931544
-0.922456
-0.914092
-0.904924
-0.891513
-0.872256
-0.845956
-0.814247
-0.775158
-0.730959
-0.681695
-0.631503
-0.584672
-0.543293
-0.505877
-0.498101
-0.510840
-0.895781
-0.835861
-0.872658
-0.905993
-0.909436
-1.275470
-2.402881
1.804947
-0.312122
-0.066990
-0.032496
-0.016779
-0.012669
-0.008884
-2.465091
-1.981576
-0.901000
-0.904519
-0.899026
-0.738865
-0.812530
-0.979442
0.209432
-0.357871
-0.240988
-0.252609
-0.126536
1.101772
0.308442
2.732065
-0.534602
-0.431684
-0.761161
-0.544069
-1.435439
-0.559744
-1.295641
-0.875920
-0.598676
-0.311382
-0.284515
-0.265573
-0.285651
-0.284680
-0.132737
-0.231286
-0.277025
-0.261706
-0.193185
-0.188675
-0.171223
-0.173028
-0.197366
-0.213281
-0.021745
-0.444479
-0.491361
-0.531208
-0.400449
-0.541782
-0.329312
-0.001017
-0.614267
-0.922021
-0.869994
-0.562437
-0.858097
-0.506851
-0.150384
-0.228829
-0.392773
-0.530387
-0.585393
-1.095523
-1.124166
-0.902143
-0.898878
-0.891549
-0.743454
-1.035663
-0.723118
-0.840374
-0.789804
-0.709272
-0.646251
-0.801251
-0.801383
-0.814950
-1.412585
-0.367272
-0.225013
-0.163552
-0.099772
-0.023585
0.005628
-0.031740
-0.038786
-0.011042
-0.016784
-0.023088
-0.029305
-0.034576
-0.039469
-0.030211
0.012285
0.065641
0.052747
0.090218
0.126900
0.212125
0.500716
-0.467882
-0.399843
-0.471374
-0.773409
-0.355270
-0.343484
-0.379450
-0.344315
-0.360125
-0.342940
-0.322007
-0.283251
-0.334275
-0.248988
-0.285958
-0.151423
-0.482594
-0.560614
-0.783743
-0.384527
-0.482456
-0.513255
-0.468603
-0.457246
-0.495580
-0.474098
-0.538127
-0.612558
-0.674974
-0.327836
-0.340397
-0.290948
-0.389340
-0.379991
-0.290013
-0.265087
-0.276036
-0.268730
-0.277714
-0.202624
-0.160491
-0.092340
-0.011019
-0.916616
-1.443229
-2.171859
-2.132633
-2.321897
-0.886189
-0.880214
-0.886885
-0.910618
-0.918875
-0.863720
-0.817717
-0.819002
-0.817723
-0.855782
-0.768202
-0.772728
-0.770317
-0.835460
-0.702945
-0.743096
-0.777888
-0.645422
-0.655556
-0.624689
-0.662778
-0.705948
-0.724791
-0.623443
-0.529870
-0.541058
-0.514290
-0.504044
-0.484141
-0.325155
-0.380456
-0.432065
-0.487279
-0.539791
-0.639860
-0.728351
-0.802573
-0.848479
-0.891249
-0.784014
-0.850338
-0.880830
-0.888166
-0.596940
-0.599810
-0.575998
-0.596231
-0.895063
-0.897560
-0.903270
-0.905344
-0.515723
-0.445392
-0.950621
-0.975345
-0.968942
-0.918390
-0.833132
-0.831550
-0.839337
-0.834992
-0.815885
-0.838333
-0.812816
-0.838421
-0.884488
-0.919514
-0.890728
-0.935867
-0.862885
-0.855620
-0.858490
-0.857846
-0.825475
-0.789832
-0.742572
-0.687133
-0.897504
-0.894569
-0.896704
-0.863740
-0.847807
-0.848628
-0.393540
-0.793209
-0.809394
-0.817321
-0.812550
-0.812975
-0.985925
-0.975902
-0.976695
-0.836751
-0.835664
-0.819037
-0.836889
0.155407
0.043559
0.139014
-0.899861
-0.894640
-0.912867
-0.885256
-0.898292
-0.888334
-0.988787
0.000508
-0.880504
-0.887082
-0.888403
-0.894417
-0.958084
-0.932840
-0.936987
-0.877200
-0.869548
-0.874561
-0.883706
-0.871394
-0.890105
-0.914148
-0.866751
-0.652363
-0.518548
-0.478209
-0.617641
-0.946754
-0.945397
-0.944922
-0.951812
-0.945171
-0.944935
-0.869784
-0.868634
-0.865551
-0.904230
-0.900367
-0.910189
-0.863968
-0.911395
-0.870038
-0.857612
-0.862551
-0.867733
-0.981773
-0.979079
-0.975967
-0.987549
-0.930004
-0.916445
-0.921453
-0.908615
-0.894499
-0.972247
-0.927749
-0.883655
-0.885316
-0.872801
-0.864465
-0.859691
-0.860311
-0.854174
-0.876658
-0.943019
-0.950045
-0.954440
-0.872874
-0.815622
-0.820354
-0.974473
-0.965455
-0.970596
-0.880927
-0.867246
-0.958327
-0.884250
-0.891255
-0.889392
-0.883744
-0.885844
-1.012879
-1.052972
-0.868166
-0.875362
-0.876154
-0.712024
2.659441
2.048601
2.624196
-0.881859
-0.927742
-0.864345
-0.866474
-0.886391
-1.200259
-0.924625
-0.913335
-0.919998
-0.842669
-0.907959
-0.926403
-0.918064
-0.792101
-0.820403
-0.784065
-0.650875
-0.443051
-0.541120
-1.008256
-0.772491
-0.943709
-0.901362
-0.916576
-0.886472
-0.904774
-0.910195
-0.879333
-0.920115
-0.918467
-0.618728
-0.116351
-0.289808
-0.888726
-0.611513
-0.644115
-0.605765
-0.843676
-0.851741
-0.844403
-0.899288
-0.850141
-0.654347
-0.682706
-0.686984
-0.909723
-0.878618
-0.801018
-0.755160
-0.714966
-0.691917
-0.834578
-0.843173
-0.838933
-0.810360
-0.810359
-0.899832
-0.918896
-0.929831
-0.808697
-0.819927
-0.814047
-0.967737
-0.961819
-0.961804
-0.972456
-0.592403
-0.554556
-0.852786
-0.872925
-0.880992
-0.863732
-0.398016
-1.359391
-1.132035
-0.995275
-0.997969
-1.008025
-1.012586
-12.021406
-1.854530
-4.374126
-0.930597
-0.930978
-0.914283
-0.908445
-0.944366
-0.571386
-0.909750
-0.892403
-0.859835
-0.939450
-0.940714
-0.929153
-0.947725
-0.926514
-0.915217
-0.907048
-0.799564
-0.749865
-0.859143
-0.834675
-0.855580
-0.836545
-0.835913
-0.827950
-0.836689
-0.908866
-0.991192
-0.955118
-0.962606
-0.430522
-0.203260
-0.439317
-1.673727
-1.053222
-0.397497
-0.734499
-0.719633
-0.804414
-0.811893
-0.834438
-0.865274
-0.859705
-0.858206
-0.851428
-0.866524
-0.822708
-0.846905
-0.840632
-0.846619
-0.829298
-0.850445
-0.763979
-0.620508
-0.593522
-0.827156
-0.982366
-0.772100
-0.781979
-0.876656
-0.868917
-0.871027
-0.828045
-0.850031
-0.868273
-0.859939
-0.868843
-0.824479
-0.761153
-0.857449
-0.868290
-0.869217
-0.505159
-0.516547
-0.613151
-0.681794
-0.718271
-0.650687
-0.785380
-0.694360
-0.677202
-0.443152
-0.741197
-0.241858
-0.117403
-0.807269
-0.809401
-0.813130
-0.722834
-0.855170
-0.814167
-0.954286
-0.955744
-0.953804
-0.785952
-0.857054
-0.821833
-0.845740
-0.950359
-0.941099
-0.617494
-4.880154
-4.692379
-4.213883
-0.747088
-0.535273
-0.599787
-0.584392
-0.790194
-0.816963
-0.793261
-0.786719
-0.677574
-0.638859
-0.562836
-1.048687
-1.051857
-1.057080
-2.494079
-0.831108
-0.824533
-0.843325
-0.842691
-0.943348
-0.917926
-0.946620
-0.921909
-0.952775
-0.948704
-0.958193
-0.950571
-0.825373
-0.851232
-0.823447
-0.705636
-0.589398
-0.780664
-0.926091
-0.933241
-0.926158
-0.456982
-0.468388
-0.466223
-0.461157
-0.749648
-0.768310
-0.876533
-0.886515
-0.876113
-0.771556
-0.865646
-0.868438
-0.920692
-0.902617
-0.940955
-0.864599
-0.873565
-0.881442
-0.882863
-0.892462
-0.647355
-0.686844
-0.616702
-0.600504
-0.872132
-0.863501
-0.704028
-0.671812
-0.702649
-0.723173
-0.728675
-0.424355
-0.479013
-0.590846
-0.779690
-0.401483
-0.622749
-0.622550
-0.598067
-0.652183
-0.624592
-0.956873
-0.950317
-0.941522
-0.903429
-1.063099
-1.061420
-1.058609
-1.067541
-1.063662
-0.907639
-0.908556
-0.902726
-0.912529
-0.920195
-0.921323
-0.759470
-0.806649
-0.773116
-0.924131
-0.916506
-0.925461
-0.932877
-0.945742
-0.925465
-0.938343
-0.950627
-0.888976
-0.897963
-0.837800
-0.700140
-0.805316
-0.147866
-0.946684
0.196382
-0.897859
-0.901357
-0.903593
-0.822640
-0.921963
-0.894201
-1.020211
-0.674943
-0.794534
-0.789897
-0.974796
-0.971609
-0.979142
-0.983447
-0.974135
-1.015325
-1.026174
-1.016704
-1.030454
-0.872131
-0.878097
-0.865946
-0.507858
-0.480492
-0.496810
-0.445743
-0.903487
-1.013102
-0.725336
-0.735491
-0.738473
-0.841462
-0.884804
-0.720973
-0.876300
-0.815810
-0.736631
-0.612289
-0.541771
-0.544603
-0.943280
-2.150291
-1.889020
-0.895444
-0.883893
-0.897931
-0.880758
-0.894976
-0.957109
-0.908410
-0.832199
-0.799558
-0.810991
-0.897887
-0.956349
-0.948415
-0.951261
-0.841809
-0.886748
-0.874909
-0.880066
-0.882999
-0.875299
-0.860255
-0.854942
-0.902365
-0.910944
-0.648077
-0.619661
-0.655316
-0.621190
-0.307945
-1.040287
-0.736873
-0.808766
-0.835587
-0.839086
-0.865200
-0.903713
-0.915294
-0.088237
-0.470106
0.486114
-0.887216
-0.771228
-0.960571
-0.932220
-0.927686
-0.717403
-0.715121
-0.659908
-1.004535
-0.996764
-1.004367
-0.996365
-1.002999
-0.586141
-0.610080
-0.617822
-0.602529
-0.979588
-0.979230
-0.800007
-0.617098
-0.513926
-0.521459
-0.875823
-0.878274
-0.880692
-0.882080
-0.885009
-0.899205
-0.890729
-0.897998
-0.904692
-0.857539
-0.865981
-0.918807
-0.996246
-0.848613
-0.850725
-0.860146
-0.882571
-0.878298
-2.360406
-2.609825
-3.163403
-0.868488
-0.871180
-0.834601
-0.852660
-0.867399
-0.862086
-0.975374
-0.982277
-0.977004
-0.974237
-1.088773
-0.639776
-0.523980
-0.518464
-0.529942
-0.524979
-0.521179
-0.592991
-0.684082
-0.761411
-0.962018
-0.954165
-0.953185
-0.960120
-0.955666
-0.950100
-0.945728
-0.947121
-0.898315
-0.899716
-0.946308
-0.945976
-0.950596
-0.913622
-0.782539
-0.822584
-0.851622
-0.442657
-0.363161
-0.350377
-0.544416
-0.552785
-0.965029
-0.482264
-0.495254
-0.970205
-0.931137
-0.947198
-0.868499
-1.197227
-0.901126
-0.494637
-0.908270
-0.915112
-0.918642
-0.935921
-0.938770
-0.943123
-0.941723
-0.820172
-0.745940
-0.764907
-0.757742
-0.895282
-0.972762
-0.976033
-0.972365
-0.970309
-0.491435
-0.557366
-0.522605
-0.517114
-0.594988
-0.517058
-1.018323
-1.009978
-1.007694
-1.028459
-1.023570
-0.801551
-0.710847
-0.997663
-1.001258
-1.005587
-0.993063
-0.997186
-1.001952
-0.921636
-0.786151
-1.010497
-0.698654
-0.931542
-0.984639
-0.989317
-0.550009
-0.530023
-0.464558
-0.580695
-0.593098
-1.042020
-1.032881
-1.041873
-1.031799
-0.594096
0.265474
-0.443172
-0.054095
-0.896047
-0.886918
-0.881105
-0.876829
-0.878407
-0.869072
-0.624992
-0.625174
-0.625296
-0.593589
-0.915887
-0.908035
-0.919475
-0.911726
-0.923158
-0.977172
-0.983394
-0.867668
-0.875909
-0.876239
-0.870582
-0.788070
-0.969611
-0.993411
-0.990586
-1.000874
-0.997328
-1.051101
-1.045339
-1.051861
-1.044937
0.319245
0.104570
-0.460060
-0.820119
-0.892680
-0.858687
-0.868202
-0.859488
-0.837694
-0.924305
-0.936013
-0.916200
-0.868610
-0.867312
-0.754356
-0.793878
-0.742511
-0.765299
-0.795874
-0.822560
-1.052902
-0.763942
-0.772771
-0.910860
-0.999315
-0.997667
-0.984549
-0.973185
-0.986276
-0.650012
-0.859904
-0.600631
-0.546555
-0.513426
-0.673937
-1.033588
-1.043796
-1.034933
-0.427310
-0.447381
-0.622892
-0.225368
-0.338647
-0.361683
-0.769641
-0.938815
-0.950906
-0.952582
-0.391401
-0.605844
-0.142665
-0.388594
0.035644
-3.383511
-0.239406
-0.700460
-1.007954
-1.016890
-1.016005
-1.023447
-0.819946
-0.848700
-0.871028
-0.863793
-0.996687
-1.003718
-0.953028
-0.900497
-0.698735
-0.959983
-0.945867
-0.933201
-0.988647
-0.862573
-0.852822
-0.860306
-0.964701
-0.959512
-0.942709
-0.956644
-0.948698
-1.037790
-0.875295
-0.874502
-0.880305
-0.995704
-0.982202
-0.995529
-1.038669
-0.878731
-0.870883
-0.879443
-0.892902
-0.896376
-0.427862
-0.569423
-0.891154
-0.988419
-0.969598
-0.973265
-0.873934
-0.874274
-0.736309
-0.852728
-0.853914
-0.839764
-0.817032
-0.962723
-0.910378
-0.905672
-0.714927
-1.037444
-0.940827
-0.718616
-0.888988
-0.888833
-0.608521
-0.963345
-0.585640
-0.610103
-0.581988
-0.692577
-1.031273
-1.023868
-0.707792
-1.040564
-0.880810
-0.884879
-0.883270
-0.951737
-0.948094
-0.931150
-0.938635
-0.255648
-0.386642
-0.882222
-0.784837
-0.734737
-0.760121
-1.009301
-0.995084
-0.754188
-0.643398
-0.826604
-0.794671
-0.599464
-0.864061
-0.960758
-0.825362
-0.892251
-0.902065
-0.838812
-0.953087
-0.697899
-0.962616
-0.968529
-0.626848
-0.638050
-0.941997
-0.937738
-1.030521
-1.026827
-0.964235
-0.960646
-0.846800
-0.751061
-0.762309
-0.933965
-0.945283
-0.944614
-0.926293
-0.908379
-0.904939
-0.900404
-0.872784
-0.872689
-0.870633
-1.059030
-0.556425
-0.936576
-0.898221
-0.906922
-0.810740
-0.708434
-0.729740
-0.930822
-0.909590
-0.899940
-0.905419
-0.148871
-0.234216
-0.769156
-0.742815
-0.949618
-0.957150
-1.036730
-1.045824
-1.024067
-0.805041
-0.979933
-0.935520
-0.925023
-0.896011
-0.891660
-0.889490
-0.858206
-0.867447
-0.870758
-1.005172
-1.015238
-1.023328
-1.017083
-0.944411
-0.964990
-0.410334
-0.072557
-0.189555
-0.968385
-0.971521
-0.969023
-0.955200
-0.919929
-0.697658
-0.649412
-0.716896
-0.687211
-0.595103
-0.652254
-0.713935
-0.900894
-0.895031
-0.792042
-0.866944
-0.847626
-0.873119
-0.877175
-0.970957
-0.837098
-0.764867
-0.971741
-0.634209
-0.968119
-0.961866
-1.299487
-1.233529
-1.258760
-0.626894
-0.623717
-0.627178
-0.986008
-0.916713
-0.923968
-0.882010
-0.940405
-0.931699
-0.630967
-0.939262
-0.428328
-0.336657
-3.007962
-1.660369
-2.600628
-0.896048
-0.918704
-0.921305
-0.927017
-0.910799
-0.906786
-1.135275
-1.202545
-0.920466
-0.427046
-0.148716
-0.937914
-0.949197
-0.954270
-0.957148
-0.954807
-0.962312
-0.957929
-0.224909
-0.006785
-0.420856
-0.892354
-0.899319
-0.907247
-0.976579
-0.976885
-0.958295
-0.910850
-0.706564
-1.015406
-1.008158
-0.628298
-1.825273
-0.923576
-1.026909
-0.912681
-0.647026
-0.857924
-0.733999
-0.992597
-0.918077
-0.921096
-0.911497
-0.932417
-0.932047
-0.947799
-0.971822
-0.982353
-0.973896
-0.981575
-0.945356
-1.022650
-1.022316
-1.013653
-1.016716
-1.022464
-1.022280
-1.063671
-0.808707
-0.809039
-0.396931
0.486484
-0.877615
-0.881696
-0.886277
-0.990961
-1.005009
-0.888864
-0.896614
-0.889608
-0.882661
-0.616017
-0.598229
-0.625541
-0.624410
-0.269062
-1.923736
-0.927007
-0.936646
-0.702302
-0.957152
-0.960666
-0.696628
-0.968570
-0.965537
-0.977916
-0.922704
-0.965487
-0.955905
-0.962655
-0.857686
-0.831905
-0.929069
-0.883729
-0.854782
-0.906438
-0.951965
0.455258
-0.262459
-0.037830
-0.580585
-0.917368
-0.812827
-0.227525
-0.959871
-0.968220
-0.964057
1.104857
-2.063628
-2.213870
1.928402
-3.841667
-0.969444
-0.828952
-0.831665
-0.625325
-1.005572
-1.003007
-0.913167
-0.346190
-0.616060
-0.958068
-0.960626
-0.940702
-0.243104
-0.932605
-0.885933
-0.877402
-0.851931
-0.859695
-0.858819
-0.878121
-1.062780
-0.847556
-0.966879
-1.036830
-0.964707
-0.906480
-0.898478
-0.894560
-0.945251
-0.944476
-0.892566
-0.910786
-0.523279
-0.440400
-0.872750
-0.902336
-0.844651
-0.905671
-0.841523
-0.978770
-0.987954
-0.979180
-0.990896
-1.498168
-1.708932
-1.195885
-0.179398
-0.947717
-0.629925
-0.576678
-0.577867
-0.990241
-0.972462
-0.953344
-0.903596
-0.828331
-0.832314
-0.619724
-0.969519
-1.944286
-0.845050
-0.935620
-0.968175
-0.477046
-0.833767
-0.715559
-0.969375
-0.884694
-0.793336
-0.852380
-0.866716
-0.682327
-0.972949
-0.982123
-0.979360
-0.965721
-0.676105
-0.607942
-0.698433
-0.803596
-0.634799
-0.845050
-0.857751
-0.688739
-0.662850
-0.834704
-0.577044
-0.998050
-0.989615
-0.776520
-0.821044
-0.853344
-0.842866
-0.850231
-0.832184
-0.973735
-0.574735
-0.937817
-0.867659
-0.944118
-0.598644
-0.524891
-1.048281
-0.790860
0.156699
0.107692
-0.338696
-0.354253
-0.439651
-0.704967
-0.276539
-0.852454
-0.965081
-0.967382
-0.970639
-0.974534
-0.895253
-0.860938
-0.841260
-0.919473
-0.461048
-0.898037
-0.826747
-0.843301
-0.859279
-0.844707
-0.892489
-0.705527
-0.636795
-0.660642
-0.909379
-0.898477
-0.828527
-0.823654
-0.621455
-0.678132
-0.669129
-0.831908
-0.864417
-0.942403
-0.860841
-0.869550
-0.623790
-1.220581
-0.846188
-0.834203
-0.863429
-0.847500
-0.857339
-0.852767
-0.863396
-0.849679
-0.859346
-0.624173
-0.955387
-0.832984
-0.842079
-0.831008
-0.847159
-1.465258
-5.219472
0.163899
-0.858291
-0.469312
-1.405572
-0.267499
-0.321718
-0.723257
-0.818555
-1.043772
-0.667381
-0.659918
-0.815007
-0.818375
-0.820897
-4.997994
-4.394120
-3.391537
-0.745769
-0.531310
-0.818350
-0.817088
-0.849179
-0.831222
-0.843842
-0.970158
-0.942905
-0.637701
-0.620050
-0.864621
-0.390490
-0.332024
-0.748515
-0.104381
-0.498207
-0.912438
-0.644890
0.895907
-1.098866
-0.965795
-0.840214
0.674255
1.057518
0.034795
-0.718766
-0.749388
-0.734155
-0.937319
-1.026333
-1.345631
-0.613625
-0.477537
-0.517946
-0.423291
-0.697517
-0.708141
-0.676998
-0.810721
-0.774417
-0.601507
-0.815970
-0.831384
-0.627716
-0.475609
-0.460768
-0.823375
-0.819993
-0.022193
-0.025788
-0.029042
-0.729624
-0.907486
-0.607086
-0.694649
-0.642470
-0.517723
-0.789590
-0.563488
-0.611932
-0.839629
-0.855012
-0.814968
-0.864709
-0.837533
-0.995011
-0.816379
-0.804609
-0.924387
-0.785273
-0.796494
-0.409392
-0.457511
-0.848784
-0.844880
-0.849865
-0.869058
-0.856697
-0.037135
-0.041017
-0.044222
-0.623776
-0.591698
-0.721072
-0.560537
-0.555606
-0.884380
-0.876124
-0.965114
-0.963457
-0.216228
-0.434979
-0.670326
-0.293009
-0.267035
-0.298146
-0.865370
-0.936892
-0.914236
-0.948995
-0.808090
-0.861677
-0.769977
-0.772183
-0.042024
-0.932662
-0.899578
-0.875493
-0.854995
-0.583585
-0.806548
-0.957218
-0.948312
-0.970793
-0.836859
-0.542791
-0.877230
-0.904215
-0.830417
-0.476418
-1.025195
-1.054244
-0.881377
-0.861470
-0.874887
-0.868900
-0.805945
-0.851468
-0.957267
-0.947652
-1.020323
-1.018233
-0.319105
-0.326976
-0.296297
-0.951977
-0.423093
0.015327
0.409308
-0.471783
-0.795390
-0.904554
-1.062094
-1.027625
-1.002513
-0.814929
-0.764996
-0.893113
-0.896695
-0.849801
-0.819923
-0.822302
-0.731655
-0.573654
-0.575962
-0.331282
-0.900714
-0.884299
-0.873788
-0.121939
-0.032353
-0.015519
-0.824685
-0.816866
-0.827822
-0.831684
-0.865712
-0.869920
-0.924560
-0.942892
-0.943701
-0.948524
-0.833190
-0.830773
-0.843481
-0.843991
-0.860698
-0.949243
-0.751814
-0.735651
-0.890219
-0.841002
-0.926750
-0.839116
-0.808668
-0.722807
-0.813765
-0.829731
-0.828749
-0.815744
-0.835644
-0.874382
-0.956902
-0.217605
-0.771131
-0.766084
-0.787260
-0.273617
-0.635783
-0.993687
-0.624713
-0.810529
-0.486814
-0.601510
-1.010192
-0.869523
-0.939361
-0.769965
-0.835341
-0.806243
-0.861417
-0.956893
-0.882957
-0.797323
-0.820734
-0.291236
-0.533230
-0.855997
-0.351334
0.105733
-0.035756
-0.965086
-0.328816
-0.387453
-0.326236
-0.416228
-0.294707
-1.012670
-0.881704
-0.973329
-0.964929
-0.516330
-1.031345
-0.842565
-0.983376
-0.406188
-0.835271
-0.824398
-0.535282
-0.501417
-0.538663
-0.644908
-0.673204
-0.506138
-0.728050
-0.729089
-0.698835
-1.040165
-1.046606
-0.528777
-0.571573
-0.910805
-0.809523
-0.860026
-0.796795
-0.858814
-0.872337
-1.006310
-0.960386
-0.945329
-0.871232
-0.880609
0.082115
-0.274963
-1.010939
-0.986216
-0.905044
-0.904470
-0.374815
-0.296130
-0.820375
-0.799263
-1.020806
-0.981315
-0.984857
-0.397148
-0.651730
-0.918963
-0.997219
-0.520964
-0.858858
-0.646926
-0.487128
0.680928
-1.306836
-4.401420
-1.007772
-0.849712
-0.805157
-0.795873
-0.803800
-0.077515
-0.407027
-0.810330
-0.822624
-0.841587
-0.826554
-0.126630
-0.877930
-0.832328
-0.423957
-0.182589
-0.901190
-0.854731
-0.809591
-0.858284
-0.934590
-0.852244
-0.975127
-0.969742
-1.538907
-0.525998
-0.816016
-0.031240
0.158240
0.237313
-0.792803
-0.937815
-0.147201
-0.565669
-0.609168
-0.522701
-0.965674
-0.698578
-1.028869
-2.603487
-3.523258
-1.058032
-2.518176
-0.837183
-0.449728
-0.673561
-0.523618
-0.035869
-0.039912
-0.033902
-0.623573
-0.043138
0.531974
-0.802479
-0.878945
-0.847160
-0.811958
0.117144
-0.695413
-0.625158
-0.703208
-0.788643
-0.602884
-0.280775
-0.963425
-0.536117
-0.017772
-0.564611
-0.388704
-0.769236
-0.752318
-0.837781
-1.063064
-0.299912
-0.988685
-0.837927
-0.838705
-0.844122
-0.857686
-0.878310
-0.787373
-2.203030
-0.994711
-0.379526
-0.443878
-0.922232
-0.765026
-0.565623
-1.010785
-0.820475
-0.840222
-1.035540
-0.817328
-0.957438
-0.841069
-0.846405
-0.849661
-0.387458
-0.798037
-0.058621
-0.024358
-0.049466
-0.128453
-0.108064
-0.128156
0.860717
-1.003729
-0.178030
-0.065884
-0.072839
-0.075458
-0.307958
-0.308640
-0.304427
-0.075829
-0.068512
0.000176
-0.001037
-0.001753
0.013162
0.017830
0.016801
-0.029944
-0.055080
-0.083206
-0.103942
-0.111264
-0.097057
-0.119520
-0.047237
-0.090118
-0.052218
-0.181245
-0.044187
-0.071516
-0.014880
-0.019581
-0.021227
-0.040060
-0.253915
-0.142365
-0.090858
-0.250001
-0.035303
-0.014357
-0.028498
-0.041615
-0.032216
-0.003895
-0.004161
-0.013552
-0.010213
-0.006227
-0.018610
-0.061009
-0.057624
-0.200956
-0.219847
-0.203304
-0.247959
-0.039906
-0.064591
-0.043843