# vtk DataFile Version 2.0
Test
ASCII
DATASET POLYDATA
POINTS 3011 float
0.000000 0.000000 0.000000
2.000000 0.000000 0.000000
2.000000 4.000000 0.000000
0.000000 4.000000 0.000000
0.000000 0.500000 0.000000
1.500000 2.000000 0.000000
2.000000 2.500000 0.000000
0.285714 0.000000 0.000000
0.571429 0.000000 0.000000
0.857143 0.000000 0.000000
1.142857 0.000000 0.000000
1.428571 0.000000 0.000000
1.714286 0.000000 0.000000
2.000000 0.276366 0.000000
2.000000 0.523709 0.000000
2.000000 0.745076 0.000000
2.000000 0.943195 0.000000
2.000000 1.120508 0.000000
2.000000 1.279199 0.000000
2.000000 1.421225 0.000000
2.000000 1.548336 0.000000
2.000000 1.662097 0.000000
2.000000 1.763911 0.000000
2.000000 1.855033 0.000000
2.000000 1.936585 0.000000
2.000000 2.009573 0.000000
2.000000 2.074896 0.000000
2.000000 2.133358 0.000000
2.000000 2.185681 0.000000
2.000000 2.232509 0.000000
2.000000 2.274419 0.000000
2.000000 2.311927 0.000000
2.000000 2.345497 0.000000
2.000000 2.375541 0.000000
2.000000 2.402430 0.000000
2.000000 2.426495 0.000000
2.000000 2.448033 0.000000
2.000000 2.467309 0.000000
2.000000 2.484560 0.000000
2.000000 2.516256 0.000000
2.000000 2.535859 0.000000
2.000000 2.559499 0.000000
2.000000 2.588006 0.000000
2.000000 2.622383 0.000000
2.000000 2.663839 0.000000
2.000000 2.713831 0.000000
2.000000 2.774116 0.000000
2.000000 2.846815 0.000000
2.000000 2.934483 0.000000
2.000000 3.040202 0.000000
2.000000 3.167691 0.000000
2.000000 3.321430 0.000000
2.000000 3.506825 0.000000
2.000000 3.730395 0.000000
1.714286 4.000000 0.000000
1.428571 4.000000 0.000000
1.142857 4.000000 0.000000
0.857143 4.000000 0.000000
0.571429 4.000000 0.000000
0.285714 4.000000 0.000000
0.000000 3.713462 0.000000
0.000000 3.449209 0.000000
0.000000 3.205508 0.000000
0.000000 2.980761 0.000000
0.000000 2.773493 0.000000
0.000000 2.582346 0.000000
0.000000 2.406065 0.000000
0.000000 2.243495 0.000000
0.000000 2.093568 0.000000
0.000000 1.955302 0.000000
0.000000 1.827789 0.000000
0.000000 1.710194 0.000000
0.000000 1.601745 0.000000
0.000000 1.501730 0.000000
0.000000 1.409494 0.000000
0.000000 1.324431 0.000000
0.000000 1.245984 0.000000
0.000000 1.173639 0.000000
0.000000 1.106920 0.000000
0.000000 1.045390 0.000000
0.000000 0.988645 0.000000
0.000000 0.936314 0.000000
0.000000 0.888053 0.000000
0.000000 0.843545 0.000000
0.000000 0.802499 0.000000
0.000000 0.764646 0.000000
0.000000 0.729736 0.000000
0.000000 0.697541 0.000000
0.000000 0.667851 0.000000
0.000000 0.640469 0.000000
0.000000 0.615217 0.000000
0.000000 0.591929 0.000000
0.000000 0.570453 0.000000
0.000000 0.550646 0.000000
0.000000 0.532380 0.000000
0.000000 0.515535 0.000000
0.000000 0.483768 0.000000
0.000000 0.461535 0.000000
0.000000 0.431083 0.000000
0.000000 0.389372 0.000000
0.000000 0.332241 0.000000
0.000000 0.253989 0.000000
0.000000 0.146807 0.000000
0.010563 0.510563 0.000000
0.021127 0.521127 0.000000
0.031690 0.531690 0.000000
0.042254 0.542254 0.000000
0.052817 0.552817 0.000000
0.063380 0.563380 0.000000
0.073944 0.573944 0.000000
0.084507 0.584507 0.000000
0.095070 0.595070 0.000000
0.105634 0.605634 0.000000
0.116197 0.616197 0.000000
0.126761 0.626761 0.000000
0.137324 0.637324 0.000000
0.147887 0.647887 0.000000
0.158451 0.658451 0.000000
0.169014 0.669014 0.000000
0.179577 0.679577 0.000000
0.190141 0.690141 0.000000
0.200704 0.700704 0.000000
0.211268 0.711268 0.000000
0.221831 0.721831 0.000000
0.232394 0.732394 0.000000
0.242958 0.742958 0.000000
0.253521 0.753521 0.000000
0.264085 0.764085 0.000000
0.274648 0.774648 0.000000
0.285211 0.785211 0.000000
0.295775 0.795775 0.000000
0.306338 0.806338 0.000000
0.316901 0.816901 0.000000
0.327465 0.827465 0.000000
0.338028 0.838028 0.000000
0.348592 0.848592 0.000000
0.359155 0.859155 0.000000
0.369718 0.869718 0.000000
0.380282 0.880282 0.000000
0.390845 0.890845 0.000000
0.401408 0.901408 0.000000
0.411972 0.911972 0.000000
0.422535 0.922535 0.000000
0.433099 0.933099 0.000000
0.443662 0.943662 0.000000
0.454225 0.954225 0.000000
0.464789 0.964789 0.000000
0.475352 0.975352 0.000000
0.485915 0.985915 0.000000
0.496479 0.996479 0.000000
0.507042 1.007042 0.000000
0.517606 1.017606 0.000000
0.528169 1.028169 0.000000
0.538732 1.038732 0.000000
0.549296 1.049296 0.000000
0.559859 1.059859 0.000000
0.570423 1.070423 0.000000
0.580986 1.080986 0.000000
0.591549 1.091549 0.000000
0.602113 1.102113 0.000000
0.612676 1.112676 0.000000
0.623239 1.123239 0.000000
0.633803 1.133803 0.000000
0.644366 1.144366 0.000000
0.654930 1.154930 0.000000
0.665493 1.165493 0.000000
0.676056 1.176056 0.000000
0.686620 1.186620 0.000000
0.697183 1.197183 0.000000
0.707746 1.207746 0.000000
0.718310 1.218310 0.000000
0.728873 1.228873 0.000000
0.739437 1.239437 0.000000
0.750000 1.250000 0.000000
0.760563 1.260563 0.000000
0.771127 1.271127 0.000000
0.781690 1.281690 0.000000
0.792254 1.292254 0.000000
0.802817 1.302817 0.000000
0.813380 1.313380 0.000000
0.823944 1.323944 0.000000
0.834507 1.334507 0.000000
0.845070 1.345070 0.000000
0.855634 1.355634 0.000000
0.866197 1.366197 0.000000
0.876761 1.376761 0.000000
0.887324 1.387324 0.000000
0.897887 1.397887 0.000000
0.908451 1.408451 0.000000
0.919014 1.419014 0.000000
0.929577 1.429577 0.000000
0.940141 1.440141 0.000000
0.950704 1.450704 0.000000
0.961268 1.461268 0.000000
0.971831 1.471831 0.000000
0.982394 1.482394 0.000000
0.992958 1.492958 0.000000
1.003521 1.503521 0.000000
1.014085 1.514085 0.000000
1.024648 1.524648 0.000000
1.035211 1.535211 0.000000
1.045775 1.545775 0.000000
1.056338 1.556338 0.000000
1.066901 1.566901 0.000000
1.077465 1.577465 0.000000
1.088028 1.588028 0.000000
1.098592 1.598592 0.000000
1.109155 1.609155 0.000000
1.119718 1.619718 0.000000
1.130282 1.630282 0.000000
1.140845 1.640845 0.000000
1.151408 1.651408 0.000000
1.161972 1.661972 0.000000
1.172535 1.672535 0.000000
1.183099 1.683099 0.000000
1.193662 1.693662 0.000000
1.204225 1.704225 0.000000
1.214789 1.714789 0.000000
1.225352 1.725352 0.000000
1.235915 1.735915 0.000000
1.246479 1.746479 0.000000
1.257042 1.757042 0.000000
1.267606 1.767606 0.000000
1.278169 1.778169 0.000000
1.288732 1.788732 0.000000
1.299296 1.799296 0.000000
1.309859 1.809859 0.000000
1.320423 1.820423 0.000000
1.330986 1.830986 0.000000
1.341549 1.841549 0.000000
1.352113 1.852113 0.000000
1.362676 1.862676 0.000000
1.373239 1.873239 0.000000
1.383803 1.883803 0.000000
1.394366 1.894366 0.000000
1.404930 1.904930 0.000000
1.415493 1.915493 0.000000
1.426056 1.926056 0.000000
1.436620 1.936620 0.000000
1.447183 1.947183 0.000000
1.457746 1.957746 0.000000
1.468310 1.968310 0.000000
1.478873 1.978873 0.000000
1.489437 1.989437 0.000000
1.510417 2.010417 0.000000
1.520833 2.020833 0.000000
1.531250 2.031250 0.000000
1.541667 2.041667 0.000000
1.552083 2.052083 0.000000
1.562500 2.062500 0.000000
1.572917 2.072917 0.000000
1.583333 2.083333 0.000000
1.593750 2.093750 0.000000
1.604167 2.104167 0.000000
1.614583 2.114583 0.000000
1.625000 2.125000 0.000000
1.635417 2.135417 0.000000
1.645833 2.145833 0.000000
1.656250 2.156250 0.000000
1.666667 2.166667 0.000000
1.677083 2.177083 0.000000
1.687500 2.187500 0.000000
1.697917 2.197917 0.000000
1.708333 2.208333 0.000000
1.718750 2.218750 0.000000
1.729167 2.229167 0.000000
1.739583 2.239583 0.000000
1.750000 2.250000 0.000000
1.760417 2.260417 0.000000
1.770833 2.270833 0.000000
1.781250 2.281250 0.000000
1.791667 2.291667 0.000000
1.802083 2.302083 0.000000
1.812500 2.312500 0.000000
1.822917 2.322917 0.000000
1.833333 2.333333 0.000000
1.843750 2.343750 0.000000
1.854167 2.354167 0.000000
1.864583 2.364583 0.000000
1.875000 2.375000 0.000000
1.885417 2.385417 0.000000
1.895833 2.395833 0.000000
1.906250 2.406250 0.000000
1.916667 2.416667 0.000000
1.927083 2.427083 0.000000
1.937500 2.437500 0.000000
1.947917 2.447917 0.000000
1.958333 2.458333 0.000000
1.968750 2.468750 0.000000
1.979167 2.479167 0.000000
1.989583 2.489583 0.000000
0.206561 0.791563 0.000000
0.205359 0.816165 0.000000
0.186354 0.798211 0.000000
0.221961 0.800924 0.000000
0.280649 1.360489 0.000000
0.304015 1.400469 0.000000
0.229142 1.396096 0.000000
0.275922 1.451476 0.000000
1.869084 2.391788 0.000000
1.857928 2.378421 0.000000
1.238669 2.061899 0.000000
1.278787 2.082276 0.000000
1.238298 2.096047 0.000000
1.277579 2.032995 0.000000
0.402536 1.205823 0.000000
0.415290 1.176040 0.000000
0.428330 1.201952 0.000000
0.387294 1.172617 0.000000
0.146930 1.050586 0.000000
0.109488 1.087198 0.000000
0.102742 1.042403 0.000000
0.157178 1.091184 0.000000
0.588967 1.178581 0.000000
0.593116 1.153718 0.000000
0.608054 1.166752 0.000000
0.612180 1.145944 0.000000
0.860304 1.543784 0.000000
0.868821 1.521840 0.000000
0.878420 1.536650 0.000000
0.845380 1.517623 0.000000
1.129525 1.764330 0.000000
1.142005 1.751560 0.000000
1.145757 1.773681 0.000000
1.159368 1.759106 0.000000
1.968150 2.518865 0.000000
1.986105 2.509269 0.000000
1.986696 2.531115 0.000000
0.668964 1.191005 0.000000
0.683291 1.201259 0.000000
0.557625 1.074830 0.000000
0.569760 1.084377 0.000000
0.557769 1.089278 0.000000
0.707567 1.266174 0.000000
0.719026 1.281845 0.000000
0.700768 1.282275 0.000000
0.722329 1.266956 0.000000
0.468225 2.149688 0.000000
0.419106 2.064198 0.000000
0.523878 2.082648 0.000000
0.838546 1.421191 0.000000
0.823708 1.410355 0.000000
0.840477 1.404206 0.000000
0.818500 1.425973 0.000000
0.953187 1.488222 0.000000
0.959780 1.473222 0.000000
0.967054 1.485637 0.000000
1.047418 1.769126 0.000000
1.080240 1.782403 0.000000
1.047768 1.802712 0.000000
0.971392 1.693320 0.000000
0.949208 1.720793 0.000000
0.940644 1.684781 0.000000
0.381391 2.160909 0.000000
0.944091 1.477800 0.000000
0.530075 1.477351 0.000000
0.521303 1.516669 0.000000
0.474240 1.491166 0.000000
0.489489 1.546185 0.000000
1.537370 2.239326 0.000000
1.555275 2.267640 0.000000
1.532966 2.278201 0.000000
0.962010 1.661716 0.000000
0.986804 1.643200 0.000000
0.986259 1.672729 0.000000
1.049149 1.737940 0.000000
1.075111 1.737123 0.000000
[...]
POINT_DATA 3011
SCALARS UX float 1
LOOKUP_TABLE default
-0.000000
0.000000
-0.067400
-0.106433
-0.022035
-0.045883
0.075261
-0.000000
-0.000000
-0.000000
-0.000000
0.000000
0.000000
0.009000
0.012553
0.014565
0.016134
0.017578
0.019193
0.020949
0.022642
0.024029
0.025067
0.025672
0.025970
0.026284
0.026871
0.028007
0.029618
0.031511
0.033345
0.035109
0.036763
0.037923
0.038923
0.040589
0.043755
0.049909
0.070305
0.010153
-0.057443
-0.070878
-0.072276
-0.072415
-0.072063
-0.071678
-0.071061
-0.070433
-0.069909
-0.069259
-0.068676
-0.068196
-0.067844
-0.067544
-0.072337
-0.077501
-0.082940
-0.088620
-0.094439
-0.100409
-0.106797
-0.107461
-0.108565
-0.109875
-0.111368
-0.112951
-0.114551
-0.116083
-0.117348
-0.118195
-0.118376
-0.117987
-0.116897
-0.115251
-0.113181
-0.110777
-0.108161
-0.105259
-0.102204
-0.099187
-0.096353
-0.093837
-0.091861
-0.090752
-0.090988
-0.092053
-0.092093
-0.088583
-0.084749
-0.082072
-0.083057
-0.093154
-0.088814
-0.051497
0.000587
-0.025233
-0.020025
-0.019124
-0.018297
-0.016701
-0.014746
-0.012025
-0.007958
-0.024349
0.062396
0.004488
-0.054150
-0.050293
-0.029085
-0.028324
-0.023590
-0.023072
-0.023282
-0.024034
-0.022049
-0.019640
-0.018747
-0.018618
-0.079985
-0.061915
-0.059607
-0.047359
-0.039582
-0.044084
-0.041680
-0.035787
-0.030194
-0.044407
-0.046149
-0.040696
-0.032592
-0.036861
-0.031059
-0.030207
-0.023915
-0.023297
-0.032848
-0.042649
-0.038519
-0.035998
-0.037757
-0.047444
-0.058553
-0.058033
-0.062765
-0.054039
-0.046697
-0.015616
-0.042380
-0.024486
-0.033063
-0.047122
-0.150548
-0.100555
-0.077654
-0.071752
-0.067085
-0.059432
-0.048796
-0.056239
-0.057266
-0.055360
-0.051817
-0.026355
-0.050199
-0.049874
-0.050612
-0.055961
-0.054213
-0.050615
-0.048781
-0.054393
-0.055797
-0.054862
-0.059836
-0.055502
-0.049129
-0.068090
-0.037246
-0.052821
-0.047982
-0.035881
-0.025363
-0.063853
-0.064953
-0.062237
-0.052102
-0.044264
-0.048851
-0.049543
-0.044743
-0.037335
-0.059104
-0.034996
-0.033511
-0.032253
-0.032363
-0.039776
-0.040237
-0.035956
-0.025592
-0.041364
-0.044220
-0.038549
-0.106768
-0.079295
-0.050224
-0.023935
-0.027824
-0.035456
-0.037001
-0.045937
-0.032986
-0.049977
-0.042334
-0.028616
-0.017295
-0.046282
-0.053855
-0.057487
-0.061519
-0.058664
-0.093989
-0.051082
-0.042340
-0.088504
-0.089130
-0.086510
-0.084149
-0.082629
-0.080441
-0.086368
-0.091689
-0.075349
-0.068957
-0.064395
-0.063257
-0.065202
-0.061528
-0.058115
-0.033136
0.071169
-0.037095
-0.038474
-0.026766
-0.056869
-0.067868
0.024041
-0.029298
-0.031372
-0.040543
-0.039177
-0.031191
-0.033864
-0.015788
-0.043109
-0.062593
-0.052937
-0.043359
-0.030924
-0.084192
-0.048351
-0.035948
-0.024724
-0.024897
-0.024827
-0.022449
-0.022230
-0.016338
-0.008366
-0.003527
-0.002846
0.000068
0.008597
-0.001934
-0.003444
-0.003400
-0.001617
-0.002125
0.018918
0.027720
0.033464
0.033056
0.036029
0.039354
0.034190
0.035020
0.037621
0.040742
0.047608
0.061329
-0.075405
-0.081238
-0.078842
-0.076605
-0.107548
-0.108191
-0.109500
-0.109948
-0.006224
-0.012839
-0.092696
-0.091839
-0.092344
-0.092453
-0.098640
-0.096847
-0.097425
-0.098034
-0.097779
-0.100071
-0.097923
-0.099666
-0.086483
-0.086893
-0.080102
-0.073708
-0.096904
-0.095526
-0.095347
-0.096759
-0.091808
-0.090124
-0.092021
-0.090006
-0.059439
0.016550
-0.063954
-0.059473
-0.059474
-0.078461
-0.070098
-0.081871
-0.087909
-0.086559
-0.089993
-0.084523
-0.107215
-0.109037
-0.106483
-0.081706
-0.084118
-0.077991
-0.088782
-0.058147
-0.025390
-0.032763
-0.093353
-0.093533
-0.094495
-0.093730
-0.095045
-0.094943
-0.109063
-0.069317
-0.103762
-0.104939
-0.105924
-0.106464
-0.086162
-0.085208
-0.085586
-0.093696
-0.092524
-0.092926
-0.091937
-0.091211
-0.092412
-0.085078
-0.090276
-0.089381
-0.065842
-0.066870
-0.077574
-0.088920
-0.088540
-0.088312
-0.087628
-0.087725
-0.088072
-0.100735
-0.100238
-0.099060
-0.108004
-0.106471
-0.108001
-0.098454
-0.106992
-0.101183
-0.100747
-0.102322
-0.099732
-0.094248
-0.095665
-0.094821
-0.095614
-0.110492
-0.109727
-0.108765
-0.087574
-0.086904
-0.087568
-0.111788
-0.104445
-0.105341
-0.103250
-0.098273
-0.096203
-0.097298
-0.095269
-0.104409
-0.115400
-0.114533
-0.116641
-0.073798
-0.065721
-0.067129
-0.096639
-0.096496
-0.095654
-0.099496
-0.097341
-0.095419
-0.101100
-0.101483
-0.102042
-0.100569
-0.086146
-0.087472
-0.087127
-0.098398
-0.098727
-0.099560
-0.086282
-0.067502
-0.073828
-0.056126
-0.096306
-0.094615
-0.094721
-0.103752
-0.106544
-0.092262
-0.100014
-0.099834
-0.098494
-0.101108
-0.097978
-0.095380
-0.094954
-0.095789
-0.097794
-0.094943
-0.070847
-0.066187
-0.065468
-0.076302
-0.079952
-0.059659
-0.057584
-0.077143
-0.094168
-0.094452
-0.094477
-0.094190
-0.094571
-0.094875
-0.070057
-0.083802
-0.075340
-0.093991
-0.092866
-0.078249
-0.070686
-0.091442
-0.094212
-0.090379
-0.096435
-0.095174
-0.089186
-0.090127
-0.090721
-0.080387
-0.084232
-0.075283
-0.086868
-0.038351
-0.083695
-0.092750
-0.090825
-0.087022
-0.045802
-0.088638
-0.079505
-0.079528
-0.080432
-0.091830
-0.092226
-0.086321
-0.088957
-0.089768
-0.088627
-0.089827
-0.032003
-0.021275
-0.087023
-0.093638
-0.094042
-0.094139
-0.072355
-0.064737
-0.062304
-0.079105
-0.076909
-0.080377
-0.077886
-0.049243
-0.062465
-0.082401
-0.073923
-0.087547
-0.090482
-0.090197
-0.092974
-0.078265
-0.078774
-0.078603
-0.077119
-0.083149
-0.084458
-0.084144
-0.083548
-0.084790
-0.083842
-0.084596
-0.045494
-0.040742
-0.092788
-0.086274
-0.090686
-0.089104
-0.079259
-0.077068
-0.082909
-0.080936
-0.090991
-0.091774
-0.091415
-0.093703
-0.093270
-0.094499
-0.084357
-0.080452
-0.084413
-0.051049
-0.052320
-0.084304
-0.087383
-0.089009
-0.098066
-0.096373
-0.096234
-0.093716
-0.086157
-0.085517
-0.081989
-0.090025
-0.093781
-0.090268
-0.093756
-0.092079
-0.091281
-0.092551
-0.091539
-0.097007
-0.077328
-0.078219
-0.100142
-0.098946
-0.099123
-0.073724
-0.081028
-0.082560
-0.082213
-0.083558
-0.093669
-0.092656
-0.093925
-0.095564
-0.093725
-0.027599
-0.030424
-0.064624
-0.079643
-0.084012
-0.081719
-0.085927
-0.083932
-0.091403
-0.090075
-0.089573
-0.067385
0.027706
-0.051491
-0.075649
-0.081672
-0.084220
-0.086437
-0.087511
-0.089025
-0.089581
-0.089454
-0.084212
-0.089904
-0.087874
-0.090520
-0.086677
-0.085976
-0.088646
-0.088141
-0.089787
-0.087307
-0.093004
-0.094024
-0.093326
-0.094197
-0.096373
-0.098627
-0.097046
-0.095732
-0.068304
-0.061175
-0.024531
-0.096112
-0.094711
-0.099989
-0.083399
-0.093259
-0.095483
-0.094983
-0.096974
-0.094720
-0.094310
-0.093797
-0.093510
-0.104077
-0.102759
-0.102311
-0.101496
-0.078596
-0.063099
-0.076903
-0.067748
-0.084235
-0.085923
-0.114779
-0.116313
-0.115497
-0.090132
-0.089602
-0.087435
-0.088774
-0.093347
-0.094307
-0.090857
-0.092142
-0.091141
-0.091578
-0.092031
-0.091141
-0.092840
-0.093126
-0.095127
-0.095561
-0.097573
-0.097731
-0.099028
-0.098966
-0.081809
-0.084962
-0.083632
-0.071617
-0.099591
-0.097922
-0.090932
-0.089807
-0.090095
-0.091261
-0.092010
-0.076776
-0.080608
-0.056902
-0.047985
-0.031404
-0.083185
-0.077995
-0.084459
-0.089748
-0.086796
-0.100662
-0.100129
-0.100336
-0.094622
-0.097841
-0.097769
-0.094667
-0.102385
-0.101497
-0.073745
-0.074649
-0.073713
-0.074482
-0.076043
-0.076376
-0.093676
-0.095794
-0.094238
-0.113756
-0.111868
-0.112902
-0.114950
-0.074895
-0.073814
-0.073177
-0.074007
-0.092402
-0.093326
-0.092067
-0.089412
-0.093790
-0.089653
-0.053576
-0.072738
-0.092960
-0.126447
-0.115494
-0.089247
-0.057409
-0.064401
-0.071994
-0.058215
-0.092332
-0.091096
-0.088730
-0.087717
-0.088229
-0.089785
-0.086713
-0.082916
-0.084616
-0.085810
-0.088312
-0.099662
-0.100834
-0.098077
-0.085376
-0.088516
-0.086724
-0.086113
-0.072956
-0.070450
-0.089823
-0.091227
-0.091691
-0.086579
-0.090828
-0.089790
-0.077685
-0.073517
-0.067592
-0.074918
-0.078085
-0.079021
-0.116828
-0.046664
-0.057660
-0.017146
0.021022
-0.025462
0.032347
-0.012836
-0.093052
-0.093102
-0.098505
-0.095991
-0.096581
-0.071759
-0.087775
-0.087989
-0.086935
-0.095121
-0.100757
-0.101685
-0.102595
-0.099767
-0.100100
-0.097278
-0.095191
-0.109364
-0.111679
-0.090257
-0.089278
-0.089830
-0.088631
-0.092211
-0.073774
-0.093908
-0.076444
-0.077251
-0.078610
-0.077669
-0.072402
-0.072397
-0.079494
-0.082633
-0.089195
0.033690
-0.075118
-0.077272
-0.076689
-0.077025
-0.087515
-0.088312
-0.086591
-0.097681
-0.096534
-0.095692
-0.094770
-0.093865
-0.083710
-0.084121
-0.086436
-0.086063
-0.090039
-0.090890
-0.085093
-0.077325
-0.083101
-0.089930
-0.102821
-0.103754
-0.104490
-0.104644
-0.105409
-0.108269
-0.106548
-0.107715
-0.109168
-0.082929
-0.083988
-0.077507
-0.076927
-0.099913
-0.100709
-0.101992
-0.104332
-0.103931
-0.068781
-0.084382
-0.083294
-0.099782
-0.101152
-0.096781
-0.098310
-0.098783
-0.097529
-0.092033
-0.092976
-0.093488
-0.092895
-0.079027
-0.077511
-0.049142
-0.072027
-0.063548
-0.056361
-0.018692
-0.057868
-0.071449
-0.070785
-0.099462
-0.099556
-0.098274
-0.098244
-0.097370
-0.097285
-0.077852
-0.078019
-0.073202
-0.073834
-0.097332
-0.096737
-0.075021
-0.074555
-0.062759
-0.096085
-0.099367
-0.068364
-0.048097
-0.049768
-0.067514
-0.079240
-0.090311
-0.013564
-0.089682
-0.090247
-0.095169
-0.095555
0.025914
0.006536
-0.070914
-0.091752
-0.110763
-0.112634
-0.113896
-0.095530
-0.095854
-0.096159
-0.095742
-0.074728
-0.092787
-0.093741
-0.092939
-0.107472
-0.091056
-0.091734
-0.091975
-0.091188
-0.004789
-0.090737
-0.092192
-0.091390
-0.073418
-0.088609
-0.107082
-0.110050
-0.107127
-0.106096
-0.110428
-0.088554
-0.072767
-0.089549
-0.088180
-0.090788
-0.087032
-0.098079
-0.099664
-0.095251
-0.063331
-0.099195
-0.024665
-0.095943
-0.098739
-0.097528
-0.083399
-0.086648
-0.078868
-0.088714
-0.087467
-0.095220
-0.091621
-0.091824
-0.094922
-0.083437
-0.072594
-0.088663
-0.081576
-0.103071
-0.102489
-0.101106
-0.102254
-0.103704
-0.102330
-0.064132
-0.063406
-0.074668
-0.076075
-0.103655
-0.102577
-0.102609
-0.101382
-0.101406
-0.090810
-0.091448
-0.091826
-0.094855
-0.096796
-0.095454
-0.087925
-0.090956
-0.090635
-0.092337
-0.091477
-0.093181
-0.107002
-0.104670
-0.102820
-0.101359
-0.037189
-0.059395
-0.062818
-0.095445
0.044004
-0.098877
-0.100571
-0.100394
-0.098257
-0.107473
-0.109204
-0.106082
-0.100137
-0.099461
-0.094309
-0.094583
-0.092392
-0.094600
-0.052827
-0.059543
-0.090578
-0.093436
-0.099742
-0.073208
-0.110039
-0.112334
-0.111506
-0.092051
-0.113786
-0.088329
-0.102520
-0.089827
-0.089403
-0.057801
-0.089587
-0.079565
-0.085237
-0.080982
-0.042425
-0.086539
-0.001896
-0.070629
-0.063931
-0.081714
-0.019895
-0.079311
-0.079942
-0.078998
-0.008167
-0.069849
-0.010330
-0.024467
-0.076586
-0.075655
-0.078662
-0.023091
-0.072940
-0.073339
-0.075759
-0.076972
-0.094754
-0.096957
-0.099780
-0.097931
-0.107175
-0.104440
-0.082622
-0.101563
-0.091687
-0.095291
-0.094656
-0.092724
-0.093860
-0.098054
-0.096477
-0.097325
-0.115518
-0.113225
-0.111864
-0.111511
-0.110038
-0.108469
-0.101024
-0.101422
-0.102305
-0.072402
-0.070709
-0.070461
-0.083845
-0.103340
-0.101422
-0.101120
-0.107142
-0.107392
-0.076021
-0.086139
-0.105126
-0.088761
-0.111491
-0.113657
-0.102247
-0.101947
-0.092884
-0.100730
-0.096013
-0.095306
-0.091812
-0.093981
-0.066504
-0.074725
-0.091533
-0.103832
-0.102057
-0.092241
-0.105993
-0.105926
-0.070068
-0.090378
-0.080491
-0.092588
-0.093043
-0.092991
-0.098440
-0.096074
-0.091436
-0.098231
-0.104264
-0.105269
-0.104607
-0.072678
-0.099151
-0.099413
-0.098705
-0.065626
-0.083488
-0.103340
-0.088387
-0.084819
-0.083166
-0.113194
-0.114837
-0.087327
-0.087627
-0.079022
-0.073440
-0.081560
-0.097064
-0.086236
-0.079030
-0.100489
-0.100278
-0.075265
-0.078605
-0.093357
-0.097398
-0.098544
-0.083788
-0.086875
-0.096145
-0.095657
-0.079994
-0.076583
-0.107455
-0.109488
-0.086499
-0.079605
-0.083908
-0.082293
-0.081977
-0.095941
-0.095222
-0.109440
-0.109755
-0.108587
-0.101609
-0.101178
-0.100255
-0.105298
-0.087767
-0.113629
-0.102549
-0.103763
-0.085294
-0.087340
-0.087808
-0.075379
-0.104860
-0.104058
-0.105366
-0.043309
-0.040026
-0.091968
-0.088316
-0.107865
-0.105756
-0.087266
-0.090163
-0.079473
-0.054271
-0.115864
-0.107042
-0.106191
-0.099174
-0.106933
-0.106239
-0.097308
-0.098500
-0.099535
-0.070385
-0.097087
-0.098952
-0.100456
-0.098051
-0.101033
-0.144383
0.017507
-0.064829
-0.092866
-0.092283
-0.091106
-0.096494
-0.104885
-0.089142
-0.087671
-0.091359
-0.089425
-0.091128
-0.090516
-0.091730
-0.105602
-0.104249
-0.027657
-0.097310
-0.097282
-0.096415
-0.098527
-0.093147
0.015427
0.036988
-0.093884
-0.091926
-0.094775
-0.093247
-0.057051
-0.036444
-0.031181
-0.084541
-0.078934
-0.082797
-0.105225
-0.082180
-0.083111
-0.099775
-0.096528
-0.096409
-0.082899
-0.097149
-0.041167
0.051563
-0.038308
-0.064021
-0.044582
-0.098871
-0.096072
-0.095766
-0.096762
-0.094719
-0.054863
-0.036530
-0.054799
-0.081317
-0.053291
-0.066483
-0.076715
-0.076484
-0.077495
-0.077911
-0.078635
-0.079612
-0.076610
-0.077342
-0.076033
-0.080090
-0.106974
-0.108507
-0.110074
-0.097908
-0.099121
-0.096962
-0.111403
-0.084844
-0.103943
-0.101611
-0.047743
-0.074502
-0.094890
-0.102034
-0.097646
-0.087396
-0.101842
0.015579
-0.099695
-0.112963
-0.114084
-0.111307
-0.101045
-0.102682
-0.096616
-0.100023
-0.100392
-0.101483
-0.102298
-0.105654
-0.091537
-0.093479
-0.091567
-0.094175
-0.089012
-0.104788
-0.104662
-0.067846
-0.071164
-0.038536
-0.090185
-0.101051
-0.102095
-0.103202
-0.074088
-0.074888
-0.096509
-0.097856
-0.097794
-0.096676
-0.062725
-0.054753
-0.048879
-0.049946
-0.038965
-0.024323
-0.097691
-0.095962
-0.067938
-0.083476
-0.082304
-0.083169
-0.105443
-0.103895
-0.104283
-0.013750
-0.075852
-0.075205
-0.074392
-0.098227
-0.096684
-0.071918
-0.089815
-0.093671
-0.090404
-0.084518
-0.055005
-0.062437
-0.049375
-0.071631
-0.111148
-0.095243
-0.040309
-0.085025
-0.085186
-0.086474
-0.085834
-0.085269
-0.086219
-0.087137
-0.085955
-0.092548
-0.073273
-0.077164
-0.045481
-0.082950
-0.085504
-0.106896
-0.171330
-0.083033
-0.079578
-0.080531
-0.103855
-0.087201
-0.105360
-0.105662
-0.103177
-0.094701
-0.096455
-0.096641
0.001284
-0.048254
-0.093785
-0.102288
-0.100535
-0.087861
-0.082983
-0.082174
-0.081284
-0.086937
-0.086198
-0.083689
-0.110397
-0.058808
-0.055089
-0.096144
-0.099002
-0.093005
-0.094300
-0.091997
-0.082804
-0.084797
-0.085301
-0.082534
-0.082363
-0.088111
-0.084103
-0.083158
-0.087209
-0.058055
-0.038526
-0.039669
-0.101341
-0.088724
-0.088535
-0.030397
-0.079140
-0.074857
-0.074722
-0.097390
0.055261
-0.076575
-0.097569
-0.089305
-0.054850
-0.080573
-0.089358
-0.088339
-0.098087
-0.074874
-0.094838
-0.098391
-0.086624
-0.073362
-0.072340
-0.075521
-0.071298
-0.090380
-0.085093
-0.089293
-0.073890
-0.052340
-0.068475
-0.096836
-0.084699
-0.087960
-0.047698
-0.081051
-0.102141
-0.103394
-0.094082
-0.093923
-0.095613
-0.094525
-0.094277
-0.092451
-0.102824
-0.075363
-0.095186
-0.069104
-0.071195
-0.059833
-0.062082
-0.098915
-0.092246
-0.072490
-0.030943
-0.053553
-0.059863
-0.069970
-0.088532
-0.084352
-0.090366
-0.081246
-0.080279
-0.081782
-0.080317
-0.086008
-0.082584
-0.084853
-0.081823
-0.071026
-0.108815
-0.087283
-0.088492
-0.089272
-0.093198
-0.104681
-0.093724
-0.093656
-0.093992
-0.095121
-0.093642
-0.069867
-0.056119
-0.094139
-0.093943
-0.093708
-0.090068
-0.092626
-0.095422
-0.090791
-0.091557
-0.076227
-0.083089
-0.079701
-0.078114
-0.092744
-0.088962
-0.091621
-0.079686
-0.080691
-0.083784
-0.085761
-0.063264
-0.088707
-0.082260
-0.092421
-0.090386
-0.091366
-0.090307
-0.088895
-0.090500
-0.096468
-0.068388
-0.088623
0.268728
-0.152964
-0.069881
-0.087351
-0.089618
-0.077685
-0.080410
-0.079273
-0.071032
-0.078959
-0.082248
-0.055069
-0.090860
-0.083152
-0.076806
-0.087062
-0.084014
-0.093574
-0.089081
-0.092829
-0.085872
-0.087611
-0.075702
-0.078645
-0.098189
-0.061860
-0.061810
-0.069487
-0.068873
-0.090650
-0.096599
-0.082133
-0.086330
-0.082905
-0.087258
-0.090220
-0.084124
-0.088473
-0.079413
-0.090982
-0.069336
-0.091668
-0.091834
-0.062783
-0.073102
-0.091348
-0.090115
-0.091247
-0.089831
-0.086184
-0.086311
-0.089060
-0.089965
-0.091411
-0.091087
-0.071365
-0.072016
-0.072613
-0.066302
-0.073111
-0.090726
-0.088576
-0.064965
-0.065119
-0.071699
-0.086895
-0.063874
-0.081087
-0.086272
-0.079352
-0.080338
-0.071113
-0.084323
-0.081145
-0.077076
-0.080317
-0.067102
-0.083978
-0.093202
-0.087811
-0.051419
-0.053891
-0.092711
-0.091309
-0.093274
-0.081897
-0.079830
-0.086033
-0.089513
-0.089251
-0.077059
-0.085688
-0.071221
-0.072438
-0.077083
-0.092489
-0.092957
-0.092653
-0.094757
-0.091994
-0.084592
-0.084932
-0.082680
-0.083891
-0.090865
-0.091371
-0.089424
-0.079771
-0.073695
-0.090486
-0.085357
-0.083975
-0.071404
-0.075040
-0.056422
-0.084419
-0.067003
-0.053870
-0.073994
-0.055620
-0.062415
-0.078809
-0.077505
-0.072263
-0.051827
-0.081626
-0.080979
-0.083613
-0.076842
-0.082636
-0.077774
-0.095324
-0.081298
-0.091040
-0.074874
-0.093178
-0.092551
-0.085533
-0.075852
-0.079765
-0.085227
-0.093503
-0.085750
-0.085560
-0.073028
-0.070870
-0.083194
-0.081317
-0.089002
-0.063611
-0.087984
-0.087896
-0.032716
-0.020416
-0.091149
-0.080460
-0.088406
-0.090904
-0.090654
-0.070343
-0.039463
-0.044606
-0.056594
-0.079434
-0.069319
-0.053076
-0.080974
-0.073051
-0.073484
-0.089693
-0.084418
-0.084056
-0.083500
-0.078077
-0.058833
-0.049592
-0.093264
-0.092377
-0.089103
-0.090676
-0.096477
-0.097760
-0.094543
-0.094921
-0.095027
-0.088227
-0.087849
-0.084108
-0.091193
-0.078204
-0.079229
-0.088668
-0.093038
-0.093688
-0.094150
-0.091492
-0.103899
-0.094699
-0.078213
-0.093944
-0.094019
-0.093906
-0.077972
-0.079040
-0.079248
-0.102735
-0.086706
-0.075069
-0.075118
-0.065655
-0.078124
-0.044744
-0.071450
-0.104937
-0.087727
-0.085970
-0.040346
-0.068144
-0.094305
-0.093772
-0.093917
-0.071469
-0.088940
-0.080292
-0.093814
-0.089163
-0.063816
-0.086139
-0.088661
-0.072693
-0.076003
-0.093628
-0.074946
-0.072705
-0.050201
-0.087875
-0.053820
-0.082224
-0.068967
-0.007149
-0.090669
-0.088712
-0.080119
-0.077666
-0.078672
-0.049196
-0.082715
-0.080257
-0.087283
-0.065530
-0.057537
-0.083369
-0.052981
-0.032994
-0.089603
-0.080607
-0.078123
-0.091824
-0.092154
-0.091833
-0.089372
-0.086409
-0.088219
-0.094666
-0.089888
-0.094303
-0.085066
-0.083252
-0.080277
-0.082713
-0.082700
-0.092452
-0.067487
-0.065593
-0.080586
-0.081511
-0.098853
-0.099008
-0.092587
-0.077726
-0.085457
-0.086241
-0.085533
-0.078519
-0.076606
-0.070605
-0.081305
-0.081379
-0.079872
-0.094285
-0.088007
-0.071419
-0.080925
-0.094062
-0.085771
-0.079404
-0.082302
-0.046952
-0.069219
-0.084543
-0.089757
-0.081469
-0.060712
-0.091689
-0.083753
-0.062523
-0.052523
-0.085409
-0.086533
-0.091791
-0.075154
-0.052366
-0.060167
-0.060981
-0.078856
-0.091225
-0.092931
-0.094043
-0.093618
-0.092766
-0.081414
-0.095224
-0.087940
-0.088107
-0.056565
-0.040629
-0.077614
-0.065765
-0.035804
-0.037386
-0.065441
-0.085163
-0.088430
-0.059271
-0.087381
-0.081596
-0.089692
-0.042867
-0.087963
-0.083497
-0.082227
-0.097402
-0.084843
-0.086631
-0.094965
-0.058221
-0.083498
-0.076328
-0.070019
-0.067735
-0.077451
-0.075131
-0.067696
-0.073845
-0.091897
-0.089769
-0.093821
-0.071803
-0.093065
-0.093023
-0.092034
-0.082074
-0.080212
-0.074853
-0.086966
-0.063321
-0.069770
-0.044996
-0.089491
-0.093218
-0.090952
-0.086594
-0.088893
-0.082252
-0.088541
-0.092859
-0.088486
-0.092112
-0.089123
-0.088750
-0.075857
-0.082609
-0.086153
-0.096906
-0.091954
-0.072528
-0.089237
-0.094286
-0.090145
-0.086819
-0.088562
-0.086960
-0.092477
-0.083801
-0.081923
-0.081293
-0.094419
-0.077641
-0.092840
-0.014347
-0.013095
-0.012913
-0.022726
-0.014642
-0.025790
-0.025482
-0.030253
-0.022470
0.024199
0.023823
0.023531
0.011786
-0.028040
-0.003092
0.023300
0.024067
0.000333
0.000261
-0.000674
0.007453
0.009657
0.010035
-0.014486
-0.022132
-0.012895
0.028283
0.026547
0.027522
0.027873
-0.020853
-0.019235
-0.014854
-0.015996
-0.011909
-0.010923
-0.005866
-0.006343
-0.007648
-0.014642
0.007184
0.002450
0.003395
0.003148
-0.009305
-0.004552
-0.009738
-0.010580
-0.009848
-0.001674
-0.000885
0.005059
0.003996
0.004637
0.004068
-0.018195
-0.015575
-0.022328
-0.023769
-0.012709
-0.035036
-0.008076
-0.010062
-0.005220
-0.011281
0.019274
0.017145