# vtk DataFile Version 2.0
Test
ASCII
DATASET POLYDATA
POINTS 3011 float
0.000000 0.000000 0.000000
2.000000 0.000000 0.000000
2.000000 4.000000 0.000000
0.000000 4.000000 0.000000
0.000000 0.500000 0.000000
1.500000 2.000000 0.000000
2.000000 2.500000 0.000000
0.285714 0.000000 0.000000
0.571429 0.000000 0.000000
0.857143 0.000000 0.000000
1.142857 0.000000 0.000000
1.428571 0.000000 0.000000
1.714286 0.000000 0.000000
2.000000 0.276366 0.000000
2.000000 0.523709 0.000000
2.000000 0.745076 0.000000
2.000000 0.943195 0.000000
2.000000 1.120508 0.000000
2.000000 1.279199 0.000000
2.000000 1.421225 0.000000
2.000000 1.548336 0.000000
2.000000 1.662097 0.000000
2.000000 1.763911 0.000000
2.000000 1.855033 0.000000
2.000000 1.936585 0.000000
2.000000 2.009573 0.000000
2.000000 2.074896 0.000000
2.000000 2.133358 0.000000
2.000000 2.185681 0.000000
2.000000 2.232509 0.000000
2.000000 2.274419 0.000000
2.000000 2.311927 0.000000
2.000000 2.345497 0.000000
2.000000 2.375541 0.000000
2.000000 2.402430 0.000000
2.000000 2.426495 0.000000
2.000000 2.448033 0.000000
2.000000 2.467309 0.000000
2.000000 2.484560 0.000000
2.000000 2.516256 0.000000
2.000000 2.535859 0.000000
2.000000 2.559499 0.000000
2.000000 2.588006 0.000000
2.000000 2.622383 0.000000
2.000000 2.663839 0.000000
2.000000 2.713831 0.000000
2.000000 2.774116 0.000000
2.000000 2.846815 0.000000
2.000000 2.934483 0.000000
2.000000 3.040202 0.000000
2.000000 3.167691 0.000000
2.000000 3.321430 0.000000
2.000000 3.506825 0.000000
2.000000 3.730395 0.000000
1.714286 4.000000 0.000000
1.428571 4.000000 0.000000
1.142857 4.000000 0.000000
0.857143 4.000000 0.000000
0.571429 4.000000 0.000000
0.285714 4.000000 0.000000
0.000000 3.713462 0.000000
0.000000 3.449209 0.000000
0.000000 3.205508 0.000000
0.000000 2.980761 0.000000
0.000000 2.773493 0.000000
0.000000 2.582346 0.000000
0.000000 2.406065 0.000000
0.000000 2.243495 0.000000
0.000000 2.093568 0.000000
0.000000 1.955302 0.000000
0.000000 1.827789 0.000000
0.000000 1.710194 0.000000
0.000000 1.601745 0.000000
0.000000 1.501730 0.000000
0.000000 1.409494 0.000000
0.000000 1.324431 0.000000
0.000000 1.245984 0.000000
0.000000 1.173639 0.000000
0.000000 1.106920 0.000000
0.000000 1.045390 0.000000
0.000000 0.988645 0.000000
0.000000 0.936314 0.000000
0.000000 0.888053 0.000000
0.000000 0.843545 0.000000
0.000000 0.802499 0.000000
0.000000 0.764646 0.000000
0.000000 0.729736 0.000000
0.000000 0.697541 0.000000
0.000000 0.667851 0.000000
0.000000 0.640469 0.000000
0.000000 0.615217 0.000000
0.000000 0.591929 0.000000
0.000000 0.570453 0.000000
0.000000 0.550646 0.000000
0.000000 0.532380 0.000000
0.000000 0.515535 0.000000
0.000000 0.483768 0.000000
0.000000 0.461535 0.000000
0.000000 0.431083 0.000000
0.000000 0.389372 0.000000
0.000000 0.332241 0.000000
0.000000 0.253989 0.000000
0.000000 0.146807 0.000000
0.010563 0.510563 0.000000
0.021127 0.521127 0.000000
0.031690 0.531690 0.000000
0.042254 0.542254 0.000000
0.052817 0.552817 0.000000
0.063380 0.563380 0.000000
0.073944 0.573944 0.000000
0.084507 0.584507 0.000000
0.095070 0.595070 0.000000
0.105634 0.605634 0.000000
0.116197 0.616197 0.000000
0.126761 0.626761 0.000000
0.137324 0.637324 0.000000
0.147887 0.647887 0.000000
0.158451 0.658451 0.000000
0.169014 0.669014 0.000000
0.179577 0.679577 0.000000
0.190141 0.690141 0.000000
0.200704 0.700704 0.000000
0.211268 0.711268 0.000000
0.221831 0.721831 0.000000
0.232394 0.732394 0.000000
0.242958 0.742958 0.000000
0.253521 0.753521 0.000000
0.264085 0.764085 0.000000
0.274648 0.774648 0.000000
0.285211 0.785211 0.000000
0.295775 0.795775 0.000000
0.306338 0.806338 0.000000
0.316901 0.816901 0.000000
0.327465 0.827465 0.000000
0.338028 0.838028 0.000000
0.348592 0.848592 0.000000
0.359155 0.859155 0.000000
0.369718 0.869718 0.000000
0.380282 0.880282 0.000000
0.390845 0.890845 0.000000
0.401408 0.901408 0.000000
0.411972 0.911972 0.000000
0.422535 0.922535 0.000000
0.433099 0.933099 0.000000
0.443662 0.943662 0.000000
0.454225 0.954225 0.000000
0.464789 0.964789 0.000000
0.475352 0.975352 0.000000
0.485915 0.985915 0.000000
0.496479 0.996479 0.000000
0.507042 1.007042 0.000000
0.517606 1.017606 0.000000
0.528169 1.028169 0.000000
0.538732 1.038732 0.000000
0.549296 1.049296 0.000000
0.559859 1.059859 0.000000
0.570423 1.070423 0.000000
0.580986 1.080986 0.000000
0.591549 1.091549 0.000000
0.602113 1.102113 0.000000
0.612676 1.112676 0.000000
0.623239 1.123239 0.000000
0.633803 1.133803 0.000000
0.644366 1.144366 0.000000
0.654930 1.154930 0.000000
0.665493 1.165493 0.000000
0.676056 1.176056 0.000000
0.686620 1.186620 0.000000
0.697183 1.197183 0.000000
0.707746 1.207746 0.000000
0.718310 1.218310 0.000000
0.728873 1.228873 0.000000
0.739437 1.239437 0.000000
0.750000 1.250000 0.000000
0.760563 1.260563 0.000000
0.771127 1.271127 0.000000
0.781690 1.281690 0.000000
0.792254 1.292254 0.000000
0.802817 1.302817 0.000000
0.813380 1.313380 0.000000
0.823944 1.323944 0.000000
0.834507 1.334507 0.000000
0.845070 1.345070 0.000000
0.855634 1.355634 0.000000
0.866197 1.366197 0.000000
0.876761 1.376761 0.000000
0.887324 1.387324 0.000000
0.897887 1.397887 0.000000
0.908451 1.408451 0.000000
0.919014 1.419014 0.000000
0.929577 1.429577 0.000000
0.940141 1.440141 0.000000
0.950704 1.450704 0.000000
0.961268 1.461268 0.000000
0.971831 1.471831 0.000000
0.982394 1.482394 0.000000
0.992958 1.492958 0.000000
1.003521 1.503521 0.000000
1.014085 1.514085 0.000000
1.024648 1.524648 0.000000
1.035211 1.535211 0.000000
1.045775 1.545775 0.000000
1.056338 1.556338 0.000000
1.066901 1.566901 0.000000
1.077465 1.577465 0.000000
1.088028 1.588028 0.000000
1.098592 1.598592 0.000000
1.109155 1.609155 0.000000
1.119718 1.619718 0.000000
1.130282 1.630282 0.000000
1.140845 1.640845 0.000000
1.151408 1.651408 0.000000
1.161972 1.661972 0.000000
1.172535 1.672535 0.000000
1.183099 1.683099 0.000000
1.193662 1.693662 0.000000
1.204225 1.704225 0.000000
1.214789 1.714789 0.000000
1.225352 1.725352 0.000000
1.235915 1.735915 0.000000
1.246479 1.746479 0.000000
1.257042 1.757042 0.000000
1.267606 1.767606 0.000000
1.278169 1.778169 0.000000
1.288732 1.788732 0.000000
1.299296 1.799296 0.000000
1.309859 1.809859 0.000000
1.320423 1.820423 0.000000
1.330986 1.830986 0.000000
1.341549 1.841549 0.000000
1.352113 1.852113 0.000000
1.362676 1.862676 0.000000
1.373239 1.873239 0.000000
1.383803 1.883803 0.000000
1.394366 1.894366 0.000000
1.404930 1.904930 0.000000
1.415493 1.915493 0.000000
1.426056 1.926056 0.000000
1.436620 1.936620 0.000000
1.447183 1.947183 0.000000
1.457746 1.957746 0.000000
1.468310 1.968310 0.000000
1.478873 1.978873 0.000000
1.489437 1.989437 0.000000
1.510417 2.010417 0.000000
1.520833 2.020833 0.000000
1.531250 2.031250 0.000000
1.541667 2.041667 0.000000
1.552083 2.052083 0.000000
1.562500 2.062500 0.000000
1.572917 2.072917 0.000000
1.583333 2.083333 0.000000
1.593750 2.093750 0.000000
1.604167 2.104167 0.000000
1.614583 2.114583 0.000000
1.625000 2.125000 0.000000
1.635417 2.135417 0.000000
1.645833 2.145833 0.000000
1.656250 2.156250 0.000000
1.666667 2.166667 0.000000
1.677083 2.177083 0.000000
1.687500 2.187500 0.000000
1.697917 2.197917 0.000000
1.708333 2.208333 0.000000
1.718750 2.218750 0.000000
1.729167 2.229167 0.000000
1.739583 2.239583 0.000000
1.750000 2.250000 0.000000
1.760417 2.260417 0.000000
1.770833 2.270833 0.000000
1.781250 2.281250 0.000000
1.791667 2.291667 0.000000
1.802083 2.302083 0.000000
1.812500 2.312500 0.000000
1.822917 2.322917 0.000000
1.833333 2.333333 0.000000
1.843750 2.343750 0.000000
1.854167 2.354167 0.000000
1.864583 2.364583 0.000000
1.875000 2.375000 0.000000
1.885417 2.385417 0.000000
1.895833 2.395833 0.000000
1.906250 2.406250 0.000000
1.916667 2.416667 0.000000
1.927083 2.427083 0.000000
1.937500 2.437500 0.000000
1.947917 2.447917 0.000000
1.958333 2.458333 0.000000
1.968750 2.468750 0.000000
1.979167 2.479167 0.000000
1.989583 2.489583 0.000000
0.206561 0.791563 0.000000
0.205359 0.816165 0.000000
0.186354 0.798211 0.000000
0.221961 0.800924 0.000000
0.280649 1.360489 0.000000
0.304015 1.400469 0.000000
0.229142 1.396096 0.000000
0.275922 1.451476 0.000000
1.869084 2.391788 0.000000
1.857928 2.378421 0.000000
1.238669 2.061899 0.000000
1.278787 2.082276 0.000000
1.238298 2.096047 0.000000
1.277579 2.032995 0.000000
0.402536 1.205823 0.000000
0.415290 1.176040 0.000000
0.428330 1.201952 0.000000
0.387294 1.172617 0.000000
0.146930 1.050586 0.000000
0.109488 1.087198 0.000000
0.102742 1.042403 0.000000
0.157178 1.091184 0.000000
0.588967 1.178581 0.000000
0.593116 1.153718 0.000000
0.608054 1.166752 0.000000
0.612180 1.145944 0.000000
0.860304 1.543784 0.000000
0.868821 1.521840 0.000000
0.878420 1.536650 0.000000
0.845380 1.517623 0.000000
1.129525 1.764330 0.000000
1.142005 1.751560 0.000000
1.145757 1.773681 0.000000
1.159368 1.759106 0.000000
1.968150 2.518865 0.000000
1.986105 2.509269 0.000000
1.986696 2.531115 0.000000
0.668964 1.191005 0.000000
0.683291 1.201259 0.000000
0.557625 1.074830 0.000000
0.569760 1.084377 0.000000
0.557769 1.089278 0.000000
0.707567 1.266174 0.000000
0.719026 1.281845 0.000000
0.700768 1.282275 0.000000
0.722329 1.266956 0.000000
0.468225 2.149688 0.000000
0.419106 2.064198 0.000000
0.523878 2.082648 0.000000
0.838546 1.421191 0.000000
0.823708 1.410355 0.000000
0.840477 1.404206 0.000000
0.818500 1.425973 0.000000
0.953187 1.488222 0.000000
0.959780 1.473222 0.000000
0.967054 1.485637 0.000000
1.047418 1.769126 0.000000
1.080240 1.782403 0.000000
1.047768 1.802712 0.000000
0.971392 1.693320 0.000000
0.949208 1.720793 0.000000
0.940644 1.684781 0.000000
0.381391 2.160909 0.000000
0.944091 1.477800 0.000000
0.530075 1.477351 0.000000
0.521303 1.516669 0.000000
0.474240 1.491166 0.000000
0.489489 1.546185 0.000000
1.537370 2.239326 0.000000
1.555275 2.267640 0.000000
1.532966 2.278201 0.000000
0.962010 1.661716 0.000000
0.986804 1.643200 0.000000
0.986259 1.672729 0.000000
1.049149 1.737940 0.000000
1.075111 1.737123 0.000000
[...]
POINT_DATA 3011
SCALARS UX float 1
LOOKUP_TABLE default
-0.000000
0.000000
0.002220
-0.011572
-0.031081
0.039885
0.150739
-0.000000
-0.000000
-0.000000
-0.000000
0.000000
-0.000000
0.003292
0.005502
0.009341
0.014797
0.021971
0.030723
0.041203
0.053377
0.067241
0.082425
0.098951
0.115720
0.133362
0.149895
0.164804
0.179123
0.192869
0.203475
0.210477
0.215688
0.220544
0.223105
0.222518
0.238246
0.253459
0.199126
0.110945
-0.006296
-0.006744
-0.006990
-0.006699
-0.006442
-0.006113
-0.005650
-0.004888
-0.003950
-0.002885
-0.001729
-0.000519
0.000667
0.001612
0.000876
-0.000632
-0.002375
-0.004187
-0.006251
-0.008771
-0.012021
-0.012709
-0.013978
-0.015515
-0.017260
-0.019379
-0.021950
-0.024785
-0.028040
-0.031619
-0.035598
-0.039614
-0.043821
-0.048560
-0.053646
-0.059228
-0.065540
-0.072351
-0.079308
-0.086308
-0.092652
-0.097778
-0.099313
-0.094121
-0.078960
-0.059436
-0.019101
-0.051709
-0.039991
-0.018603
-0.036185
-0.080558
-0.076022
-0.069065
-0.018458
-0.031331
-0.029394
-0.026340
-0.021851
-0.017301
-0.012009
-0.006513
-0.003548
-0.031251
-0.039204
-0.034808
-0.047732
-0.063984
-0.036494
-0.020589
0.007486
0.021156
0.020411
0.025455
0.021370
-0.027862
-0.030007
-0.037697
-0.032601
-0.403710
-0.010703
-0.010946
-0.011234
-0.010095
-0.010164
-0.010307
-0.081704
-0.010965
-0.010862
-0.008948
-0.021811
-0.034700
-0.013979
-0.016225
-0.027234
-0.030771
-0.033398
-0.003065
-0.004075
-0.010476
0.006308
-0.036888
0.013012
0.015012
0.017002
-0.003745
0.005400
-0.011365
0.019502
-0.049550
-0.101582
-0.081032
-0.077990
-0.075214
-0.073659
0.006584
0.010644
-2.276963
-0.001951
0.017601
0.169129
0.029302
-0.003310
-0.005974
-0.014880
-0.017975
-0.021133
-0.071931
0.057091
0.310240
0.320001
0.341445
0.111133
0.071465
0.032292
0.011209
0.025567
-0.072367
-0.099005
0.422786
0.019315
0.019696
0.020143
0.020304
0.021024
0.021879
0.019418
0.018509
-0.151574
-0.174736
-0.135721
-0.048617
-0.017335
-0.013144
-0.014363
-0.015703
0.008453
-0.005338
-0.015264
-0.115847
-0.111328
-0.019006
-0.371906
-0.142023
-1.016607
-0.561034
-0.157245
-0.218754
-0.195002
-0.000484
-0.058347
0.007462
-0.018922
-0.018126
-0.026203
-0.108519
-0.027165
-0.120353
-0.753945
-1.891737
-1.878064
-1.875012
-1.887210
0.400262
-1.430733
0.145998
0.071007
0.190932
0.137026
0.014555
0.063327
-0.099164
0.018798
0.174787
0.024562
0.065057
-0.052533
-0.029790
0.057053
0.066049
-0.188681
0.809560
0.477513
0.247440
0.026837
0.083780
0.031647
0.028914
0.038746
0.037391
0.036338
-0.014877
-0.022245
0.001730
0.030529
0.059375
-0.004198
-0.005483
0.041901
0.044730
0.016752
0.095218
0.085733
0.110566
0.113679
0.112056
0.123192
0.125282
0.130640
0.135435
0.142534
0.145768
0.150393
0.155896
0.164645
0.188717
0.216138
0.224459
0.183146
0.161606
-0.055887
0.178637
0.175198
0.185891
0.185307
0.184871
0.204692
0.214804
0.235988
0.234176
0.194160
-0.060997
-0.085126
-0.092925
-0.066955
-0.050821
-0.048386
-0.049486
-0.045980
0.112915
0.134862
-0.016262
-0.015536
-0.015632
-0.016455
-0.058973
-0.061385
-0.058519
-0.062644
-0.080120
-0.077604
-0.082591
-0.075676
-0.052153
-0.045250
-0.045379
-0.046285
-0.037421
-0.038507
-0.037679
-0.038876
-0.025660
-0.022652
-0.026133
-0.022957
-0.121678
0.029378
-0.006394
-0.023069
-0.017497
-0.369823
-1.214964
-0.401408
-0.034587
0.003469
-0.047436
0.045187
-0.019658
-0.021941
-0.020537
-0.044903
-0.045533
-0.046077
-0.044664
-0.018582
-0.014734
-0.016399
-0.027303
-0.027192
-0.026868
-0.029928
-0.029095
-0.030502
-0.020403
-0.017493
-0.043437
-0.041184
-0.042812
-0.039744
-0.012698
-0.012870
-0.013057
-0.031342
-0.032020
-0.030641
-0.027775
-0.027421
-0.027268
-0.012485
-0.027934
-0.025099
-0.024588
-0.026134
-0.025687
-0.013688
-0.013647
-0.013435
-0.013204
-0.013285
-0.013405
-0.045915
-0.047734
-0.046876
-0.037725
-0.036949
-0.035132
-0.048908
-0.033553
-0.063174
-0.061284
-0.060352
-0.065142
-0.013739
-0.014801
-0.014633
-0.013797
-0.031616
-0.035028
-0.032278
-0.013125
-0.012448
-0.013029
-0.033857
-0.061748
-0.063190
-0.067044
-0.045809
-0.046873
-0.044786
-0.045843
-0.067913
-0.033995
-0.030869
-0.032650
-0.018031
0.022410
-0.005326
-0.016068
-0.017129
-0.015726
-0.056978
-0.057223
-0.016722
-0.035096
-0.033495
-0.034673
-0.034575
-0.013737
-0.013525
-0.014075
-0.036939
-0.035276
-0.035752
-0.013118
-0.050813
-0.031103
-0.001704
-0.057517
-0.057359
-0.057460
-0.072831
-0.066288
-0.055094
-0.027173
-0.028746
-0.027500
-0.078753
-0.028978
-0.026200
-0.027081
-0.082212
-0.077438
-0.081334
-0.094049
-0.718103
0.000737
-0.670730
0.232013
-0.095635
-0.013533
0.000798
-0.020983
-0.020702
-0.022619
-0.028366
-0.030609
-0.028186
-0.036753
-0.033357
-0.034416
-0.027726
-0.090992
-0.088751
-0.090632
-0.041672
-0.041307
-0.042493
-0.029648
-0.040526
-0.090729
-0.090500
-0.094524
0.004675
0.004425
0.002517
-0.033640
0.125293
0.009734
0.031264
-0.043450
-0.043664
-0.019922
-0.020999
-0.013575
-0.013340
-0.013885
-0.050190
-0.046666
-0.031144
-0.013001
-0.013358
-0.013145
-0.012938
0.130543
0.103114
-0.013057
-0.018022
-0.018351
-0.019406
-0.078159
-0.119086
-0.071253
-0.006936
-0.005542
-0.006202
-0.004465
0.004330
-0.011653
-0.026931
0.020061
-0.047516
-0.051463
-0.035761
-0.055476
-0.034856
-0.013666
-0.012265
-0.010579
-0.014085
-0.013691
-0.013922
-0.013714
-0.013523
-0.013891
-0.013264
0.110846
0.162523
-0.036717
-0.037182
-0.036296
-0.037908
-0.043209
-0.041687
-0.041710
-0.041390
-0.015180
-0.015744
-0.015549
0.007429
0.015757
-0.022918
-0.013724
-0.012941
-0.013612
0.082687
0.112216
-0.048205
-0.045942
-0.048444
-0.039685
-0.041573
-0.040639
-0.042421
-0.050030
-0.047070
-0.035271
-0.038610
-0.039473
-0.039838
-0.038453
-0.048391
-0.427572
-0.005866
-0.067646
-0.015263
-0.145755
-0.026056
-0.036495
-0.038196
-0.037106
-0.047835
-0.005616
-0.010251
-0.009461
-0.011347
-0.029469
-0.029118
-0.037216
-0.035914
-0.035605
-0.050290
-0.076295
-0.030136
-0.027191
-0.028369
-0.028202
-0.027488
-0.035685
-0.036063
-0.021150
-0.035541
-0.647655
0.192826
0.064891
0.037967
0.025672
-0.030767
-0.029510
-0.030225
-0.014000
-0.014006
-0.013645
-0.029462
-0.030369
-0.031124
-0.031426
-0.013026
-0.013220
-0.009392
-0.013759
-0.014527
-0.015151
-0.041931
-0.026351
-0.029468
-0.022869
-0.087324
-0.083628
-0.088929
-0.085189
-0.087718
-0.089271
-0.091610
-0.008504
-0.007480
-0.009686
-0.011094
-0.074763
-0.070994
-0.073262
-0.069410
-0.017155
-0.017800
-0.016516
-0.017085
-0.023382
-0.023795
-0.022024
-0.023242
0.005998
0.034872
0.011087
0.111226
-0.013296
-0.014106
-0.041524
-0.040523
-0.044179
-0.024592
-0.031685
-0.032703
-0.032780
-0.088654
-0.085104
-0.028593
-0.028956
-0.029658
-0.015622
-0.016173
-0.060119
-0.056595
-0.060551
-0.057467
-0.059113
-0.035014
-0.033153
-0.033639
-0.031690
-0.087783
-0.084450
-0.087434
-0.089870
-0.038539
-0.039175
-0.087441
-0.085280
-0.086782
-0.086949
-0.087834
-0.066519
-0.026036
-0.012943
0.002196
-0.028366
-0.086002
-0.094362
-0.091711
-0.081234
-0.088736
-0.021819
-0.023036
-0.024617
-0.019464
-0.007723
-0.007938
-0.006532
-0.009797
-0.009837
-0.007550
-0.008244
-0.007480
-0.007871
-0.008957
-0.009358
-0.079344
-0.076085
-0.079527
-0.039997
-0.040493
-0.036921
-0.037292
-0.007704
-0.007240
-0.006560
-0.006711
-0.028312
-0.027715
-0.078195
-0.079823
-0.073394
-0.077082
-0.011099
-0.001189
-0.154213
-0.074495
-0.150220
-0.042298
0.069210
0.026856
-0.019379
0.046095
-0.076506
-0.076638
-0.012695
-0.012576
-0.012204
-0.012430
-0.012175
-0.006447
-0.005897
-0.007491
-0.007009
-0.039828
-0.038103
-0.040769
-0.055031
-0.052978
-0.040741
-0.062078
-0.006953
0.000397
-0.086734
-0.084989
-0.086156
-0.069620
-0.076428
-0.086959
-0.012008
-0.003156
0.001307
-0.042365
-0.052382
-0.056179
-0.036501
-0.039923
-0.043551
0.125989
0.252447
0.197293
0.182352
0.179712
-0.016078
-0.017062
-0.073947
-0.078225
-0.075996
-0.006875
-0.013163
-0.013280
-0.013210
-0.062388
-0.055195
-0.053342
-0.053394
-0.055898
-0.054552
-0.047846
-0.048701
-0.057579
-0.052536
-0.096494
-0.088865
-0.094857
-0.086594
-0.071781
-0.013216
-0.067336
0.034858
-0.034326
0.000709
0.017501
-0.006539
-0.006399
-0.007618
-0.028789
-0.023840
0.234855
0.006951
-0.012363
-0.010348
-0.010436
-0.086402
-0.086314
-0.089306
-0.012956
-0.013274
-0.012231
-0.012635
-0.011828
-0.065936
-0.071672
-0.069267
-0.069546
-0.014657
-0.014825
-0.086501
-0.090407
-0.091477
-0.089815
-0.050545
-0.047912
-0.049159
-0.045396
-0.046812
-0.043406
-0.044207
-0.040976
-0.041209
-0.068808
-0.077519
-0.013915
-0.013767
-0.059715
-0.057335
-0.057734
-0.054488
-0.056937
0.017116
0.018851
0.006276
-0.049771
-0.048332
-0.067118
-0.065837
-0.051621
-0.050899
-0.013335
-0.013200
-0.013874
-0.013975
-0.004938
-0.088019
-0.092010
-0.093547
-0.091910
-0.025130
0.102323
0.038772
0.030083
0.006666
-0.020393
-0.022047
-0.021775
-0.019965
-0.020158
-0.021635
-0.011351
-0.012542
-0.007163
-0.007822
-0.023094
-0.022670
-0.011442
-0.008988
0.018153
-0.064765
-0.062985
-0.014218
-0.013223
-0.016544
-0.013773
-0.014632
-0.014057
0.019623
-0.038458
-0.014372
-0.018768
-0.018056
0.156908
0.141542
-0.004148
0.004211
-0.050241
-0.047385
-0.048257
-0.021985
-0.020485
-0.022264
-0.023656
-0.006229
-0.086545
-0.084123
-0.083701
-0.053023
-0.014464
-0.015051
-0.014697
-0.014163
0.123528
-0.063820
-0.040222
-0.031309
-0.013875
-0.032562
-0.016495
-0.019177
-0.017406
-0.015108
-0.018391
0.028640
0.000118
-0.011132
-0.010036
-0.010570
-0.010743
-0.013970
-0.014143
-0.026433
0.006896
-0.013025
0.028043
-0.025574
-0.016004
-0.014640
-0.044965
-0.029529
-0.029405
-0.071200
-0.070201
-0.008698
-0.008072
-0.007214
-0.009456
-0.058653
-0.018580
-0.020986
-0.027515
-0.033919
-0.036581
-0.036540
-0.063748
-0.060103
-0.066551
-0.089074
-0.091268
-0.088027
-0.088483
-0.029873
-0.030711
-0.028751
-0.029525
-0.027738
-0.012890
-0.012673
-0.030765
-0.032318
-0.033377
-0.034334
-0.036816
-0.013370
-0.011982
-0.012422
-0.011557
-0.012124
-0.014215
-0.013150
-0.011676
-0.011362
-0.037869
-0.040694
-0.029878
-0.068537
-0.111963
-0.069175
-0.065999
-0.069012
-0.072394
-0.030419
-0.028910
-0.031390
-0.044510
-0.043149
-0.093501
-0.076620
-0.079836
-0.089615
0.029534
0.030355
-0.005014
-0.081873
0.020187
-0.007015
-0.020055
-0.021962
-0.022552
-0.013844
-0.024395
-0.086314
-0.073208
-0.084948
-0.052083
0.031858
-0.086853
-0.001540
-0.003330
-0.002426
-0.061988
-0.048826
0.122178
0.015495
-0.160861
-0.107466
-0.039119
-0.013929
-0.013540
-0.013474
0.198639
0.121997
0.171573
-0.033560
-0.019115
-0.030685
-0.029929
-0.004680
-0.002095
-0.000964
-0.002793
-0.002262
-0.074604
-0.071170
-0.041116
-0.042914
-0.018488
-0.016273
-0.013614
-0.031559
-0.098119
-0.057139
-0.056170
-0.054928
-0.012974
-0.053682
-0.053447
-0.052112
-0.029041
-0.027550
-0.029637
-0.026660
-0.026977
-0.016024
-0.040756
-0.042224
-0.040085
-0.003119
-0.002901
-0.001700
-0.003636
-0.053463
-0.055871
-0.055434
-0.061901
-0.057581
-0.044226
-0.059096
-0.039236
-0.011708
-0.024470
-0.025726
-0.046526
-0.043941
-0.092108
-0.071398
-0.051555
-0.051590
-0.066697
-0.015597
0.005765
-0.008749
-0.089932
-0.013209
-0.024998
-0.095301
-0.056311
-0.053616
-0.044621
-0.013783
-0.035379
-0.027724
-0.032120
-0.021279
-0.010941
-0.010585
-0.092752
-0.010158
-0.051075
-0.050591
-0.052816
-0.005704
-0.023313
-0.026085
-0.024865
0.000773
-0.061284
-0.040823
-0.078831
-0.084587
-0.083802
-0.021721
-0.024543
-0.081074
-0.083156
-0.004923
0.031196
-0.083553
-0.083425
-0.082572
-0.007709
-0.032547
-0.030644
-0.007300
-0.014568
-0.024804
-0.018533
-0.018492
-0.084956
-0.079721
-0.023848
-0.025423
-0.002858
-0.001166
-0.022823
-0.024514
-0.088061
-0.089777
-0.087485
-0.014430
-0.014046
-0.019284
-0.020393
-0.038729
-0.053978
-0.053204
-0.049568
-0.052073
-0.051198
-0.012558
-0.054296
-0.033407
-0.032766
-0.031771
-0.087216
-0.087000
-0.086904
-0.008372
-0.032065
-0.033941
-0.033725
-0.035714
-0.033145
-0.078248
-0.080120
-0.025401
-0.023193
-0.005772
-0.005956
-0.003687
0.079856
-0.027294
-0.027655
-0.029384
-0.056589
-0.048007
-0.051056
-0.055914
-0.055484
-0.053383
-0.000587
-0.011798
-0.011809
-0.013012
-0.023761
-0.020416
-0.087181
-0.098648
-0.094583
-0.015016
-0.014370
-0.013755
-0.018550
-0.029687
-0.082401
-0.085831
-0.082244
-0.084548
0.019133
-0.028018
-0.018687
-0.035592
-0.036009
0.028268
-0.056998
-0.057215
-0.057135
-0.056322
-0.014576
0.152219
0.154903
-0.014629
-0.059180
-0.015396
-0.015687
-0.099051
-0.030113
-0.101067
-0.087148
-0.087703
-0.087493
-0.018715
-0.015011
-0.014409
-0.034330
-0.024362
-0.025548
-0.087612
-0.024497
0.098536
-0.026676
-0.032293
-0.011024
-0.024366
-0.056600
-0.027091
-0.026599
-0.026151
-0.027349
0.040241
0.050433
-0.030423
-0.014773
0.004075
-0.013257
-0.009579
-0.009084
-0.010234
-0.010222
-0.011730
-0.011889
-0.008537
-0.019433
-0.015616
-0.034343
-0.045958
-0.045628
-0.042989
-0.016711
-0.017426
-0.057068
-0.046426
-0.084437
-0.014890
-0.014386
-0.011313
-0.023249
-0.021472
-0.012933
-0.057104
-0.086551
-0.071869
0.397982
-0.015356
-0.043304
-0.044788
-0.043930
-0.026170
-0.026549
-0.020613
-0.018733
-0.017186
-0.019016
-0.018110
-0.025193
-0.008962
-0.009705
-0.009847
-0.010576
-0.008099
-0.014764
-0.011708
0.015740
-0.064717
-0.012883
-0.076596
-0.039167
-0.038849
-0.038333
-0.004569
-0.003706
-0.031114
-0.030492
-0.031599
-0.032312
-0.121107
-0.421037
-0.089353
-0.090194
-0.090626
-0.043318
-0.026392
-0.025110
-0.086322
-0.013168
-0.013034
-0.086493
-0.021300
-0.021213
-0.019426
0.107341
-0.007332
-0.007385
-0.006421
-0.068164
-0.073222
-0.005824
-0.047647
-0.047719
-0.071152
-0.013394
-0.092805
-0.093562
0.015959
-0.091980
-0.037426
-0.058111
-0.091569
-0.012913
-0.012333
-0.012789
-0.014893
-0.014364
-0.014462
-0.015070
-0.016161
-0.015342
-0.068226
0.001050
-0.083890
-0.007600
-0.008904
-0.086054
-0.088318
-0.224063
-0.013005
-0.013126
-0.025410
-0.103487
-0.027376
-0.048397
-0.051560
-0.045049
-0.042961
-0.044094
0.121948
0.073040
-0.056452
-0.020485
-0.011534
-0.012936
-0.014340
-0.014926
-0.015536
-0.013173
-0.013302
-0.013384
-0.040160
-0.043166
0.029465
-0.034585
-0.030069
-0.046668
-0.091143
-0.046088
-0.010526
-0.010030
-0.011360
-0.008901
-0.333961
-0.242555
-0.288646
-0.196321
-0.013228
-0.088488
-0.077271
-0.020381
-0.016462
-0.014229
-0.013828
-0.033931
0.000011
0.005054
-0.090507
-0.017403
-0.039804
-0.000809
-0.025160
-0.014339
-0.211845
-0.008016
-0.085814
-0.013914
-0.056929
0.263112
-0.043156
-0.041540
-0.086726
-0.005300
-0.004069
-0.006306
-0.004200
-0.024804
-0.018916
-0.033276
-0.034941
0.007642
-0.029518
-0.039851
-0.016648
-0.027521
-0.126098
0.039660
-0.015784
-0.017445
-0.052645
-0.048182
-0.050925
-0.049932
-0.050069
-0.048526
-0.019548
-0.017960
-0.023542
-0.022371
-0.004889
-0.232639
-0.749296
-0.009892
-0.043150
-0.021962
-0.017117
-0.092104
-0.090551
-0.090887
-0.032173
-0.031975
-0.032505
-0.012499
-0.011409
-0.011554
-0.010058
-0.012041
-0.008038
-0.011708
-0.008077
-0.089743
-0.061498
-0.028562
-0.028011
-0.028580
-0.027278
-0.037792
-0.022227
-0.023910
-0.021441
-0.028057
-0.028579
0.122656
0.310836
-0.020878
-0.020132
-0.019548
-0.036157
-0.035465
-0.025943
-0.032861
-0.031811
-0.092367
-0.094600
-0.013836
-0.012901
-0.034568
-0.034815
-0.033668
-0.015630
-0.014941
-0.007977
-0.011709
-0.090660
-0.013324
-0.006409
-0.049660
-0.049088
-0.048381
-0.015073
-0.014942
-0.014004
-0.049676
-0.094147
-0.014915
-0.088353
-0.085994
-0.085693
-0.014672
-0.015012
-0.038758
-0.038099
-0.001538
-0.065200
-0.023714
-0.020870
0.466630
-0.017869
-0.038451
-0.023528
-0.014699
-0.037185
-0.044544
-0.046067
-0.044239
-0.012422
-0.013060
-0.073247
-0.086836
-0.038339
0.020019
0.091543
0.006619
0.021162
-0.024595
-0.028044
-0.723053
-0.167465
-0.492133
-0.012947
-0.055060
-0.084086
-0.085021
-0.089718
0.138595
0.019893
-0.083338
-0.046776
0.050191
-0.008566
-0.016956
-0.015725
-0.014397
-0.009471
-0.026543
-0.025932
-0.023125
-0.026109
-0.025531
-0.019058
0.010527
0.018755
-0.283436
-0.182893
-0.245124
-0.042270
-0.046695
0.018489
-0.041288
-0.041134
-0.016795
-0.034902
-0.021054
-0.016134
-0.026470
-0.023765
0.057091
-0.074348
-0.029810
-0.030403
-0.002476
-0.002942
-0.010858
-0.017738
-0.013808
0.337653
0.333285
-0.040136
-0.011693
-0.030160
-0.042190
-0.035294
-0.044776
-0.047190
-0.075598
-0.037646
-0.024846
-0.037292
0.018055
-0.041127
-0.024272
0.031066
-0.030480
0.071442
0.092142
-0.011853
-0.012404
-0.012489
-0.012595
-0.012991
-0.010657
-0.006038
-0.006275
0.011184
-0.001878
-0.046977
-0.012439
-0.012197
-0.019073
-0.006072
-0.010247
0.056622
0.048232
-0.041578
-0.024064
-0.034088
-0.013397
-0.012277
-0.091743
0.111532
-0.013414
-0.013761
-0.011847
-0.008493
-0.026547
-0.011340
-0.053131
-0.043351
-0.027103
-0.000139
-0.006358
-0.029703
-0.055492
-0.039073
-0.054763
-0.009912
-0.048790
-0.013124
-0.013366
-0.000008
0.000973
0.005689
-0.005112
-0.016690
-0.019401
-0.016426
-0.014204
-0.011079
-0.012558
-0.057756
-0.014513
-0.017715
-0.015265
-0.015190
0.045038
0.101024
-0.034976
-0.008274
-0.001006
0.002736
-0.037918
-0.029100
-0.027385
-0.056294
0.028743
-0.012825
-0.012163
-0.012600
-0.016670
-0.015246
-0.013658
-0.046980
-0.044400
-0.046738
-0.047100
-0.036539
-0.036049
-0.027918
-0.025120
-0.027548
-0.013544
-0.044209
-0.032766
-0.053658
-0.012524
-0.014015
-0.013459
-0.018238
-0.019057
-0.025009
-0.047609
-0.027875
-0.049692
-0.000988
-0.020271
-0.020117
-0.021394
-0.007977
0.010643
-0.012310
-0.055294
-0.013110
-0.027519
0.015564
-0.009932
0.006372
-0.091314
-0.042719
-0.017628
-0.078879
-0.075170
-0.024885
-0.025552
-0.011351
-0.033226
-0.032491
-0.028564
-0.045570
-0.046854
-0.035106
-0.014660
-0.024603
-0.039209
-0.052746
0.019574
-0.065460
-0.026892
0.123233
-0.002577
-0.035709
-0.013285
-0.024435
-0.084937
0.074196
-0.014473
0.045505
-0.009012
-0.014653
-0.008191
-0.010015
0.020321
-0.004299
-0.016534
-0.011599
-0.053088
0.268019
-0.054303
-1.252039
-1.193144
-0.652723
-0.031477
-0.030538
-0.015729
-0.016553
-0.082285
-0.085004
-0.004850
-0.004766
-0.022609
-0.323518
-0.027072
-0.046124
-0.011530
-0.047218
-0.012288
-0.013693
-0.011265
0.127775
-0.012282
-0.015854
-0.015120
0.015574
-0.006043
-0.010650
-0.007044
-0.012317
-0.012387
-0.015672
-0.009897
0.009114
0.044048
-0.005064
-0.009682
-0.008312
-0.022342
-0.082048
-0.017563
-0.007589
-0.020686
-0.064133
0.008208
0.068187
0.017911
-0.334799
-0.018369
-0.009909
-0.004971
-0.015052
-0.053009
-0.034709
-0.052103
-0.095564
-0.037614
-0.040122
-0.040624
-0.048125
-0.067471
-0.028689
-0.145805
-0.038691
-0.014914
-0.039339
-0.022443
-0.023289
-0.026741
-0.014300
-0.039403
-0.013382
-0.013608
0.051610
-0.037886
0.120533
-0.061673
-0.004709
-0.012540
0.017815
-0.013532
-0.090255
-1.133176
-0.456156
-0.022028
-0.014321
0.100129
-0.014339
-0.012280
-0.020465
-0.008176
-0.015303
-0.042396
0.000688
0.075270
-1.717589
0.095882
0.021950
0.155379
-0.047162
0.022064
0.021221
-0.042640
-0.026847
-0.027268
-0.018998
-0.020792
-0.018717
-0.019664
-0.017698
-0.041131
-0.033000
-0.056773
-0.012700
-0.023186
0.022925
-0.023482
-0.614389
-0.024260
-0.015034
-0.041944
-0.677779
-0.032842
-0.014480
-0.033917
-0.014699
-0.041276
-0.029343
-0.033932
0.019307
0.008154
-0.009848
-0.020152
-0.018996
-0.035671
-0.021798
-0.021002
-0.014943
-0.110082
-0.044881
-0.014394
-0.017084
-0.011105
-0.009614
-0.012747
-0.040172
-0.021401
-0.027506
-0.004079
-0.005091
-0.003839
-0.009838
-0.003002
-0.004457
0.203274
0.032291
-0.025575
0.119859
0.122549
0.111374
0.128404
0.060153
0.078504
0.119263
0.106891
-0.001317
-0.001730
-0.001472
0.005922
0.005436
0.008456
0.004255
0.005159
0.005644
0.178819
0.170401
0.171713
0.180272
-0.002209
-0.003151
-0.002781
0.002241
0.003919
0.004549
-0.001248
0.000550
-0.000993
0.002125
-0.023142
-0.374981
0.052967
-0.859979
0.004145
0.000037
0.002463
0.001822
0.001840
-0.001971
-0.001387
0.032545
0.030470
0.028179
0.034063
0.000415
0.000898
-0.000070
0.033346
0.045424
-0.018169
0.019305
0.019116
0.018611
0.018604
0.041879
0.030313
0.000569
-0.003096
-0.002412
-0.009761
-0.007381
-0.008128
0.009739
0.009668
0.010520
-0.006272
-0.000028
-0.000556
0.000744
0.010285
0.023505
0.019147
0.023796
0.020406
0.021240
0.015730
0.021023
0.018520
-0.000112
-0.000665
0.001078
0.067500