# vtk DataFile Version 2.0
Test
ASCII
DATASET POLYDATA
POINTS 3011 float
0.000000 0.000000 0.000000
2.000000 0.000000 0.000000
2.000000 4.000000 0.000000
0.000000 4.000000 0.000000
0.000000 0.500000 0.000000
1.500000 2.000000 0.000000
2.000000 2.500000 0.000000
0.285714 0.000000 0.000000
0.571429 0.000000 0.000000
0.857143 0.000000 0.000000
1.142857 0.000000 0.000000
1.428571 0.000000 0.000000
1.714286 0.000000 0.000000
2.000000 0.276366 0.000000
2.000000 0.523709 0.000000
2.000000 0.745076 0.000000
2.000000 0.943195 0.000000
2.000000 1.120508 0.000000
2.000000 1.279199 0.000000
2.000000 1.421225 0.000000
2.000000 1.548336 0.000000
2.000000 1.662097 0.000000
2.000000 1.763911 0.000000
2.000000 1.855033 0.000000
2.000000 1.936585 0.000000
2.000000 2.009573 0.000000
2.000000 2.074896 0.000000
2.000000 2.133358 0.000000
2.000000 2.185681 0.000000
2.000000 2.232509 0.000000
2.000000 2.274419 0.000000
2.000000 2.311927 0.000000
2.000000 2.345497 0.000000
2.000000 2.375541 0.000000
2.000000 2.402430 0.000000
2.000000 2.426495 0.000000
2.000000 2.448033 0.000000
2.000000 2.467309 0.000000
2.000000 2.484560 0.000000
2.000000 2.516256 0.000000
2.000000 2.535859 0.000000
2.000000 2.559499 0.000000
2.000000 2.588006 0.000000
2.000000 2.622383 0.000000
2.000000 2.663839 0.000000
2.000000 2.713831 0.000000
2.000000 2.774116 0.000000
2.000000 2.846815 0.000000
2.000000 2.934483 0.000000
2.000000 3.040202 0.000000
2.000000 3.167691 0.000000
2.000000 3.321430 0.000000
2.000000 3.506825 0.000000
2.000000 3.730395 0.000000
1.714286 4.000000 0.000000
1.428571 4.000000 0.000000
1.142857 4.000000 0.000000
0.857143 4.000000 0.000000
0.571429 4.000000 0.000000
0.285714 4.000000 0.000000
0.000000 3.713462 0.000000
0.000000 3.449209 0.000000
0.000000 3.205508 0.000000
0.000000 2.980761 0.000000
0.000000 2.773493 0.000000
0.000000 2.582346 0.000000
0.000000 2.406065 0.000000
0.000000 2.243495 0.000000
0.000000 2.093568 0.000000
0.000000 1.955302 0.000000
0.000000 1.827789 0.000000
0.000000 1.710194 0.000000
0.000000 1.601745 0.000000
0.000000 1.501730 0.000000
0.000000 1.409494 0.000000
0.000000 1.324431 0.000000
0.000000 1.245984 0.000000
0.000000 1.173639 0.000000
0.000000 1.106920 0.000000
0.000000 1.045390 0.000000
0.000000 0.988645 0.000000
0.000000 0.936314 0.000000
0.000000 0.888053 0.000000
0.000000 0.843545 0.000000
0.000000 0.802499 0.000000
0.000000 0.764646 0.000000
0.000000 0.729736 0.000000
0.000000 0.697541 0.000000
0.000000 0.667851 0.000000
0.000000 0.640469 0.000000
0.000000 0.615217 0.000000
0.000000 0.591929 0.000000
0.000000 0.570453 0.000000
0.000000 0.550646 0.000000
0.000000 0.532380 0.000000
0.000000 0.515535 0.000000
0.000000 0.483768 0.000000
0.000000 0.461535 0.000000
0.000000 0.431083 0.000000
0.000000 0.389372 0.000000
0.000000 0.332241 0.000000
0.000000 0.253989 0.000000
0.000000 0.146807 0.000000
0.010563 0.510563 0.000000
0.021127 0.521127 0.000000
0.031690 0.531690 0.000000
0.042254 0.542254 0.000000
0.052817 0.552817 0.000000
0.063380 0.563380 0.000000
0.073944 0.573944 0.000000
0.084507 0.584507 0.000000
0.095070 0.595070 0.000000
0.105634 0.605634 0.000000
0.116197 0.616197 0.000000
0.126761 0.626761 0.000000
0.137324 0.637324 0.000000
0.147887 0.647887 0.000000
0.158451 0.658451 0.000000
0.169014 0.669014 0.000000
0.179577 0.679577 0.000000
0.190141 0.690141 0.000000
0.200704 0.700704 0.000000
0.211268 0.711268 0.000000
0.221831 0.721831 0.000000
0.232394 0.732394 0.000000
0.242958 0.742958 0.000000
0.253521 0.753521 0.000000
0.264085 0.764085 0.000000
0.274648 0.774648 0.000000
0.285211 0.785211 0.000000
0.295775 0.795775 0.000000
0.306338 0.806338 0.000000
0.316901 0.816901 0.000000
0.327465 0.827465 0.000000
0.338028 0.838028 0.000000
0.348592 0.848592 0.000000
0.359155 0.859155 0.000000
0.369718 0.869718 0.000000
0.380282 0.880282 0.000000
0.390845 0.890845 0.000000
0.401408 0.901408 0.000000
0.411972 0.911972 0.000000
0.422535 0.922535 0.000000
0.433099 0.933099 0.000000
0.443662 0.943662 0.000000
0.454225 0.954225 0.000000
0.464789 0.964789 0.000000
0.475352 0.975352 0.000000
0.485915 0.985915 0.000000
0.496479 0.996479 0.000000
0.507042 1.007042 0.000000
0.517606 1.017606 0.000000
0.528169 1.028169 0.000000
0.538732 1.038732 0.000000
0.549296 1.049296 0.000000
0.559859 1.059859 0.000000
0.570423 1.070423 0.000000
0.580986 1.080986 0.000000
0.591549 1.091549 0.000000
0.602113 1.102113 0.000000
0.612676 1.112676 0.000000
0.623239 1.123239 0.000000
0.633803 1.133803 0.000000
0.644366 1.144366 0.000000
0.654930 1.154930 0.000000
0.665493 1.165493 0.000000
0.676056 1.176056 0.000000
0.686620 1.186620 0.000000
0.697183 1.197183 0.000000
0.707746 1.207746 0.000000
0.718310 1.218310 0.000000
0.728873 1.228873 0.000000
0.739437 1.239437 0.000000
0.750000 1.250000 0.000000
0.760563 1.260563 0.000000
0.771127 1.271127 0.000000
0.781690 1.281690 0.000000
0.792254 1.292254 0.000000
0.802817 1.302817 0.000000
0.813380 1.313380 0.000000
0.823944 1.323944 0.000000
0.834507 1.334507 0.000000
0.845070 1.345070 0.000000
0.855634 1.355634 0.000000
0.866197 1.366197 0.000000
0.876761 1.376761 0.000000
0.887324 1.387324 0.000000
0.897887 1.397887 0.000000
0.908451 1.408451 0.000000
0.919014 1.419014 0.000000
0.929577 1.429577 0.000000
0.940141 1.440141 0.000000
0.950704 1.450704 0.000000
0.961268 1.461268 0.000000
0.971831 1.471831 0.000000
0.982394 1.482394 0.000000
0.992958 1.492958 0.000000
1.003521 1.503521 0.000000
1.014085 1.514085 0.000000
1.024648 1.524648 0.000000
1.035211 1.535211 0.000000
1.045775 1.545775 0.000000
1.056338 1.556338 0.000000
1.066901 1.566901 0.000000
1.077465 1.577465 0.000000
1.088028 1.588028 0.000000
1.098592 1.598592 0.000000
1.109155 1.609155 0.000000
1.119718 1.619718 0.000000
1.130282 1.630282 0.000000
1.140845 1.640845 0.000000
1.151408 1.651408 0.000000
1.161972 1.661972 0.000000
1.172535 1.672535 0.000000
1.183099 1.683099 0.000000
1.193662 1.693662 0.000000
1.204225 1.704225 0.000000
1.214789 1.714789 0.000000
1.225352 1.725352 0.000000
1.235915 1.735915 0.000000
1.246479 1.746479 0.000000
1.257042 1.757042 0.000000
1.267606 1.767606 0.000000
1.278169 1.778169 0.000000
1.288732 1.788732 0.000000
1.299296 1.799296 0.000000
1.309859 1.809859 0.000000
1.320423 1.820423 0.000000
1.330986 1.830986 0.000000
1.341549 1.841549 0.000000
1.352113 1.852113 0.000000
1.362676 1.862676 0.000000
1.373239 1.873239 0.000000
1.383803 1.883803 0.000000
1.394366 1.894366 0.000000
1.404930 1.904930 0.000000
1.415493 1.915493 0.000000
1.426056 1.926056 0.000000
1.436620 1.936620 0.000000
1.447183 1.947183 0.000000
1.457746 1.957746 0.000000
1.468310 1.968310 0.000000
1.478873 1.978873 0.000000
1.489437 1.989437 0.000000
1.510417 2.010417 0.000000
1.520833 2.020833 0.000000
1.531250 2.031250 0.000000
1.541667 2.041667 0.000000
1.552083 2.052083 0.000000
1.562500 2.062500 0.000000
1.572917 2.072917 0.000000
1.583333 2.083333 0.000000
1.593750 2.093750 0.000000
1.604167 2.104167 0.000000
1.614583 2.114583 0.000000
1.625000 2.125000 0.000000
1.635417 2.135417 0.000000
1.645833 2.145833 0.000000
1.656250 2.156250 0.000000
1.666667 2.166667 0.000000
1.677083 2.177083 0.000000
1.687500 2.187500 0.000000
1.697917 2.197917 0.000000
1.708333 2.208333 0.000000
1.718750 2.218750 0.000000
1.729167 2.229167 0.000000
1.739583 2.239583 0.000000
1.750000 2.250000 0.000000
1.760417 2.260417 0.000000
1.770833 2.270833 0.000000
1.781250 2.281250 0.000000
1.791667 2.291667 0.000000
1.802083 2.302083 0.000000
1.812500 2.312500 0.000000
1.822917 2.322917 0.000000
1.833333 2.333333 0.000000
1.843750 2.343750 0.000000
1.854167 2.354167 0.000000
1.864583 2.364583 0.000000
1.875000 2.375000 0.000000
1.885417 2.385417 0.000000
1.895833 2.395833 0.000000
1.906250 2.406250 0.000000
1.916667 2.416667 0.000000
1.927083 2.427083 0.000000
1.937500 2.437500 0.000000
1.947917 2.447917 0.000000
1.958333 2.458333 0.000000
1.968750 2.468750 0.000000
1.979167 2.479167 0.000000
1.989583 2.489583 0.000000
0.206561 0.791563 0.000000
0.205359 0.816165 0.000000
0.186354 0.798211 0.000000
0.221961 0.800924 0.000000
0.280649 1.360489 0.000000
0.304015 1.400469 0.000000
0.229142 1.396096 0.000000
0.275922 1.451476 0.000000
1.869084 2.391788 0.000000
1.857928 2.378421 0.000000
1.238669 2.061899 0.000000
1.278787 2.082276 0.000000
1.238298 2.096047 0.000000
1.277579 2.032995 0.000000
0.402536 1.205823 0.000000
0.415290 1.176040 0.000000
0.428330 1.201952 0.000000
0.387294 1.172617 0.000000
0.146930 1.050586 0.000000
0.109488 1.087198 0.000000
0.102742 1.042403 0.000000
0.157178 1.091184 0.000000
0.588967 1.178581 0.000000
0.593116 1.153718 0.000000
0.608054 1.166752 0.000000
0.612180 1.145944 0.000000
0.860304 1.543784 0.000000
0.868821 1.521840 0.000000
0.878420 1.536650 0.000000
0.845380 1.517623 0.000000
1.129525 1.764330 0.000000
1.142005 1.751560 0.000000
1.145757 1.773681 0.000000
1.159368 1.759106 0.000000
1.968150 2.518865 0.000000
1.986105 2.509269 0.000000
1.986696 2.531115 0.000000
0.668964 1.191005 0.000000
0.683291 1.201259 0.000000
0.557625 1.074830 0.000000
0.569760 1.084377 0.000000
0.557769 1.089278 0.000000
0.707567 1.266174 0.000000
0.719026 1.281845 0.000000
0.700768 1.282275 0.000000
0.722329 1.266956 0.000000
0.468225 2.149688 0.000000
0.419106 2.064198 0.000000
0.523878 2.082648 0.000000
0.838546 1.421191 0.000000
0.823708 1.410355 0.000000
0.840477 1.404206 0.000000
0.818500 1.425973 0.000000
0.953187 1.488222 0.000000
0.959780 1.473222 0.000000
0.967054 1.485637 0.000000
1.047418 1.769126 0.000000
1.080240 1.782403 0.000000
1.047768 1.802712 0.000000
0.971392 1.693320 0.000000
0.949208 1.720793 0.000000
0.940644 1.684781 0.000000
0.381391 2.160909 0.000000
0.944091 1.477800 0.000000
0.530075 1.477351 0.000000
0.521303 1.516669 0.000000
0.474240 1.491166 0.000000
0.489489 1.546185 0.000000
1.537370 2.239326 0.000000
1.555275 2.267640 0.000000
1.532966 2.278201 0.000000
0.962010 1.661716 0.000000
0.986804 1.643200 0.000000
0.986259 1.672729 0.000000
1.049149 1.737940 0.000000
1.075111 1.737123 0.000000
[...]
POINT_DATA 3011
SCALARS UX float 1
LOOKUP_TABLE default
-0.000000
0.000000
-0.042713
-0.163705
-0.071952
-0.013724
-0.012746
-0.000000
-0.000000
-0.000000
-0.000000
0.000000
0.000000
0.034432
0.050169
0.059291
0.064894
0.068285
0.070298
0.071333
0.071214
0.069803
0.067023
0.062641
0.057304
0.050834
0.044197
0.037290
0.030376
0.023631
0.017492
0.011824
0.006819
0.002482
-0.001233
-0.004386
-0.007049
-0.009286
-0.011171
-0.014326
-0.016110
-0.018151
-0.020237
-0.022588
-0.025097
-0.027468
-0.029982
-0.032375
-0.034453
-0.036503
-0.038338
-0.040039
-0.041445
-0.042303
-0.063268
-0.082895
-0.101362
-0.118766
-0.135533
-0.150030
-0.163304
-0.162577
-0.161015
-0.158593
-0.156383
-0.154734
-0.153714
-0.153223
-0.153265
-0.153714
-0.154551
-0.155507
-0.156573
-0.157687
-0.158765
-0.159737
-0.160570
-0.161252
-0.161781
-0.162164
-0.162325
-0.162297
-0.162092
-0.161759
-0.161357
-0.160958
-0.160648
-0.160437
-0.160146
-0.159721
-0.158813
-0.156016
-0.152629
-0.141487
-0.144426
-0.100631
-0.062639
-0.052344
-0.045823
-0.041701
-0.036530
-0.030102
-0.020634
-0.077791
-0.084121
-0.078194
-0.080044
-0.081065
-0.081181
-0.082508
-0.081960
-0.084345
-0.083634
-0.082943
-0.085285
-0.084762
-0.082205
-0.083862
-0.082314
-0.084002
-0.084761
-0.081850
-0.080817
-0.082730
-0.083663
-0.083290
-0.085561
-0.085071
-0.085473
-0.087907
-0.086056
-0.088503
-0.086947
-0.086909
-0.086355
-0.085524
-0.085067
-0.082887
-0.083408
-0.082404
-0.081684
-0.079278
-0.081520
-0.081043
-0.078804
-0.077800
-0.078394
-0.078482
-0.075242
-0.075744
-0.074475
-0.073773
-0.072136
-0.070576
-0.069702
-0.068973
-0.067175
-0.067851
-0.067219
-0.067115
-0.066478
-0.065197
-0.065494
-0.065160
-0.063672
-0.062432
-0.061118
-0.061699
-0.058725
-0.060438
-0.059215
-0.057749
-0.057803
-0.055573
-0.057932
-0.055978
-0.057671
-0.058752
-0.059588
-0.058591
-0.058848
-0.057794
-0.056879
-0.056314
-0.054276
-0.053821
-0.048578
-0.047648
-0.057129
-0.055957
-0.053576
-0.052076
-0.053033
-0.052231
-0.051905
-0.050666
-0.050568
-0.049041
-0.048623
-0.046249
-0.045283
-0.045077
-0.043112
-0.041744
-0.039723
-0.037589
-0.038800
-0.036527
-0.033997
-0.031939
-0.032235
-0.031494
-0.030351
-0.030495
-0.029736
-0.028961
-0.030704
-0.028573
-0.028340
-0.026538
-0.026271
-0.027779
-0.026166
-0.025991
-0.025739
-0.022381
-0.024351
-0.023932
-0.023387
-0.023831
-0.023421
-0.023362
-0.025390
-0.024814
-0.025122
-0.024634
-0.023989
-0.023780
-0.020115
-0.017848
-0.016988
-0.014858
-0.014015
-0.012531
-0.011084
-0.011676
-0.012041
-0.012185
-0.012408
-0.012498
-0.012682
-0.012564
-0.012327
-0.012245
-0.012199
-0.012180
-0.012137
-0.012115
-0.012089
-0.012074
-0.012036
-0.012040
-0.012016
-0.012019
-0.012020
-0.012031
-0.012044
-0.012102
-0.012139
-0.012204
-0.012262
-0.012355
-0.012441
-0.012550
-0.012662
-0.012776
-0.012906
-0.013014
-0.013140
-0.013253
-0.013353
-0.013445
-0.013505
-0.013563
-0.013588
-0.013589
-0.013561
-0.013490
-0.013366
-0.013216
-0.013005
-0.146984
-0.148960
-0.149784
-0.145744
-0.143405
-0.141396
-0.145788
-0.142201
-0.016168
-0.015810
-0.064115
-0.059789
-0.063689
-0.060935
-0.138875
-0.138482
-0.137438
-0.140133
-0.154510
-0.156242
-0.156896
-0.153642
-0.125737
-0.122486
-0.121522
-0.113141
-0.104638
-0.104372
-0.103478
-0.106113
-0.080877
-0.079921
-0.079160
-0.077846
-0.018373
-0.015359
-0.017283
-0.101196
-0.095523
-0.107072
-0.101361
-0.115288
-0.114267
-0.113791
-0.117194
-0.110780
-0.122266
-0.125780
-0.118667
-0.106383
-0.108009
-0.105489
-0.108829
-0.088298
-0.071847
-0.076306
-0.086883
-0.084208
-0.085889
-0.093883
-0.094645
-0.096078
-0.128041
-0.089020
-0.126603
-0.126312
-0.129685
-0.127663
-0.040103
-0.040146
-0.042877
-0.095204
-0.093797
-0.093339
-0.087598
-0.085759
-0.085735
-0.037354
-0.086661
-0.075617
-0.061454
-0.064194
-0.072937
-0.052720
-0.049264
-0.051289
-0.046038
-0.049831
-0.048494
-0.124044
-0.125010
-0.122617
-0.128890
-0.124849
-0.126514
-0.123614
-0.122711
-0.144804
-0.142916
-0.144580
-0.143728
-0.082656
-0.085985
-0.082068
-0.089043
-0.129944
-0.130452
-0.126023
-0.037012
-0.036317
-0.039563
-0.134594
-0.149464
-0.152540
-0.152052
-0.120577
-0.119274
-0.118287
-0.117194
-0.155254
-0.144243
-0.140669
-0.147720
-0.025600
-0.021526
-0.022445
-0.087879
-0.085605
-0.083462
-0.137165
-0.135811
-0.080219
-0.109929
-0.108905
-0.111805
-0.107837
-0.034943
-0.037726
-0.038530
-0.106145
-0.104916
-0.107009
-0.033182
-0.133625
-0.115815
-0.120820
-0.130271
-0.129736
-0.128276
-0.158705
-0.157946
-0.128267
-0.101310
-0.101947
-0.098471
-0.159120
-0.098834
-0.085133
-0.082615
-0.153205
-0.152030
-0.151105
-0.117976
-0.108860
-0.103479
-0.121791
-0.125477
-0.017823
-0.015873
-0.020352
-0.070962
-0.072666
-0.073950
-0.079806
-0.077584
-0.079897
-0.085364
-0.087933
-0.089292
-0.081574
-0.132816
-0.136637
-0.136064
-0.106901
-0.108442
-0.108106
-0.097155
-0.106879
-0.156560
-0.155504
-0.157564
-0.123745
-0.127540
-0.022677
-0.090852
-0.015724
-0.019245
-0.019312
-0.109249
-0.107220
-0.109127
-0.113479
-0.036253
-0.037471
-0.041159
-0.117722
-0.120686
-0.116428
-0.063535
-0.062457
-0.060385
-0.067233
-0.015749
-0.015180
-0.033647
-0.067208
-0.070163
-0.069983
-0.074368
-0.067793
-0.070157
-0.069909
-0.066764
-0.076890
-0.073969
-0.025450
-0.022755
-0.030660
-0.115623
-0.126909
-0.128372
-0.130079
-0.130166
-0.082611
-0.033158
-0.033865
-0.029603
-0.047963
-0.050104
-0.046144
-0.051338
-0.044579
-0.042328
-0.041151
-0.016053
-0.014803
-0.100224
-0.098389
-0.098203
-0.100565
-0.105027
-0.102181
-0.104183
-0.101681
-0.054630
-0.057388
-0.054377
-0.055408
-0.054276
-0.059715
-0.031544
-0.028227
-0.032196
-0.014958
-0.014910
-0.112528
-0.113010
-0.115106
-0.111084
-0.111970
-0.109868
-0.110232
-0.113998
-0.113266
-0.111237
-0.101466
-0.102864
-0.101317
-0.102812
-0.071449
-0.070747
-0.068532
-0.073284
-0.091191
-0.108219
-0.110231
-0.109554
-0.109674
-0.108039
-0.107348
-0.025530
-0.028877
-0.027566
-0.031089
-0.078441
-0.077203
-0.101973
-0.101419
-0.099431
-0.054005
-0.059464
-0.073129
-0.081318
-0.083722
-0.080665
-0.083199
-0.092559
-0.092988
-0.089609
-0.095010
-0.030073
-0.028956
-0.094680
-0.086918
-0.102237
-0.085143
-0.085798
-0.087395
-0.050143
-0.054261
-0.057268
-0.083058
-0.089377
-0.087633
-0.089922
-0.044608
-0.046341
-0.041082
-0.037406
-0.042095
-0.038630
-0.062695
-0.062524
-0.065178
-0.063913
-0.158183
-0.158870
-0.160413
-0.155628
-0.135961
-0.131151
-0.125575
-0.123013
-0.124123
-0.136710
-0.026214
-0.139523
-0.140022
-0.141708
-0.141819
-0.075744
-0.072500
-0.071256
-0.068134
-0.110159
-0.106581
-0.105298
-0.103036
-0.022225
-0.018849
-0.020543
-0.017110
-0.030966
-0.035591
-0.148451
-0.151568
-0.153306
-0.151677
-0.153975
-0.151081
-0.154257
-0.154995
-0.153690
-0.088610
-0.090490
-0.090181
-0.053160
-0.057203
-0.134025
-0.133558
-0.135645
-0.134724
-0.136688
-0.102786
-0.101207
-0.103813
-0.102286
-0.139288
-0.141158
-0.140988
-0.138207
-0.112104
-0.109247
-0.152650
-0.151557
-0.150585
-0.151579
-0.153331
-0.150799
-0.153024
-0.147955
-0.138839
-0.143739
-0.148773
-0.145678
-0.146890
-0.149494
-0.147348
-0.100380
-0.099089
-0.100416
-0.073448
-0.143309
-0.140118
-0.133998
-0.153560
-0.147247
-0.031257
-0.030932
-0.027981
-0.035556
-0.036176
-0.031528
-0.146023
-0.146580
-0.147667
-0.144345
-0.140448
-0.139686
-0.145049
-0.045074
-0.038715
-0.041483
-0.046649
-0.089583
-0.089158
-0.137335
-0.135676
-0.137594
-0.135496
-0.124007
-0.136071
-0.138882
-0.110055
-0.114187
-0.144887
-0.020429
-0.023932
-0.025146
-0.019289
-0.142292
-0.140762
-0.066405
-0.065201
-0.069379
-0.071684
-0.066554
-0.084020
-0.091846
-0.088341
-0.098888
-0.114711
-0.114185
-0.113399
-0.157211
-0.157587
-0.158862
-0.155708
-0.027673
-0.053808
-0.148191
-0.148719
-0.150452
-0.155358
-0.150084
-0.149749
-0.027224
-0.025681
-0.022958
-0.146672
-0.146941
-0.149726
-0.149694
-0.142747
-0.141039
-0.019075
-0.016491
-0.019726
-0.016203
-0.018000
-0.067298
-0.064732
-0.149599
-0.149665
-0.148151
-0.021005
-0.057203
-0.053814
-0.053773
-0.137386
-0.133759
-0.132063
-0.134720
-0.131710
-0.130256
-0.121329
-0.120145
-0.154889
-0.154139
-0.160064
-0.158439
-0.158299
-0.156992
-0.135966
-0.024631
-0.137180
-0.149457
-0.152546
-0.145627
-0.140367
-0.029514
-0.034378
-0.148159
-0.152165
-0.149198
-0.015371
-0.154435
-0.032858
-0.031477
-0.036034
-0.147682
-0.148739
-0.146010
-0.101238
-0.095124
-0.095968
-0.090172
-0.090547
-0.151847
-0.151446
-0.153513
-0.153857
-0.052428
-0.057275
-0.145286
-0.143249
-0.144494
-0.142632
-0.131172
-0.130385
-0.132989
-0.129805
-0.132660
-0.135246
-0.132387
-0.131562
-0.134992
-0.147321
-0.151853
-0.029764
-0.029432
-0.140723
-0.139385
-0.141797
-0.141629
-0.144148
-0.018009
-0.019418
-0.024223
-0.126032
-0.126726
-0.140240
-0.141843
-0.126202
-0.124227
-0.073691
-0.079115
-0.078046
-0.074364
-0.123498
-0.142377
-0.138427
-0.138622
-0.135447
-0.062901
-0.015791
-0.019240
-0.019198
-0.022688
-0.096478
-0.096899
-0.092370
-0.091837
-0.088128
-0.087958
-0.040916
-0.037025
-0.023583
-0.025924
-0.089565
-0.085973
-0.028416
-0.027140
-0.115272
-0.138746
-0.141945
-0.137640
-0.127125
-0.118208
-0.139266
-0.143074
-0.058733
-0.123891
-0.159254
-0.055808
-0.076954
-0.079542
-0.015313
-0.017320
-0.021991
-0.158549
-0.149458
-0.150136
-0.154078
-0.078715
-0.080058
-0.082332
-0.080696
-0.022784
-0.152725
-0.151970
-0.150305
-0.146120
-0.060519
-0.062077
-0.065184
-0.063339
-0.015629
-0.159136
-0.159429
-0.157774
-0.142601
-0.154891
-0.131025
-0.136366
-0.127506
-0.132458
-0.142249
-0.143523
-0.151542
-0.080222
-0.082836
-0.086970
-0.076050
-0.099405
-0.105399
-0.088282
-0.144925
-0.107453
-0.111040
-0.087181
-0.097192
-0.095042
-0.151883
-0.153478
-0.151014
-0.157481
-0.155592
-0.116072
-0.104457
-0.111141
-0.108955
-0.151921
-0.084326
-0.092882
-0.091927
-0.113461
-0.115588
-0.112192
-0.147032
-0.146693
-0.149584
-0.137006
-0.137137
-0.140757
-0.140885
-0.111213
-0.109073
-0.107964
-0.105582
-0.104656
-0.071516
-0.075680
-0.091638
-0.097379
-0.099307
-0.098159
-0.096143
-0.068172
-0.077692
-0.081026
-0.083350
-0.086205
-0.146916
-0.137575
-0.137685
-0.129696
-0.140317
-0.143657
-0.147600
-0.138785
-0.015610
-0.145293
-0.145861
-0.148043
-0.147232
-0.121478
-0.125234
-0.118631
-0.121710
-0.119179
-0.159646
-0.144996
-0.144421
-0.157332
-0.015382
-0.017215
-0.122952
-0.149211
-0.015519
-0.033663
-0.133261
-0.139451
-0.134197
-0.070447
-0.141354
-0.154613
-0.156632
-0.159731
-0.157018
-0.019710
-0.153536
-0.089642
-0.107258
-0.092600
-0.146518
-0.153907
-0.016562
-0.117104
-0.126086
-0.133897
-0.131105
-0.037425
-0.042183
-0.040510
-0.015881
-0.018520
-0.015299
-0.121365
-0.138475
-0.140835
-0.146176
-0.125910
-0.059798
-0.064369
-0.070431
-0.076688
-0.143438
-0.143493
-0.116927
-0.116821
-0.124562
-0.118928
-0.051316
-0.107314
-0.159842
-0.131587
-0.132834
-0.131764
-0.084500
-0.126628
-0.125067
-0.125010
-0.143974
-0.136568
-0.132724
-0.131464
-0.127077
-0.143122
-0.118596
-0.121205
-0.120083
-0.054437
-0.045413
-0.048504
-0.099547
-0.137285
-0.137987
-0.136020
-0.154815
-0.150993
-0.149704
-0.154104
-0.124676
-0.074374
-0.132115
-0.138901
-0.126945
-0.123912
-0.157015
-0.151242
-0.123583
-0.123525
-0.135182
-0.074440
-0.022829
-0.026916
-0.154889
-0.131116
-0.104989
-0.158379
-0.147119
-0.143724
-0.141951
-0.061417
-0.155438
-0.066724
-0.066550
-0.068600
-0.115416
-0.106728
-0.156548
-0.120436
-0.135226
-0.137528
-0.139603
-0.044775
-0.096326
-0.099119
-0.096249
-0.125485
-0.139567
-0.122939
-0.138832
-0.137708
-0.136413
-0.145306
-0.146435
-0.139801
-0.150566
-0.022271
-0.018264
-0.133755
-0.133536
-0.134982
-0.024631
-0.105731
-0.103994
-0.025860
-0.034478
-0.067945
-0.088631
-0.093562
-0.150792
-0.152760
-0.084036
-0.082738
-0.087254
-0.078045
-0.120152
-0.125714
-0.144341
-0.141149
-0.143352
-0.045025
-0.047399
-0.080964
-0.076835
-0.133041
-0.151783
-0.148559
-0.128471
-0.129710
-0.127782
-0.148812
-0.155520
-0.139208
-0.110801
-0.112946
-0.144961
-0.146322
-0.146378
-0.040609
-0.116093
-0.115975
-0.118959
-0.133488
-0.118302
-0.143380
-0.141695
-0.120755
-0.114966
-0.101893
-0.113218
-0.082277
-0.018313
-0.146720
-0.118949
-0.117512
-0.134986
-0.137810
-0.140746
-0.126752
-0.128289
-0.128266
-0.051137
-0.104006
-0.112640
-0.113236
-0.093059
-0.101671
-0.126776
-0.115328
-0.108819
-0.069533
-0.068792
-0.065725
-0.084043
-0.114233
-0.142980
-0.143148
-0.144687
-0.144754
-0.052143
-0.048896
-0.057970
-0.121524
-0.118943
-0.132297
-0.127943
-0.129191
-0.127492
-0.129706
-0.072890
-0.015645
-0.015426
-0.076792
-0.062317
-0.079347
-0.069750
-0.136512
-0.123126
-0.122752
-0.142401
-0.140418
-0.141181
-0.116697
-0.040428
-0.043689
-0.105867
-0.087474
-0.090006
-0.143244
-0.090763
-0.128727
-0.110344
-0.134537
-0.120457
-0.121405
-0.133344
-0.093102
-0.090897
-0.092708
-0.090740
-0.021390
-0.120530
-0.133085
-0.040910
-0.124934
-0.138291
-0.040711
-0.045581
-0.044896
-0.048990
-0.045279
-0.050530
-0.051508
-0.147742
-0.142938
-0.149625
-0.135264
-0.138424
-0.138805
-0.092639
-0.096733
-0.133645
-0.146041
-0.140223
-0.121476
-0.112777
-0.122170
-0.133398
-0.075409
-0.121520
-0.131909
-0.144184
-0.154083
-0.016235
-0.102232
-0.146051
-0.150477
-0.142810
-0.103017
-0.107130
-0.084121
-0.098942
-0.101742
-0.103801
-0.107374
-0.114614
-0.098899
-0.101438
-0.093726
-0.098815
-0.095179
-0.126440
-0.152088
-0.017236
-0.016042
-0.117418
-0.133888
-0.116338
-0.118020
-0.119612
-0.057913
-0.064263
-0.098341
-0.099698
-0.100337
-0.099320
-0.061064
-0.057858
-0.129775
-0.127748
-0.113534
-0.132741
-0.095477
-0.085303
-0.134563
-0.055233
-0.053937
-0.138559
-0.114814
-0.110106
-0.112525
-0.018010
-0.054170
-0.049875
-0.051108
-0.143229
-0.145195
-0.037512
-0.131971
-0.118023
-0.133449
-0.054280
-0.123705
-0.119244
-0.105352
-0.133311
-0.135793
-0.125843
-0.112933
-0.058636
-0.062955
-0.061200
-0.036541
-0.034343
-0.036997
-0.039356
-0.035494
-0.066277
-0.019872
-0.022273
-0.128336
-0.079580
-0.080781
-0.124502
-0.112072
-0.110819
-0.045307
-0.048189
-0.109763
-0.131496
-0.114331
-0.135104
-0.133117
-0.115466
-0.114534
-0.116500
-0.017712
-0.020329
-0.126073
-0.105544
-0.123085
-0.061463
-0.039563
-0.036859
-0.036484
-0.047975
-0.049905
-0.038270
-0.136612
-0.135664
-0.123848
-0.100456
-0.101266
-0.116120
-0.140039
-0.114235
-0.066778
-0.073996
-0.068950
-0.072748
-0.121023
-0.120331
-0.109208
-0.126651
-0.051017
-0.126695
-0.117465
-0.105410
-0.106427
-0.046543
-0.047183
-0.119258
-0.023756
-0.021255
-0.138370
-0.089592
-0.122089
-0.023499
-0.093354
-0.049660
-0.122040
-0.026108
-0.147073
-0.044475
-0.130575
-0.118041
-0.112307
-0.115384
-0.145403
-0.051644
-0.050397
-0.058382
-0.043457
-0.074953
-0.072366
-0.073478
-0.108712
-0.106069
-0.102484
-0.108184
-0.074217
-0.071297
-0.123011
-0.066915
-0.110880
-0.112206
-0.123376
-0.121592
-0.122562
-0.121757
-0.120759
-0.120049
-0.107806
-0.137970
-0.077384
-0.102070
-0.038880
-0.061820
-0.055407
-0.127240
-0.075137
-0.081940
-0.073069
-0.124742
-0.131396
-0.136326
-0.088146
-0.085306
-0.090449
-0.053921
-0.055808
-0.059904
-0.061571
-0.030497
-0.026652
-0.029516
-0.025698
-0.138151
-0.157839
-0.085732
-0.085593
-0.087205
-0.080453
-0.122084
-0.067750
-0.066012
-0.065561
-0.093186
-0.091870
-0.109178
-0.103831
-0.063612
-0.064646
-0.062384
-0.095894
-0.097336
-0.079774
-0.092485
-0.091794
-0.133238
-0.124609
-0.026237
-0.023354
-0.095958
-0.094015
-0.094340
-0.027471
-0.029648
-0.027137
-0.032245
-0.136674
-0.057531
-0.024850
-0.119160
-0.117751
-0.117447
-0.045662
-0.042531
-0.046547
-0.122101
-0.124184
-0.042943
-0.128903
-0.131870
-0.133607
-0.040106
-0.046827
-0.095525
-0.097382
-0.097733
-0.092600
-0.104862
-0.032258
-0.025875
-0.034236
-0.099157
-0.095765
-0.110616
-0.098808
-0.113413
-0.111971
-0.111002
-0.030273
-0.035018
-0.143435
-0.146731
-0.107933
-0.087070
-0.083388
-0.101734
-0.091261
-0.155959
-0.095646
-0.127765
-0.128273
-0.123620
-0.042121
-0.125983
-0.127786
-0.131323
-0.131462
-0.050789
-0.101194
-0.147516
-0.059126
-0.018431
-0.022255
-0.055186
-0.053500
-0.052443
-0.049391
-0.079298
-0.079999
-0.079897
-0.082535
-0.081758
-0.056849
-0.019300
-0.021460
-0.102162
-0.089193
-0.096127
-0.118660
-0.116078
-0.088789
-0.083794
-0.097335
-0.078559
-0.114074
-0.076017
-0.075822
-0.071704
-0.075796
-0.017459
-0.068495
-0.071586
-0.023234
-0.025729
-0.018935
-0.029778
-0.063624
-0.040952
-0.102454
-0.097550
-0.063977
-0.052610
-0.059819
-0.084798
-0.089916
-0.120657
-0.122839
-0.122933
-0.114343
-0.113913
-0.085790
-0.084841
-0.096292
-0.066830
-0.064462
-0.069995
-0.062532
-0.057323
-0.034033
-0.032670
-0.057560
-0.059273
-0.049881
-0.048585
-0.045411
-0.040590
-0.035159
-0.044342
-0.129258
-0.027722
-0.021774
-0.023034
-0.016703
-0.028092
-0.014502
-0.015006
-0.095809
-0.098218
-0.106326
-0.032342
-0.028246
-0.131256
-0.014452
-0.050204
-0.045611
-0.062668
-0.024812
-0.157949
-0.157153
-0.122228
-0.155462
-0.156212
-0.072898
-0.125816
-0.091965
-0.120363
-0.113360
-0.120161
-0.126389
-0.118944
-0.057068
-0.053168
-0.064872
-0.056873
-0.039839
-0.044885
-0.050902
-0.092608
-0.053128
-0.086822
-0.071743
-0.070968
-0.123614
-0.037858
-0.080382
-0.050048
-0.051288
-0.018172
-0.015448
-0.018056
-0.016792
-0.022719
-0.020316
-0.017318
-0.079600
-0.074634
-0.142199
-0.043109
-0.037916
-0.034652
-0.035144
-0.090061
-0.075002
-0.075066
-0.120805
-0.119737
-0.113180
-0.114642
-0.103149
-0.104187
-0.075746
-0.076605
-0.077960
-0.045868
-0.121353
-0.118275
-0.124507
-0.026346
-0.030034
-0.054388
-0.061507
-0.064346
-0.073694
-0.116396
-0.110731
-0.122269
-0.022032
-0.066882
-0.068732
-0.069376
-0.023257
-0.020832
-0.023785
-0.139656
-0.057337
-0.105337
-0.106836
-0.105674
-0.109442
-0.116274
-0.068170
-0.117558
-0.155222
-0.120156
-0.063426
-0.076258
-0.095016
-0.096175
-0.075169
-0.106527
-0.109825
-0.107289
-0.076377
-0.047676
-0.098909
-0.112218
-0.115497
-0.088649
-0.103581
-0.072969
-0.090169
-0.142810
-0.132677
-0.042692
-0.063143
-0.130899
-0.070230
-0.067199
-0.043752
-0.089654
-0.034127
-0.059290
-0.054889
-0.105569
-0.092163
-0.111509
-0.071461
-0.143908
-0.089213
-0.116528
-0.056980
-0.053976
-0.066955
-0.081619
-0.080520
-0.054012
-0.056921
-0.146162
-0.145909
-0.103985
-0.112513
-0.061024
-0.063349
-0.088073
-0.111545
-0.031844
-0.109938
-0.032220
-0.035338
-0.088477
-0.100356
-0.098628
-0.031963
-0.033439
-0.043325
-0.052360
-0.092627
-0.064465
-0.036218
-0.036312
-0.048592
-0.041677
-0.020589
-0.017767
-0.083957
-0.066482
-0.066950
-0.057404
-0.151931
-0.017753
-0.073370
-0.058650
-0.123952
-0.069781
-0.038443
-0.106354
-0.108931
-0.034359
-0.088109
-0.024461
-0.015870
-0.122085
-0.091909
-0.141387
-0.130093
-0.098572
-0.100721
-0.103554
-0.102968
-0.110808
-0.099208
-0.089123
-0.094154
-0.050602
-0.074622
-0.071707
-0.070584
-0.082253
-0.043831
-0.104347
-0.039500
-0.042585
-0.024992
-0.101401
-0.109121
-0.079426
-0.068969
-0.066756
-0.018785
-0.048403
-0.127977
-0.050260
-0.065850
-0.095924
-0.052433
-0.014849
-0.042244
-0.028551
-0.027903
-0.134603
-0.032334
-0.105962
-0.042300
-0.015776
-0.049109
-0.099006
-0.080388
-0.079612
-0.103248
-0.097062
-0.078306
-0.101884
-0.084040
-0.084802
-0.066802
-0.091667
-0.060527
-0.059857
-0.058202
-0.101615
-0.080889
-0.038773
-0.039128
-0.070656
-0.092945
-0.066640
-0.070528
-0.070380
-0.049228
-0.104145
-0.068327
-0.085417
-0.044776
-0.072946
-0.043963
-0.105627
-0.087987
-0.092780
-0.019098
-0.018925
-0.078305
-0.055404
-0.055650
-0.021746
-0.076247
-0.061645
-0.050533
-0.130415
-0.115780
-0.038800
-0.059788
-0.027225
-0.028437
-0.029695
-0.105443
-0.094444
-0.071722
-0.035101
-0.031956
-0.031895
-0.048310
-0.036043
-0.041890
-0.028207
-0.034104
-0.021679
0.043241
0.037807
0.042499
0.018563
0.015083
0.022394
0.035508
0.049333
-0.000553
-0.000988
-0.004118
0.032766
0.040616
0.042802
-0.019428
-0.023109
-0.018988
0.019574
0.021403
0.025580
0.014420
-0.022507
-0.036436
-0.032249
-0.021995
-0.020665
-0.019179
-0.015352
-0.015032
-0.018511
-0.023693
0.021138
0.017246
0.019261
0.017897
-0.018538
-0.011694
-0.021351
-0.023428
-0.021045
-0.006678
-0.003814
0.022466
0.019151
0.021415
0.019531
-0.028360
-0.026984
-0.030803
0.006900
0.006850
-0.000940
-0.004407
-0.006869