# vtk DataFile Version 2.0
Test
ASCII
DATASET POLYDATA
POINTS 3011 float
0.000000 0.000000 0.000000
2.000000 0.000000 0.000000
2.000000 4.000000 0.000000
0.000000 4.000000 0.000000
0.000000 0.500000 0.000000
1.500000 2.000000 0.000000
2.000000 2.500000 0.000000
0.285714 0.000000 0.000000
0.571429 0.000000 0.000000
0.857143 0.000000 0.000000
1.142857 0.000000 0.000000
1.428571 0.000000 0.000000
1.714286 0.000000 0.000000
2.000000 0.276366 0.000000
2.000000 0.523709 0.000000
2.000000 0.745076 0.000000
2.000000 0.943195 0.000000
2.000000 1.120508 0.000000
2.000000 1.279199 0.000000
2.000000 1.421225 0.000000
2.000000 1.548336 0.000000
2.000000 1.662097 0.000000
2.000000 1.763911 0.000000
2.000000 1.855033 0.000000
2.000000 1.936585 0.000000
2.000000 2.009573 0.000000
2.000000 2.074896 0.000000
2.000000 2.133358 0.000000
2.000000 2.185681 0.000000
2.000000 2.232509 0.000000
2.000000 2.274419 0.000000
2.000000 2.311927 0.000000
2.000000 2.345497 0.000000
2.000000 2.375541 0.000000
2.000000 2.402430 0.000000
2.000000 2.426495 0.000000
2.000000 2.448033 0.000000
2.000000 2.467309 0.000000
2.000000 2.484560 0.000000
2.000000 2.516256 0.000000
2.000000 2.535859 0.000000
2.000000 2.559499 0.000000
2.000000 2.588006 0.000000
2.000000 2.622383 0.000000
2.000000 2.663839 0.000000
2.000000 2.713831 0.000000
2.000000 2.774116 0.000000
2.000000 2.846815 0.000000
2.000000 2.934483 0.000000
2.000000 3.040202 0.000000
2.000000 3.167691 0.000000
2.000000 3.321430 0.000000
2.000000 3.506825 0.000000
2.000000 3.730395 0.000000
1.714286 4.000000 0.000000
1.428571 4.000000 0.000000
1.142857 4.000000 0.000000
0.857143 4.000000 0.000000
0.571429 4.000000 0.000000
0.285714 4.000000 0.000000
0.000000 3.713462 0.000000
0.000000 3.449209 0.000000
0.000000 3.205508 0.000000
0.000000 2.980761 0.000000
0.000000 2.773493 0.000000
0.000000 2.582346 0.000000
0.000000 2.406065 0.000000
0.000000 2.243495 0.000000
0.000000 2.093568 0.000000
0.000000 1.955302 0.000000
0.000000 1.827789 0.000000
0.000000 1.710194 0.000000
0.000000 1.601745 0.000000
0.000000 1.501730 0.000000
0.000000 1.409494 0.000000
0.000000 1.324431 0.000000
0.000000 1.245984 0.000000
0.000000 1.173639 0.000000
0.000000 1.106920 0.000000
0.000000 1.045390 0.000000
0.000000 0.988645 0.000000
0.000000 0.936314 0.000000
0.000000 0.888053 0.000000
0.000000 0.843545 0.000000
0.000000 0.802499 0.000000
0.000000 0.764646 0.000000
0.000000 0.729736 0.000000
0.000000 0.697541 0.000000
0.000000 0.667851 0.000000
0.000000 0.640469 0.000000
0.000000 0.615217 0.000000
0.000000 0.591929 0.000000
0.000000 0.570453 0.000000
0.000000 0.550646 0.000000
0.000000 0.532380 0.000000
0.000000 0.515535 0.000000
0.000000 0.483768 0.000000
0.000000 0.461535 0.000000
0.000000 0.431083 0.000000
0.000000 0.389372 0.000000
0.000000 0.332241 0.000000
0.000000 0.253989 0.000000
0.000000 0.146807 0.000000
0.010563 0.510563 0.000000
0.021127 0.521127 0.000000
0.031690 0.531690 0.000000
0.042254 0.542254 0.000000
0.052817 0.552817 0.000000
0.063380 0.563380 0.000000
0.073944 0.573944 0.000000
0.084507 0.584507 0.000000
0.095070 0.595070 0.000000
0.105634 0.605634 0.000000
0.116197 0.616197 0.000000
0.126761 0.626761 0.000000
0.137324 0.637324 0.000000
0.147887 0.647887 0.000000
0.158451 0.658451 0.000000
0.169014 0.669014 0.000000
0.179577 0.679577 0.000000
0.190141 0.690141 0.000000
0.200704 0.700704 0.000000
0.211268 0.711268 0.000000
0.221831 0.721831 0.000000
0.232394 0.732394 0.000000
0.242958 0.742958 0.000000
0.253521 0.753521 0.000000
0.264085 0.764085 0.000000
0.274648 0.774648 0.000000
0.285211 0.785211 0.000000
0.295775 0.795775 0.000000
0.306338 0.806338 0.000000
0.316901 0.816901 0.000000
0.327465 0.827465 0.000000
0.338028 0.838028 0.000000
0.348592 0.848592 0.000000
0.359155 0.859155 0.000000
0.369718 0.869718 0.000000
0.380282 0.880282 0.000000
0.390845 0.890845 0.000000
0.401408 0.901408 0.000000
0.411972 0.911972 0.000000
0.422535 0.922535 0.000000
0.433099 0.933099 0.000000
0.443662 0.943662 0.000000
0.454225 0.954225 0.000000
0.464789 0.964789 0.000000
0.475352 0.975352 0.000000
0.485915 0.985915 0.000000
0.496479 0.996479 0.000000
0.507042 1.007042 0.000000
0.517606 1.017606 0.000000
0.528169 1.028169 0.000000
0.538732 1.038732 0.000000
0.549296 1.049296 0.000000
0.559859 1.059859 0.000000
0.570423 1.070423 0.000000
0.580986 1.080986 0.000000
0.591549 1.091549 0.000000
0.602113 1.102113 0.000000
0.612676 1.112676 0.000000
0.623239 1.123239 0.000000
0.633803 1.133803 0.000000
0.644366 1.144366 0.000000
0.654930 1.154930 0.000000
0.665493 1.165493 0.000000
0.676056 1.176056 0.000000
0.686620 1.186620 0.000000
0.697183 1.197183 0.000000
0.707746 1.207746 0.000000
0.718310 1.218310 0.000000
0.728873 1.228873 0.000000
0.739437 1.239437 0.000000
0.750000 1.250000 0.000000
0.760563 1.260563 0.000000
0.771127 1.271127 0.000000
0.781690 1.281690 0.000000
0.792254 1.292254 0.000000
0.802817 1.302817 0.000000
0.813380 1.313380 0.000000
0.823944 1.323944 0.000000
0.834507 1.334507 0.000000
0.845070 1.345070 0.000000
0.855634 1.355634 0.000000
0.866197 1.366197 0.000000
0.876761 1.376761 0.000000
0.887324 1.387324 0.000000
0.897887 1.397887 0.000000
0.908451 1.408451 0.000000
0.919014 1.419014 0.000000
0.929577 1.429577 0.000000
0.940141 1.440141 0.000000
0.950704 1.450704 0.000000
0.961268 1.461268 0.000000
0.971831 1.471831 0.000000
0.982394 1.482394 0.000000
0.992958 1.492958 0.000000
1.003521 1.503521 0.000000
1.014085 1.514085 0.000000
1.024648 1.524648 0.000000
1.035211 1.535211 0.000000
1.045775 1.545775 0.000000
1.056338 1.556338 0.000000
1.066901 1.566901 0.000000
1.077465 1.577465 0.000000
1.088028 1.588028 0.000000
1.098592 1.598592 0.000000
1.109155 1.609155 0.000000
1.119718 1.619718 0.000000
1.130282 1.630282 0.000000
1.140845 1.640845 0.000000
1.151408 1.651408 0.000000
1.161972 1.661972 0.000000
1.172535 1.672535 0.000000
1.183099 1.683099 0.000000
1.193662 1.693662 0.000000
1.204225 1.704225 0.000000
1.214789 1.714789 0.000000
1.225352 1.725352 0.000000
1.235915 1.735915 0.000000
1.246479 1.746479 0.000000
1.257042 1.757042 0.000000
1.267606 1.767606 0.000000
1.278169 1.778169 0.000000
1.288732 1.788732 0.000000
1.299296 1.799296 0.000000
1.309859 1.809859 0.000000
1.320423 1.820423 0.000000
1.330986 1.830986 0.000000
1.341549 1.841549 0.000000
1.352113 1.852113 0.000000
1.362676 1.862676 0.000000
1.373239 1.873239 0.000000
1.383803 1.883803 0.000000
1.394366 1.894366 0.000000
1.404930 1.904930 0.000000
1.415493 1.915493 0.000000
1.426056 1.926056 0.000000
1.436620 1.936620 0.000000
1.447183 1.947183 0.000000
1.457746 1.957746 0.000000
1.468310 1.968310 0.000000
1.478873 1.978873 0.000000
1.489437 1.989437 0.000000
1.510417 2.010417 0.000000
1.520833 2.020833 0.000000
1.531250 2.031250 0.000000
1.541667 2.041667 0.000000
1.552083 2.052083 0.000000
1.562500 2.062500 0.000000
1.572917 2.072917 0.000000
1.583333 2.083333 0.000000
1.593750 2.093750 0.000000
1.604167 2.104167 0.000000
1.614583 2.114583 0.000000
1.625000 2.125000 0.000000
1.635417 2.135417 0.000000
1.645833 2.145833 0.000000
1.656250 2.156250 0.000000
1.666667 2.166667 0.000000
1.677083 2.177083 0.000000
1.687500 2.187500 0.000000
1.697917 2.197917 0.000000
1.708333 2.208333 0.000000
1.718750 2.218750 0.000000
1.729167 2.229167 0.000000
1.739583 2.239583 0.000000
1.750000 2.250000 0.000000
1.760417 2.260417 0.000000
1.770833 2.270833 0.000000
1.781250 2.281250 0.000000
1.791667 2.291667 0.000000
1.802083 2.302083 0.000000
1.812500 2.312500 0.000000
1.822917 2.322917 0.000000
1.833333 2.333333 0.000000
1.843750 2.343750 0.000000
1.854167 2.354167 0.000000
1.864583 2.364583 0.000000
1.875000 2.375000 0.000000
1.885417 2.385417 0.000000
1.895833 2.395833 0.000000
1.906250 2.406250 0.000000
1.916667 2.416667 0.000000
1.927083 2.427083 0.000000
1.937500 2.437500 0.000000
1.947917 2.447917 0.000000
1.958333 2.458333 0.000000
1.968750 2.468750 0.000000
1.979167 2.479167 0.000000
1.989583 2.489583 0.000000
0.206561 0.791563 0.000000
0.205359 0.816165 0.000000
0.186354 0.798211 0.000000
0.221961 0.800924 0.000000
0.280649 1.360489 0.000000
0.304015 1.400469 0.000000
0.229142 1.396096 0.000000
0.275922 1.451476 0.000000
1.869084 2.391788 0.000000
1.857928 2.378421 0.000000
1.238669 2.061899 0.000000
1.278787 2.082276 0.000000
1.238298 2.096047 0.000000
1.277579 2.032995 0.000000
0.402536 1.205823 0.000000
0.415290 1.176040 0.000000
0.428330 1.201952 0.000000
0.387294 1.172617 0.000000
0.146930 1.050586 0.000000
0.109488 1.087198 0.000000
0.102742 1.042403 0.000000
0.157178 1.091184 0.000000
0.588967 1.178581 0.000000
0.593116 1.153718 0.000000
0.608054 1.166752 0.000000
0.612180 1.145944 0.000000
0.860304 1.543784 0.000000
0.868821 1.521840 0.000000
0.878420 1.536650 0.000000
0.845380 1.517623 0.000000
1.129525 1.764330 0.000000
1.142005 1.751560 0.000000
1.145757 1.773681 0.000000
1.159368 1.759106 0.000000
1.968150 2.518865 0.000000
1.986105 2.509269 0.000000
1.986696 2.531115 0.000000
0.668964 1.191005 0.000000
0.683291 1.201259 0.000000
0.557625 1.074830 0.000000
0.569760 1.084377 0.000000
0.557769 1.089278 0.000000
0.707567 1.266174 0.000000
0.719026 1.281845 0.000000
0.700768 1.282275 0.000000
0.722329 1.266956 0.000000
0.468225 2.149688 0.000000
0.419106 2.064198 0.000000
0.523878 2.082648 0.000000
0.838546 1.421191 0.000000
0.823708 1.410355 0.000000
0.840477 1.404206 0.000000
0.818500 1.425973 0.000000
0.953187 1.488222 0.000000
0.959780 1.473222 0.000000
0.967054 1.485637 0.000000
1.047418 1.769126 0.000000
1.080240 1.782403 0.000000
1.047768 1.802712 0.000000
0.971392 1.693320 0.000000
0.949208 1.720793 0.000000
0.940644 1.684781 0.000000
0.381391 2.160909 0.000000
0.944091 1.477800 0.000000
0.530075 1.477351 0.000000
0.521303 1.516669 0.000000
0.474240 1.491166 0.000000
0.489489 1.546185 0.000000
1.537370 2.239326 0.000000
1.555275 2.267640 0.000000
1.532966 2.278201 0.000000
0.962010 1.661716 0.000000
0.986804 1.643200 0.000000
0.986259 1.672729 0.000000
1.049149 1.737940 0.000000
1.075111 1.737123 0.000000
[...]
POINT_DATA 3011
SCALARS UX float 1
LOOKUP_TABLE default
-0.000000
0.000000
-5.080801
-5.101540
0.412657
-2.263283
-4.543065
0.000000
-0.000000
0.000000
-0.000000
0.000000
-0.000000
0.021097
0.034889
0.049948
0.066235
0.083193
0.100819
0.115629
0.120507
0.106472
0.064796
-0.015648
-0.082104
-0.165693
-0.180378
-0.138508
-0.484224
-0.776291
-1.619955
-2.140624
-2.949199
-3.973832
-4.590803
-4.540589
-4.536656
-4.538408
-4.533830
-4.547268
-4.553124
-4.560599
-4.568626
-4.573987
-4.566030
-4.582820
-4.611560
-4.703491
-4.859039
-4.945166
-4.999307
-5.035305
-5.059576
-5.073646
-5.093818
-5.100117
-5.101650
-5.100451
-5.099529
-5.099968
-5.098876
-5.093045
-5.086335
-5.083008
-5.085776
-5.094397
-5.105916
-5.114793
-5.117577
-5.115468
-5.103398
-5.082748
-5.053838
-5.018539
-4.976283
-4.925695
-4.856473
-4.720126
-4.543110
-4.327978
-3.816977
-3.064738
-2.308111
-1.442877
-1.197963
-0.740906
-0.300244
-0.562287
-0.985344
-1.454030
-1.840935
-0.373706
0.981888
2.234935
0.895214
0.644220
0.197132
-0.012817
-0.006650
-0.006040
-0.005072
-0.004232
-0.002728
0.570109
0.727567
0.885178
1.968797
-0.626993
-0.268236
0.090556
-0.213880
-0.348670
0.608351
0.078457
-0.432664
-0.895250
-0.445625
-0.141288
-0.214496
-0.415255
-0.529391
-6.652606
-9.908917
-0.226604
5.380060
10.986736
4.876470
0.362654
0.309789
0.203164
0.102058
0.005092
-0.090606
-0.160444
-0.134421
-0.371156
-0.573798
-0.658902
-0.741270
-0.229506
-0.000060
-0.001602
-0.004469
-0.005606
-0.006464
-0.007917
-0.029859
-0.017325
0.002822
0.008344
0.012364
-0.010995
0.008497
0.008595
-0.033888
0.003385
0.003621
-0.067620
0.038207
-0.007593
-0.053075
-1.038505
-3.774493
-4.255259
-4.738129
-5.089835
-5.719361
-5.178015
-5.933107
-7.041931
-4.924224
-1.588049
-1.959268
3.879495
-1.529135
-1.449082
-1.369394
-1.889159
-2.916527
-3.215828
-3.518093
-5.034892
-3.196499
-0.302094
-4.571149
-1.824474
10.734369
-1.189598
-5.888209
-0.730843
-0.754154
-0.867378
-0.957420
-0.946521
-0.784945
-0.698435
-3.142835
-3.310527
-3.504006
-4.153862
-5.730192
-4.574059
-4.980454
-5.493366
-5.398255
-5.218685
-4.878043
-4.642145
-4.434383
-4.287735
-4.141107
-0.712311
-1.751885
-2.175899
-1.438066
-0.211573
0.105061
-1.970537
-1.862418
0.112246
-1.024005
-1.993578
-2.205652
-2.410048
-2.572007
-2.479872
-1.796251
-2.337635
-2.193480
-2.670109
-3.146585
-2.686867
-2.194973
-1.702911
-1.209420
-0.713839
-0.221780
0.049058
0.486155
0.918739
0.463560
-9.061716
-1.157989
-1.762324
-0.267173
1.580823
3.288583
6.672190
-3.441106
-17.709161
-8.063575
-1.394228
-1.243050
-0.797344
-1.190014
-1.286359
-1.477100
-1.911678
-2.182597
-2.596731
-2.269656
-2.414832
-2.570236
-2.005610
-2.748110
-2.957017
-2.869167
-3.203820
-3.629665
-3.757909
-3.734420
-2.734809
-1.735474
-0.736464
-9.818007
-6.964895
-5.677673
-4.390475
-4.766355
-4.530417
-4.454737
-4.634494
-4.636376
-4.651714
-4.668027
-4.665572
-4.639754
-4.550734
-4.545420
-4.543065
-4.541527
15.688859
-0.550617
16.128065
-0.012637
-4.951192
-4.969552
-4.971200
-4.998127
-4.440733
-4.715195
-5.197923
-5.269897
-5.243949
-5.048758
-4.740705
-4.627800
-4.730386
-4.586342
-4.367372
-4.505870
-4.331090
-4.521213
-4.702723
-3.543890
-4.297415
-2.817452
-5.192232
-4.756600
-5.140916
-4.496925
-4.915238
-4.865673
-5.094670
-4.290288
-4.548519
-4.545713
-4.551494
-6.422599
-6.360963
-0.219455
-0.291901
-0.767509
-5.924862
3.430775
-8.774488
-3.811706
-5.115938
-5.116586
-5.114575
-6.152049
-5.926461
-5.594100
-6.281238
-0.652292
-0.795813
-0.676370
-5.041169
-5.002480
-5.063367
-5.043122
-5.040151
-5.058805
-5.116561
-0.746662
-5.016699
-5.055926
-5.020962
-5.062911
-5.442505
-12.157603
-4.834081
-4.983396
-4.614505
-4.809391
-4.562255
-4.531134
-4.912139
-11.569905
-4.143557
-3.765198
-2.879668
-2.445328
-4.002688
-5.428370
-5.424156
-5.084953
-5.029263
-5.053461
-5.060486
-4.989037
-4.935342
-4.939525
-5.076121
-5.075339
-5.080719
-3.968123
-5.082467
-4.785784
-4.768603
-4.753555
-4.526850
-5.124714
-5.131935
-5.136474
-5.122262
-5.097361
-5.083322
-5.090587
-39.333541
-17.120867
-22.683050
-5.091363
-4.798408
-4.827025
-4.725356
-4.942214
-4.331084
-4.715206
-3.963469
-4.769664
-5.101245
-5.111728
-5.110498
-4.645633
-4.643484
-4.588644
-5.123484
-5.116354
-5.125993
-4.805683
-4.753406
-5.117732
-5.044019
-5.059231
-5.065028
-5.027604
-52.811915
7.917826
-58.971452
-5.182228
-5.223457
-5.233068
-4.381229
-0.648191
-0.457452
-0.596121
-4.867128
-4.809398
-4.850214
-4.687229
-4.832046
-4.781430
-5.070966
-5.059467
-5.061823
-4.527932
-5.066022
-5.078195
-5.076232
-4.225700
-4.405124
-4.371050
-1.399111
-0.502752
-0.017875
-2.197853
-2.217031
2.651121
-1.586034
-0.919828
-5.070620
-5.082741
-5.073543
-5.003368
-5.022832
-5.022930
-5.359175
-5.097994
-6.415516
-5.050903
-0.179345
-0.566551
-0.372191
-4.968345
-5.336011
-7.243948
-5.060454
-2.725259
-1.566894
-2.300577
-2.281706
-2.126177
-2.965607
-4.784235
-6.351225
-4.366359
-3.930242
-4.552029
-6.658570
-6.656547
-7.244277
-11.879481
-4.575444
-4.828278
-4.855267
-9.751781
-8.990034
-10.510188
-5.026908
-5.147321
-5.039823
-5.048868
-2.780823
-2.281029
-12.977567
-5.053482
-5.102027
-5.059015
-5.176338
-5.396643
-5.332249
-5.024670
-5.045257
-5.047543
-5.070364
-1.108277
1.193612
2.326279
-1.693476
-3.981457
-4.715155
-4.699568
-4.758890
-5.169594
-4.757410
-4.548667
-4.331722
-4.902979
-4.892350
-4.852132
-4.928324
-4.822047
-4.801953
-4.758851
-1.962761
-2.201448
-5.478960
-5.188882
-1.192860
-4.969469
-6.587048
-6.579291
-4.112088
-2.919981
-5.304567
-5.147442
-4.226947
-2.737798
-1.529197
-2.184591
9.190483
-1.065387
-6.920738
-3.017813
-3.123129
-4.429374
-6.159836
-7.072898
-4.902248
-5.355152
-5.222706
-7.168209
-33.395636
-3.367786
-3.712037
-2.055214
-1.752702
-1.327749
-4.881296
-4.048421
-3.940629
-4.012732
-3.937133
-5.128849
-3.978770
-4.765014
-5.015968
-4.791554
-5.053341
-3.383358
-2.443949
-25.581233
-0.803397
-8.213889
-4.994818
-4.975173
-5.242593
-5.651611
-5.086024
-4.327183
-4.142625
-4.171146
-3.799370
-3.870549
-3.867945
-4.092266
-3.040643
-4.475196
-6.610897
-1.350257
1.542860
-7.560255
-1.176681
-1.878726
-2.146802
-4.128441
-3.802663
-3.820370
-5.872589
-5.625180
-5.318348
-3.939523
-3.815153
-4.075182
-4.301554
-5.074015
-4.814051
-12.363601
5.714070
-17.828457
2.604468
-2.747858
-2.868098
-3.146769
-4.364050
-4.186141
-4.355554
-4.160332
-4.246218
-0.725340
-0.244336
-0.125679
-5.074834
-5.081806
-5.081261
7.861836
-4.123221
-4.239673
-4.151022
-4.283307
-5.113819
-5.107674
-5.126651
-5.126485
-5.097681
-5.090927
-5.098097
-5.089679
-2.705348
-2.867299
-3.788411
-3.150219
-19.896150
-78.467477
-5.054486
-5.069339
-5.043537
-0.261998
-0.295632
-0.423215
-0.078884
-3.365646
-4.157814
-3.926499
-4.660078
-5.455248
-1.937362
-2.861510
-4.516801
-4.723459
-4.542284
-4.745159
-4.673886
-5.991323
-5.081160
-5.081291
-5.073324
-1.019614
-1.620700
-0.725853
-0.009999
-4.925269
-4.861088
-2.373350
-2.516755
-3.191826
-4.133417
-2.919412
-0.686111
-0.873240
-2.117647
-1.281762
-0.671715
-1.455521
0.190135
-1.493870
-2.277385
-2.169229
-5.095019
-5.087944
-5.079905
-5.094040
-5.098174
-5.093968
-5.096924
-5.098064
-5.090636
-4.578884
-4.558076
-4.571385
-4.585296
-4.538746
-4.545305
-4.222256
-4.372539
-4.634429
-5.059605
-5.048994
-5.077543
-5.081855
-4.743728
-4.611162
-4.714866
-4.825992
-4.929540
-5.052056
-2.696163
-2.533448
-4.213233
-3.291416
-0.826719
-0.889915
1.209554
0.581854
-0.158231
0.364895
-4.619684
-4.584174
-4.604070
-4.686547
-4.183518
-4.047730
-4.998495
-4.971935
-4.985060
-5.015820
-4.974679
-5.050839
-5.064290
-5.041573
-5.058959
-5.046871
-5.055999
-4.895121
-0.693416
-0.393304
-0.636467
-0.578581
-4.579485
-5.082513
2.922262
-0.985526
1.092598
-0.781720
0.381877
-3.944177
-4.733187
-4.151041
-4.862953
-1.838534
31.559741
29.287999
-5.094597
17.443377
21.633964
-4.550100
-4.549771
-4.550749
-4.550565
-4.549018
-5.177399
-5.049061
-4.481503
-4.539312
-4.572151
-4.556386
-5.012556
-5.069061
-4.977358
-4.519012
-4.906335
-4.892159
-4.898977
-4.931936
-5.051621
-4.410975
-3.772057
-4.920584
-4.972087
-1.722872
-1.226162
-1.823113
-1.237549
-4.369208
-9.974743
-4.309445
-1.620222
-1.725977
0.013483
0.040690
-4.573963
-4.609884
-0.998951
-1.243093
-0.657588
-4.547941
-1.367864
-4.528527
-4.546698
-4.547501
-3.594796
-2.927442
-2.504680
-5.089601
-5.102438
-5.075791
-5.088036
-5.063943
13.958652
-0.097148
-1.312089
-0.938284
-5.474967
-5.413376
-0.859559
-1.995147
-1.551537
-1.810941
-4.732556
-4.949063
-4.903913
-4.992464
-4.976874
-5.015196
-5.006337
-5.040062
-5.036832
0.248782
-0.556528
-4.644428
-4.569388
-4.751833
-4.810262
-4.703669
-4.909845
-4.859528
2.104357
4.127400
4.324972
-4.021010
-4.917485
-4.357022
-4.477324
-4.586477
-4.019270
-5.124982
-5.110945
-5.132065
-5.139913
-0.088574
-3.598049
-0.011977
1.166100
-0.700497
-2.254922
-5.637991
-6.568009
-4.203516
-3.895660
-5.100921
-5.092171
-5.092154
-5.101807
-5.099860
-5.092298
-4.662239
-4.557164
-4.569567
-4.561457
-5.085427
-5.087105
-4.567806
-4.571935
-0.042964
-4.416818
-4.603200
-0.170504
0.028879
-0.035998
-0.082278
-0.352157
-5.350610
1.033392
-0.484699
-5.560087
-5.101761
-5.108203
-4.628924
-4.550475
-4.550498
-0.325873
-4.977559
-5.006794
-5.011257
-5.088162
-5.096114
-5.088180
-5.081576
-3.662504
-3.439806
-2.544094
-2.035056
-4.935613
-5.263259
-5.293302
-5.248336
-5.250157
-5.912962
-0.895435
-0.536608
-0.496726
0.145372
-1.117123
-5.100457
-5.110034
-5.109157
-5.090173
-5.101038
0.045276
-1.286915
-5.014205
-5.024194
-5.031236
-5.006147
-5.109174
-5.104850
-5.067949
-0.904290
-5.087783
-0.334282
-5.075523
-5.123690
-5.123784
-1.893377
-1.793996
-1.461552
-0.855043
-0.933758
-5.067779
-5.057859
-5.070651
-5.060589
-0.643599
-3.457172
-5.235064
-4.911915
-5.065491
-5.064663
-5.057407
-4.784323
-4.753774
-4.705200
0.016858
-0.005600
0.091908
-0.001720
-5.078051
-5.066112
-5.077506
-5.059940
-5.076409
-5.067683
-5.062159
-4.183941
-4.992900
-4.590806
-4.611234
-5.259691
-5.142736
-5.026614
-5.064516
-5.035489
-5.065110
-5.080177
-5.078858
-5.077394
-5.074292
-0.373090
-0.663206
-0.355185
-4.324824
-4.547537
-4.108057
-4.436913
-4.670312
-4.560577
-5.092616
-5.103456
-5.085381
-5.025368
-5.078216
-3.463171
-4.347036
-3.507308
-3.639819
-6.062268
0.742264
-5.097690
-3.920180
-2.440457
-4.589550
-5.114448
-5.116151
-5.118605
-5.178300
-5.119252
-1.511777
-4.639615
-0.887337
-0.809813
-4.909474
-1.985356
-5.100385
-5.098902
-5.097401
-0.517789
-0.503564
-4.145010
-0.186951
-0.276937
-0.763402
-0.463638
-4.822191
-5.019039
-4.636505
-3.958653
-4.748097
-4.744482
-0.168661
-1.200154
7.944422
-1.485294
-1.011444
-5.077932
-5.089905
-5.085168
-5.091259
-4.438153
-3.996384
-5.120433
-4.666783
-5.114371
-5.109931
-4.972107
-5.056321
-2.555237
-4.809473
-4.772730
-4.737248
-5.100446
-4.624725
-5.101387
-3.619719
-5.118508
-5.118725
-5.109257
-5.117033
-5.112647
-5.087311
-5.084268
-5.078401
-5.077480
-5.055131
-5.015476
-5.051540
-5.092690
-4.914323
-4.862527
-4.875780
-4.874310
-4.900069
-1.880717
-0.672879
-5.068715
-4.997605
-5.119057
-5.120556
-4.981950
-5.022157
-2.964245
-4.592316
-3.455853
-3.230733
-4.310667
-5.145077
-4.554643
-4.554979
-2.555402
-5.079337
-5.084196
-2.871501
-4.898668
-4.921873
11.422179
-5.315920
-1.003931
-3.397058
-2.685520
-3.697995
-5.067875
-5.060375
-2.466199
-5.069377
-4.895203
-4.936011
-4.927838
-4.865587
-5.084846
-5.071467
-5.076551
-0.165804
-0.995745
-5.084408
-2.361344
-1.827467
-2.122100
-5.112574
-5.117465
-2.020338
-1.803949
-3.289976
-3.220139
-2.269448
-1.932956
-2.100296
-3.241807
-5.068836
-5.055710
-4.001826
-4.512958
-3.958381
-5.108927
-5.110652
-1.485105
-1.035511
-5.082543
-5.076637
-5.092924
-5.097755
-5.112208
-5.115299
-0.337162
-0.840940
-0.074967
-4.925639
-4.943377
-5.102025
-5.094305
-5.063748
-4.946243
-4.940841
-4.871463
-4.607875
-4.550092
-5.081752
-0.588875
-5.097936
-5.053972
-5.073924
0.186491
-0.241793
0.289905
-4.626651
-5.078489
-5.070856
-5.077005
-0.382802
-0.290110
-4.057136
-2.797135
-5.109287
-5.105852
-5.073756
-5.082548
-5.083350
-4.502048
-5.119985
-5.098566
-5.090864
-4.819526
-4.968937
-4.942472
-5.030144
-5.030270
-4.647302
-5.070486
-5.068785
-5.071916
-5.083959
-5.082074
-5.103841
-0.740221
-0.322714
-0.139363
-5.188457
-5.191953
-5.244270
-5.107251
-5.084853
-1.796467
-0.814282
-3.064737
-0.985797
-2.622480
-2.589692
-2.562710
-5.075472
-5.070591
-0.146211
-4.947088
-4.885527
-4.878484
-4.954978
-5.165829
-4.637458
-4.639235
-5.146355
-3.204156
-5.129684
-5.160618
25.248510
10.016413
10.664861
-0.210337
-0.011037
-0.380154
-5.115902
-4.878976
-4.808374
-5.125631
-5.080289
-5.072860
0.123708
-5.078431
-0.586619
-0.403315
8.480315
-1.278717
4.879119
-4.852364
-5.065443
-5.068026
-5.070085
-5.063221
-4.550246
0.343351
20.090466
-4.882771
0.162221
0.015693
-4.609421
-4.745436
-4.737965
-4.829583
-4.798381
-4.914107
-4.865213
-1.243586
-1.137940
-1.597512
-4.990488
-4.997036
-5.023098
-5.120277
-5.117464
-4.826172
-5.004376
-1.515082
-5.097370
-5.100578
-6.794867
1.436530
-5.088206
-5.080441
-4.879295
-0.433847
-4.616670
-4.638109
-5.120343
-5.031858
-5.030971
-5.019256
-5.072262
-5.080847
-5.096432
-5.111548
-5.119431
-5.112135
-5.116589
-5.098772
-5.049168
-5.052631
-5.042605
-5.053346
-5.047704
-5.092909
-5.086475
-1.407992
-1.784871
-0.598075
-3.220972
-5.059086
-5.065582
-5.072665
-5.040102
-5.070292
-5.062157
-5.062797
-5.073006
-5.077283
-1.902275
-1.835846
0.051280
-0.331053
-0.382805
14.191327
-5.068424
-5.078148
-1.289891
-4.973564
-4.986353
-0.967704
-5.110957
-5.107393
-5.114621
-4.576256
-4.922880
-4.859253
-4.917020
-4.103956
-4.502472
-4.694424
-4.666250
-3.519076
-3.876319
-4.941822
-0.054733
-0.006527
-0.006390
-0.008536
-5.071972
-4.920757
-0.000218
-4.956169
-4.974958
-4.951267
-122.977304
-47.236808
6.237954
-44.561399
-9.274300
-5.227821
-1.658110
-1.488166
-0.003943
-5.030611
-5.018889
-0.715775
-0.004371
0.014245
-4.806510
-5.092568
-5.089821
-2.783702
-5.092205
-4.963849
-4.816125
-2.622351
-5.100308
-4.758844
-4.617816
-4.599853
-4.831986
-5.106615
-5.072384
-4.994688
-4.647970
-3.940075
-4.501309
-5.014582
-4.842276
-4.664594
-5.049384
0.250894
0.274556
-6.123541
-5.057148
-3.426989
1.690283
-5.795675
-4.987611
-5.001931
-4.988878
-5.003881
-0.975759
-0.664830
0.003656
-1.771592
-5.035732
-0.278088
-0.133961
-0.012485
-5.118446
-5.795488
-5.896816
3.041587
-2.188865
-2.411767
-0.009931
-5.115437
0.746305
-0.838381
-5.074594
-5.646880
-0.635434
-2.066079
-0.351050
-7.759651
-4.893804
-0.571436
-6.912057
-4.682362
-0.100547
-4.981992
-5.013012
-4.997515
-4.951912
-4.342156
-3.804105
-4.114985
-2.950896
-0.000817
-2.872899
-3.578769
-3.973897
-3.956265
-0.097977
-2.902881
-5.114076
-5.117070
-10.517687
-4.672333
-3.650532
-3.145487
-2.914883
-3.134583
-5.111786
0.128349
-5.081051
-2.467083
-4.841529
-1.472259
-2.050473
-5.074128
-4.130613
-5.820197
1.637398
-0.696699
-0.535334
-0.781316
-4.574812
-4.404957
-4.799410
-5.033416
-4.965410
-4.996373
-4.970700
-6.097811
-4.117832
-11.042565
1.423015
-0.371234
-4.888830
-3.760848
-3.867749
-3.738523
-4.992102
-5.071056
-5.087177
-4.470331
-4.778185
-5.052858
-5.023866
-7.878479
-8.725588
-4.593454
-4.842010
-4.624354
-1.905821
1.586724
-5.071606
-4.608385
-4.614226
-0.008655
-0.006389
-2.993832
-2.506874
-4.600515
-4.598510
-4.605736
-5.096444
-2.911334
-13.208664
-14.736172
-0.009286
-5.069752
-1.409108
-3.024899
-2.616307
-3.420105
-3.891080
-6.601038
-6.157638
-3.652938
-0.141717
-9.569178
-0.891079
-1.386036
-1.456693
9.281742
-5.639008
-4.944044
-4.811575
-1.984895
-1.819057
-2.090654
4.861902
-0.451761
-17.695900
-2.011479
-0.876332
-1.713157
-1.420184
-5.896624
-5.926204
-6.395202
1.554557
-4.827661
-0.022787
-0.002220
-4.910820
-4.388189
-4.709932
-5.009120
-5.400582
-0.410696
-5.060797
-2.568479
-1.623176
-1.661344
-5.109225
-4.801318
-1.343997
-2.197377
-1.838992
-2.604211
-4.554534
-2.431263
-2.683212
-2.131534
4.269202
0.688192
0.972336
1.825665
1.308413
-4.107525
-4.736756
-4.778174
-4.787367
-4.854417
-0.400674
-2.916336
-10.501712
-3.352222
-2.866517
-3.502885
-2.970282
-2.711776
-5.595127
-6.046172
-6.416715
-4.001010
-4.343284
-3.808225
-4.077168
-2.788516
-4.132523
-2.932767
-4.641304
-4.382316
-5.609353
-2.863219
-6.681024
-2.811147
-5.055179
-9.520345
-1.917367
-2.529854
-2.627350
-2.588267
-2.794525
-7.097891
-5.151052
-5.269640
-4.227590
-3.843882
-6.176903
-6.689503
-0.731560
-0.728564
-0.980699
-4.080198
-4.055645
-4.173821
-4.004257
-3.329594
-7.694684
-7.463404
-5.000508
-4.971384
4.099678
2.968260
9.497798
0.813077
1.260082
1.591561
-2.690636
-0.133141
-6.205957
3.850136
-1.195784
-6.318540
-2.483105
-2.642251
-1.871713
-4.329549
-5.000188
-4.255354
-4.076313
-0.246838
-2.863350
-5.012381
-4.988266
-4.990251
-4.031779
-1.186375
-1.594563
2.300490
-1.515019
-0.236802
-5.097259
-5.090873
-4.854101
-4.820364
-5.751927
-5.233143
0.353138
-3.185311
-4.925521
-4.907356
-5.092381
-5.088739
-1.147885
-0.463799
-0.767519
-2.893235
0.213121
-7.792347
-4.195974
-6.184894
-4.850248
-4.500522
-5.623246
-4.715345
-5.258133
-4.433496
-3.881023
-11.943068
-11.556946
-1.193014
-1.285076
-1.060945
-4.025023
-3.970788
0.134351
-2.946718
-17.173244
-13.705256
-4.591933
-0.903809
-0.896643
-0.914984
-3.384160
-8.650236
-5.628846
-5.538854
-5.487869
-5.667378
-5.042530
-5.068592
-5.045125
-5.367330
-4.262671
-5.926632
-4.411906
-4.374557
-4.053117
-5.130643
-5.058828
-5.061283
-5.051482
-6.047250
-5.084387
-3.393390
-3.802536
-5.014628
-5.058610
-5.055406
-4.260054
-4.528135
-4.934407
-4.877688
-4.922529
-0.004850
-5.378605
-5.150421
-5.309844
-0.740083
-1.814649
-5.115724
-1.231508
-4.542449
-3.966096
-3.829410
-5.055382
-4.639720
-5.014480
-4.740776
-5.971698
-5.695850
-4.997894
-6.251525
-5.370929
-2.578714
-2.377596
-4.020522
-4.171040
-5.032901
-3.666857
-0.935664
-0.529777
-5.135963
-1.257854
-1.469535
-4.713377
-4.637341
-2.601302
-5.035284
-4.252363
-4.960646
-4.918079
-0.020186
-5.082341
-6.975461
-4.989655
26.841299
-7.278672
-6.877420
-3.746809
-3.292645
-3.854414
-4.394322
-4.187103
1.546895
-4.281076
-2.580262
-0.744737
-5.085078
-5.092008
-2.749528
-4.921954
-5.053818
-5.483468
-14.706386
-5.632239
-2.928883
-3.640684
-5.044706
-0.072656
-1.128415
-4.264431
-2.107577
-2.079332
-1.370032
-5.043462
-5.006645
-8.493833
-11.148247
0.454132
0.473453
-4.380431
-4.027944
-5.068556
-4.987953
-4.993326
-1.311634
-1.909241
-5.239706
-5.020398
-1.967103
-4.945289
-2.845619
2.199448
-0.007070
-0.034167
21.148227
-5.033271
-7.969639
-0.533588
-7.163878
-4.598404
-0.709168
-0.779751
-0.850154
-0.985520
-1.252285
-8.633949
-0.002709
-5.905107
-2.327105
-0.734260
-1.131405
-4.515934
-5.059643
-5.044292
-4.947313
-4.898473
-3.710104
-7.246538
-6.161235
-15.729316
-0.005790
-10.398792
-2.391672
-4.221078
-4.336737
-2.532426
-4.843536
-1.282452
-2.339746
-3.739019
-1.176089
-5.596772
-3.884466
-13.601563
6.366832
3.384161
-5.087598
-2.991007
-6.941118
-1.547388
-3.579162
-3.218686
-4.793603
-8.034614
1.487385
-5.732827
-5.823242
-5.845761
-5.893305
-4.875586
-5.254499
-5.060075
-4.518469
-3.731105
-4.608849
-0.484747
-1.670693
-4.753203
-0.107778
-10.850924
-3.583669
-5.077177
-2.772051
-3.850411
-4.428853
-3.437179
-2.341129
-5.173875
-4.795211
-27.429568
-4.530425
-3.705413
-1.769578
-3.773978
-4.602880
-2.595705
6.241058
-5.012943
-1.148089
-0.613897
3.294069
-4.430872
-3.869700
-5.703333
-3.141553
-2.902227
15.424061
-5.054450
4.445060
-1.809059
-3.186062
-2.961482
-1.175790
-4.491271
0.307850
0.061760
0.284024
-0.307594
0.360781
-0.434488
-4.462500
-4.343908
-3.756214
-0.072410
-0.077721
-0.065667
-2.571554
-2.828680
-3.647493
-0.103977
-0.050233
-0.001728
-0.001070
-0.003287
0.038271
0.038921
0.048210
0.003309
0.003285
0.003111
-0.015089
-0.055658
-0.057567
0.141963
0.003643
0.026017
-0.011081
0.003129
0.002972
0.003025
0.001351
0.004896
0.002124
0.003051
-0.079463
-0.320877
0.058755
-0.596323
0.003199
0.003501
-0.001111
-0.005139
-0.001170
-0.002904
-0.000131
0.059577
0.057072
0.052991
0.060235
-0.002297
-0.001799
-0.001878
-1.000135
-0.823054
-2.173443
0.033791
0.161704
-0.724322
-2.976857
0.119308
0.102377
-0.004165
0.000428
-0.000889
-0.005106