# vtk DataFile Version 2.0
Test
ASCII
DATASET POLYDATA
POINTS 3011 float
0.000000 0.000000 0.000000
2.000000 0.000000 0.000000
2.000000 4.000000 0.000000
0.000000 4.000000 0.000000
0.000000 0.500000 0.000000
1.500000 2.000000 0.000000
2.000000 2.500000 0.000000
0.285714 0.000000 0.000000
0.571429 0.000000 0.000000
0.857143 0.000000 0.000000
1.142857 0.000000 0.000000
1.428571 0.000000 0.000000
1.714286 0.000000 0.000000
2.000000 0.276366 0.000000
2.000000 0.523709 0.000000
2.000000 0.745076 0.000000
2.000000 0.943195 0.000000
2.000000 1.120508 0.000000
2.000000 1.279199 0.000000
2.000000 1.421225 0.000000
2.000000 1.548336 0.000000
2.000000 1.662097 0.000000
2.000000 1.763911 0.000000
2.000000 1.855033 0.000000
2.000000 1.936585 0.000000
2.000000 2.009573 0.000000
2.000000 2.074896 0.000000
2.000000 2.133358 0.000000
2.000000 2.185681 0.000000
2.000000 2.232509 0.000000
2.000000 2.274419 0.000000
2.000000 2.311927 0.000000
2.000000 2.345497 0.000000
2.000000 2.375541 0.000000
2.000000 2.402430 0.000000
2.000000 2.426495 0.000000
2.000000 2.448033 0.000000
2.000000 2.467309 0.000000
2.000000 2.484560 0.000000
2.000000 2.516256 0.000000
2.000000 2.535859 0.000000
2.000000 2.559499 0.000000
2.000000 2.588006 0.000000
2.000000 2.622383 0.000000
2.000000 2.663839 0.000000
2.000000 2.713831 0.000000
2.000000 2.774116 0.000000
2.000000 2.846815 0.000000
2.000000 2.934483 0.000000
2.000000 3.040202 0.000000
2.000000 3.167691 0.000000
2.000000 3.321430 0.000000
2.000000 3.506825 0.000000
2.000000 3.730395 0.000000
1.714286 4.000000 0.000000
1.428571 4.000000 0.000000
1.142857 4.000000 0.000000
0.857143 4.000000 0.000000
0.571429 4.000000 0.000000
0.285714 4.000000 0.000000
0.000000 3.713462 0.000000
0.000000 3.449209 0.000000
0.000000 3.205508 0.000000
0.000000 2.980761 0.000000
0.000000 2.773493 0.000000
0.000000 2.582346 0.000000
0.000000 2.406065 0.000000
0.000000 2.243495 0.000000
0.000000 2.093568 0.000000
0.000000 1.955302 0.000000
0.000000 1.827789 0.000000
0.000000 1.710194 0.000000
0.000000 1.601745 0.000000
0.000000 1.501730 0.000000
0.000000 1.409494 0.000000
0.000000 1.324431 0.000000
0.000000 1.245984 0.000000
0.000000 1.173639 0.000000
0.000000 1.106920 0.000000
0.000000 1.045390 0.000000
0.000000 0.988645 0.000000
0.000000 0.936314 0.000000
0.000000 0.888053 0.000000
0.000000 0.843545 0.000000
0.000000 0.802499 0.000000
0.000000 0.764646 0.000000
0.000000 0.729736 0.000000
0.000000 0.697541 0.000000
0.000000 0.667851 0.000000
0.000000 0.640469 0.000000
0.000000 0.615217 0.000000
0.000000 0.591929 0.000000
0.000000 0.570453 0.000000
0.000000 0.550646 0.000000
0.000000 0.532380 0.000000
0.000000 0.515535 0.000000
0.000000 0.483768 0.000000
0.000000 0.461535 0.000000
0.000000 0.431083 0.000000
0.000000 0.389372 0.000000
0.000000 0.332241 0.000000
0.000000 0.253989 0.000000
0.000000 0.146807 0.000000
0.010563 0.510563 0.000000
0.021127 0.521127 0.000000
0.031690 0.531690 0.000000
0.042254 0.542254 0.000000
0.052817 0.552817 0.000000
0.063380 0.563380 0.000000
0.073944 0.573944 0.000000
0.084507 0.584507 0.000000
0.095070 0.595070 0.000000
0.105634 0.605634 0.000000
0.116197 0.616197 0.000000
0.126761 0.626761 0.000000
0.137324 0.637324 0.000000
0.147887 0.647887 0.000000
0.158451 0.658451 0.000000
0.169014 0.669014 0.000000
0.179577 0.679577 0.000000
0.190141 0.690141 0.000000
0.200704 0.700704 0.000000
0.211268 0.711268 0.000000
0.221831 0.721831 0.000000
0.232394 0.732394 0.000000
0.242958 0.742958 0.000000
0.253521 0.753521 0.000000
0.264085 0.764085 0.000000
0.274648 0.774648 0.000000
0.285211 0.785211 0.000000
0.295775 0.795775 0.000000
0.306338 0.806338 0.000000
0.316901 0.816901 0.000000
0.327465 0.827465 0.000000
0.338028 0.838028 0.000000
0.348592 0.848592 0.000000
0.359155 0.859155 0.000000
0.369718 0.869718 0.000000
0.380282 0.880282 0.000000
0.390845 0.890845 0.000000
0.401408 0.901408 0.000000
0.411972 0.911972 0.000000
0.422535 0.922535 0.000000
0.433099 0.933099 0.000000
0.443662 0.943662 0.000000
0.454225 0.954225 0.000000
0.464789 0.964789 0.000000
0.475352 0.975352 0.000000
0.485915 0.985915 0.000000
0.496479 0.996479 0.000000
0.507042 1.007042 0.000000
0.517606 1.017606 0.000000
0.528169 1.028169 0.000000
0.538732 1.038732 0.000000
0.549296 1.049296 0.000000
0.559859 1.059859 0.000000
0.570423 1.070423 0.000000
0.580986 1.080986 0.000000
0.591549 1.091549 0.000000
0.602113 1.102113 0.000000
0.612676 1.112676 0.000000
0.623239 1.123239 0.000000
0.633803 1.133803 0.000000
0.644366 1.144366 0.000000
0.654930 1.154930 0.000000
0.665493 1.165493 0.000000
0.676056 1.176056 0.000000
0.686620 1.186620 0.000000
0.697183 1.197183 0.000000
0.707746 1.207746 0.000000
0.718310 1.218310 0.000000
0.728873 1.228873 0.000000
0.739437 1.239437 0.000000
0.750000 1.250000 0.000000
0.760563 1.260563 0.000000
0.771127 1.271127 0.000000
0.781690 1.281690 0.000000
0.792254 1.292254 0.000000
0.802817 1.302817 0.000000
0.813380 1.313380 0.000000
0.823944 1.323944 0.000000
0.834507 1.334507 0.000000
0.845070 1.345070 0.000000
0.855634 1.355634 0.000000
0.866197 1.366197 0.000000
0.876761 1.376761 0.000000
0.887324 1.387324 0.000000
0.897887 1.397887 0.000000
0.908451 1.408451 0.000000
0.919014 1.419014 0.000000
0.929577 1.429577 0.000000
0.940141 1.440141 0.000000
0.950704 1.450704 0.000000
0.961268 1.461268 0.000000
0.971831 1.471831 0.000000
0.982394 1.482394 0.000000
0.992958 1.492958 0.000000
1.003521 1.503521 0.000000
1.014085 1.514085 0.000000
1.024648 1.524648 0.000000
1.035211 1.535211 0.000000
1.045775 1.545775 0.000000
1.056338 1.556338 0.000000
1.066901 1.566901 0.000000
1.077465 1.577465 0.000000
1.088028 1.588028 0.000000
1.098592 1.598592 0.000000
1.109155 1.609155 0.000000
1.119718 1.619718 0.000000
1.130282 1.630282 0.000000
1.140845 1.640845 0.000000
1.151408 1.651408 0.000000
1.161972 1.661972 0.000000
1.172535 1.672535 0.000000
1.183099 1.683099 0.000000
1.193662 1.693662 0.000000
1.204225 1.704225 0.000000
1.214789 1.714789 0.000000
1.225352 1.725352 0.000000
1.235915 1.735915 0.000000
1.246479 1.746479 0.000000
1.257042 1.757042 0.000000
1.267606 1.767606 0.000000
1.278169 1.778169 0.000000
1.288732 1.788732 0.000000
1.299296 1.799296 0.000000
1.309859 1.809859 0.000000
1.320423 1.820423 0.000000
1.330986 1.830986 0.000000
1.341549 1.841549 0.000000
1.352113 1.852113 0.000000
1.362676 1.862676 0.000000
1.373239 1.873239 0.000000
1.383803 1.883803 0.000000
1.394366 1.894366 0.000000
1.404930 1.904930 0.000000
1.415493 1.915493 0.000000
1.426056 1.926056 0.000000
1.436620 1.936620 0.000000
1.447183 1.947183 0.000000
1.457746 1.957746 0.000000
1.468310 1.968310 0.000000
1.478873 1.978873 0.000000
1.489437 1.989437 0.000000
1.510417 2.010417 0.000000
1.520833 2.020833 0.000000
1.531250 2.031250 0.000000
1.541667 2.041667 0.000000
1.552083 2.052083 0.000000
1.562500 2.062500 0.000000
1.572917 2.072917 0.000000
1.583333 2.083333 0.000000
1.593750 2.093750 0.000000
1.604167 2.104167 0.000000
1.614583 2.114583 0.000000
1.625000 2.125000 0.000000
1.635417 2.135417 0.000000
1.645833 2.145833 0.000000
1.656250 2.156250 0.000000
1.666667 2.166667 0.000000
1.677083 2.177083 0.000000
1.687500 2.187500 0.000000
1.697917 2.197917 0.000000
1.708333 2.208333 0.000000
1.718750 2.218750 0.000000
1.729167 2.229167 0.000000
1.739583 2.239583 0.000000
1.750000 2.250000 0.000000
1.760417 2.260417 0.000000
1.770833 2.270833 0.000000
1.781250 2.281250 0.000000
1.791667 2.291667 0.000000
1.802083 2.302083 0.000000
1.812500 2.312500 0.000000
1.822917 2.322917 0.000000
1.833333 2.333333 0.000000
1.843750 2.343750 0.000000
1.854167 2.354167 0.000000
1.864583 2.364583 0.000000
1.875000 2.375000 0.000000
1.885417 2.385417 0.000000
1.895833 2.395833 0.000000
1.906250 2.406250 0.000000
1.916667 2.416667 0.000000
1.927083 2.427083 0.000000
1.937500 2.437500 0.000000
1.947917 2.447917 0.000000
1.958333 2.458333 0.000000
1.968750 2.468750 0.000000
1.979167 2.479167 0.000000
1.989583 2.489583 0.000000
0.206561 0.791563 0.000000
0.205359 0.816165 0.000000
0.186354 0.798211 0.000000
0.221961 0.800924 0.000000
0.280649 1.360489 0.000000
0.304015 1.400469 0.000000
0.229142 1.396096 0.000000
0.275922 1.451476 0.000000
1.869084 2.391788 0.000000
1.857928 2.378421 0.000000
1.238669 2.061899 0.000000
1.278787 2.082276 0.000000
1.238298 2.096047 0.000000
1.277579 2.032995 0.000000
0.402536 1.205823 0.000000
0.415290 1.176040 0.000000
0.428330 1.201952 0.000000
0.387294 1.172617 0.000000
0.146930 1.050586 0.000000
0.109488 1.087198 0.000000
0.102742 1.042403 0.000000
0.157178 1.091184 0.000000
0.588967 1.178581 0.000000
0.593116 1.153718 0.000000
0.608054 1.166752 0.000000
0.612180 1.145944 0.000000
0.860304 1.543784 0.000000
0.868821 1.521840 0.000000
0.878420 1.536650 0.000000
0.845380 1.517623 0.000000
1.129525 1.764330 0.000000
1.142005 1.751560 0.000000
1.145757 1.773681 0.000000
1.159368 1.759106 0.000000
1.968150 2.518865 0.000000
1.986105 2.509269 0.000000
1.986696 2.531115 0.000000
0.668964 1.191005 0.000000
0.683291 1.201259 0.000000
0.557625 1.074830 0.000000
0.569760 1.084377 0.000000
0.557769 1.089278 0.000000
0.707567 1.266174 0.000000
0.719026 1.281845 0.000000
0.700768 1.282275 0.000000
0.722329 1.266956 0.000000
0.468225 2.149688 0.000000
0.419106 2.064198 0.000000
0.523878 2.082648 0.000000
0.838546 1.421191 0.000000
0.823708 1.410355 0.000000
0.840477 1.404206 0.000000
0.818500 1.425973 0.000000
0.953187 1.488222 0.000000
0.959780 1.473222 0.000000
0.967054 1.485637 0.000000
1.047418 1.769126 0.000000
1.080240 1.782403 0.000000
1.047768 1.802712 0.000000
0.971392 1.693320 0.000000
0.949208 1.720793 0.000000
0.940644 1.684781 0.000000
0.381391 2.160909 0.000000
0.944091 1.477800 0.000000
0.530075 1.477351 0.000000
0.521303 1.516669 0.000000
0.474240 1.491166 0.000000
0.489489 1.546185 0.000000
1.537370 2.239326 0.000000
1.555275 2.267640 0.000000
1.532966 2.278201 0.000000
0.962010 1.661716 0.000000
0.986804 1.643200 0.000000
0.986259 1.672729 0.000000
1.049149 1.737940 0.000000
1.075111 1.737123 0.000000
[...]
POINT_DATA 3011
SCALARS UX float 1
LOOKUP_TABLE default
-0.000000
0.000000
-0.188889
-0.192299
-0.029773
-0.184968
-0.042675
-0.000000
-0.000000
-0.000000
-0.000000
0.000000
-0.000000
0.001072
0.001547
0.001813
0.002165
0.003103
0.004849
0.007719
0.011426
0.015833
0.020649
0.026367
0.031457
0.037090
0.042313
0.046416
0.050135
0.052801
0.055106
0.055625
0.054330
0.050102
0.036760
0.012245
-0.007484
-0.024795
-0.004944
-0.096880
-0.157230
-0.189428
-0.190874
-0.191279
-0.191668
-0.191893
-0.191942
-0.191870
-0.191675
-0.191342
-0.190849
-0.190269
-0.189653
-0.189140
-0.189282
-0.189565
-0.189726
-0.189852
-0.190220
-0.191089
-0.192496
-0.192646
-0.193168
-0.194131
-0.195799
-0.198757
-0.203381
-0.209601
-0.217468
-0.226262
-0.234697
-0.241476
-0.246319
-0.249268
-0.250702
-0.251177
-0.250950
-0.250496
-0.250067
-0.249907
-0.249880
-0.249708
-0.249447
-0.249237
-0.250094
-0.254314
-0.265718
-0.501029
-0.348604
-0.257530
-0.194823
-0.116138
-0.013524
0.084608
-0.048797
-0.096258
-0.006638
-0.005799
-0.005773
-0.004778
-0.003579
-0.002579
-0.001673
-0.061332
-0.125461
-0.020622
0.057655
-0.006150
-0.006380
0.004905
-0.092829
-0.058008
-0.012333
-0.013948
-0.025994
-0.021900
-0.016945
-0.008261
-0.008162
-0.008162
-0.007771
-0.007254
-0.074551
-0.068641
-0.084069
-0.110212
-0.128284
0.001307
-0.016541
0.001723
-0.041729
-0.035367
-0.027683
-0.027659
-0.004678
-0.001928
-0.004692
-0.007841
0.006600
-0.046418
-0.046434
-0.046518
-0.062267
-0.052554
-0.047696
-0.057225
-0.178559
-0.153509
0.033174
0.013268
-0.210636
-0.151324
-0.088211
-0.070739
-0.174730
-0.178023
-0.173600
-0.172781
-0.123537
-0.120115
-0.151274
-0.170174
-0.143762
-0.143902
-0.196126
-0.147535
-0.130899
-0.116996
-0.111133
-0.111550
-0.091627
-0.132223
-0.164041
-0.157013
-0.110552
-0.144649
-0.165795
-0.093459
-0.164274
0.028096
-0.106399
-0.124029
-0.130193
-0.115342
-0.112770
-0.105546
0.315447
0.360073
0.313298
0.243666
0.242381
2.500600
-0.327330
0.031618
0.040734
0.080608
0.113052
0.095826
0.579880
0.161990
0.064158
-0.079599
0.020830
0.157197
0.226328
-0.380481
-0.377551
-0.615863
0.066172
0.014878
0.258562
0.494380
0.573196
1.048727
1.513164
0.807082
2.383731
3.110150
-6.562851
9.136534
0.255231
0.754228
0.139065
0.155630
-0.110853
-0.055391
-0.130637
0.007609
0.010874
0.025661
0.014427
-0.003766
-0.016198
-0.143433
-0.179807
-0.179323
-0.177846
-0.366573
-0.116109
-0.377458
-0.803416
-0.250498
-0.180830
-0.182735
-0.151119
-0.178753
-0.159632
-0.154178
-0.193975
-0.197415
-0.180007
-0.147639
-0.219267
-0.223463
-0.206196
-0.214043
-0.180491
-0.189278
-0.183743
-0.172545
-0.084339
-0.112503
-0.136398
-0.161965
-0.122564
-0.015448
0.028390
0.029361
0.011614
-0.005600
-0.036646
-0.009633
0.016418
0.022849
0.042062
0.043105
-0.081866
-0.049033
-0.040706
-0.076986
-0.174268
-0.184860
-0.197841
-0.113017
-0.109408
-0.115751
-0.165944
-0.157265
-0.145028
-0.126986
-0.061051
-0.352670
-0.244100
-0.237364
-0.266987
-0.251892
-0.252124
-0.251648
-0.251582
-0.181141
-0.168420
-0.198975
-0.198308
-0.199317
-0.196113
-0.249635
-0.248999
-0.249418
-0.249103
-0.248744
-0.249157
-0.249190
-0.248545
-0.219434
-0.209158
-0.195270
-0.197051
-0.294066
-0.294876
-0.295459
-0.287429
-0.429227
-0.662908
-0.339278
-0.502610
-0.190658
-0.120516
-0.189410
-0.162617
-0.146479
-0.182236
-0.180167
-0.194248
-0.188296
-0.186705
-0.196651
-0.154848
-0.206858
-0.213735
-0.209286
-0.301805
-0.252758
-0.240223
-0.268438
-0.005186
-0.021821
0.019665
-0.272858
-0.278192
-0.244014
-0.277004
-0.265202
-0.272708
-0.208403
-0.059441
-0.256368
-0.256476
-0.255137
-0.255376
-0.192898
-0.193437
-0.194135
-0.282535
-0.294301
-0.286754
-0.308059
-0.332455
-0.298629
-0.192864
-0.352244
-0.345897
0.164559
0.563653
-0.400345
-0.197735
-0.195970
-0.197045
-0.194486
-0.196228
-0.195647
-0.256641
-0.255394
-0.256418
-0.253252
-0.255050
-0.251233
-0.254970
-0.251006
-0.249436
-0.249611
-0.249960
-0.248980
-0.194982
-0.193316
-0.194387
-0.193761
-0.241069
-0.248205
-0.245634
-0.190567
-0.191073
-0.191871
-0.243009
-0.250525
-0.250627
-0.249826
-0.257420
-0.257156
-0.258248
-0.257796
-0.250236
-0.238164
-0.233267
-0.233226
-0.193206
-0.191191
-0.208082
-0.191785
-0.190189
-0.192559
-0.250167
-0.249554
-0.191370
-0.272263
-0.268504
-0.267013
-0.275705
-0.185266
-0.189254
-0.186828
-0.288393
-0.284989
-0.283329
-0.186816
-0.185309
-0.020347
-0.007524
-0.254691
-0.249759
-0.258184
-0.250118
-0.250754
-0.241083
-0.239027
-0.248449
-0.242616
-0.249656
-0.253058
-0.204814
-0.188906
-0.248439
-0.248069
-0.248190
-0.198390
-0.188514
-0.162029
-0.212578
-0.213644
-0.162618
-0.190860
-0.204262
-0.190519
-0.188248
-0.181383
-0.126016
-0.103964
-0.136920
0.196333
-0.324839
-0.281663
-0.220035
-0.245941
-0.249135
-0.269413
-0.271063
-0.271146
-0.271366
-0.262188
-0.269787
-0.248894
-0.249809
-0.249123
-0.210602
-0.230418
-0.193633
-0.311505
-0.052944
-0.183435
-0.186564
-0.271100
-0.270835
-0.160508
-0.194082
-0.194356
-0.194162
-0.194620
-0.225631
-0.222083
-0.170320
-0.199060
-0.199658
-0.199049
-0.199011
-0.113454
-0.129116
-0.190782
-0.198129
-0.195578
-0.195648
0.043964
0.172483
0.282565
-0.193511
-0.192768
-0.193064
-0.192084
-0.182572
-0.181890
-0.178566
-0.195220
-0.229269
-0.237021
-0.246596
-0.246260
-0.179078
-0.193889
-0.193986
-0.193797
-0.195656
-0.196098
-0.195312
-0.196142
-0.194823
-0.194532
-0.194021
-0.199477
-0.170917
-0.313406
-0.299531
-0.308871
-0.281408
-0.386121
-0.395269
-0.285023
-0.175246
-0.195519
-0.195150
-0.191543
-0.037794
-0.051327
-0.081681
-0.177042
-0.181859
-0.182293
-0.050068
-0.135178
-0.271031
-0.259595
-0.256979
-0.269473
-0.267106
-0.270577
-0.270968
-0.257089
-0.185187
-0.286647
-0.290632
-0.317152
-0.296034
-0.295527
-0.075959
-0.029929
0.051822
-0.105941
-0.192699
-0.353616
-0.249750
-0.276747
-0.274069
-0.280931
-0.269662
-0.191704
-0.191986
-0.191647
-0.191831
-0.048127
-0.064243
-0.294866
-0.295731
-0.301230
-0.723824
-0.576749
-0.893735
-0.551812
-0.539609
-0.656244
-0.448284
0.260790
-0.490369
0.170798
-0.305004
-0.148180
-0.199869
-0.156816
-0.127437
-0.162730
-0.398322
-0.402154
-0.351496
-0.196377
-0.198420
-0.199337
-0.528410
-0.321049
-0.322174
-0.306650
-0.194296
-0.195119
-0.170476
-0.173919
-0.173536
-0.174900
-0.065735
-0.118058
-0.111272
-0.153539
-0.249402
-0.249493
-0.249663
-0.249002
-0.222726
-0.205488
-0.162415
-0.191093
-0.190735
-0.191126
-0.179328
-0.248294
-0.247867
-0.248695
-0.248468
-0.192990
-0.194108
-0.196614
-0.197895
-0.218775
-0.219534
-0.210480
-0.214722
-0.189638
-0.184904
-0.187283
-0.173477
-0.183504
-0.182364
-0.247347
-0.244954
-0.247999
-0.218164
-0.262159
-0.129386
-0.258083
-0.249306
-0.248979
-0.330790
-0.300159
-0.312644
-0.181944
-0.189378
-0.247601
-0.248326
-0.248310
-0.248977
-0.249029
-0.286627
-0.276769
-0.276770
-0.266538
-0.241768
-0.242166
-0.244612
-0.250627
-0.269504
-0.272061
-0.248059
-0.245816
-0.246014
-0.247810
-0.249062
-0.057278
-0.096731
-0.189707
-0.021695
0.004959
-0.237768
-0.236936
-0.222700
-0.236661
-0.231238
-0.205849
-0.209921
-0.221032
-0.189461
-0.190667
-0.190689
-0.190312
-0.191453
-0.191314
-0.192176
-0.192351
-0.191801
-0.192579
-0.192592
-0.192702
-0.246624
-0.246903
-0.247234
-0.247154
-0.249062
-0.245373
-0.243585
-0.192910
-0.192610
-0.192590
-0.192791
-0.299448
-0.277470
-0.249967
-0.246812
-0.246012
-0.245718
-0.006962
-0.107921
-0.001459
-0.005058
-0.005008
-0.057070
-0.225429
-0.172315
-0.192217
-0.196971
-0.246452
-0.247389
-0.198671
-0.198402
-0.198095
-0.198091
-0.197832
-0.192955
-0.192139
-0.193347
-0.192188
-0.265299
-0.266526
-0.266106
-0.391972
-0.488622
-0.426447
-0.234186
-0.191801
-0.189671
-0.246632
-0.247235
-0.247619
-0.135364
-0.058363
-0.248099
-0.193605
-0.192937
-0.193496
-0.188998
-0.215260
-0.222846
-0.239711
-0.181942
-0.191701
-0.178138
-0.214141
-0.184611
-0.217477
-0.193616
-0.198739
-0.198358
-0.247799
-0.247710
-0.247321
-0.187289
-0.198377
-0.197700
-0.197335
-0.248619
-0.252031
-0.252493
-0.252244
-0.252389
-0.252353
-0.256017
-0.255195
-0.251329
-0.251203
-0.248661
-0.248017
-0.248541
-0.247533
-0.246241
-0.182744
-0.247402
-0.195699
-0.176450
-0.153995
-0.170857
-0.192035
-0.192282
-0.139841
-0.220390
-0.154454
-0.175308
-0.238404
-0.192565
-0.192090
-0.192553
-0.244740
-0.242177
-0.245535
-0.193327
-0.193434
-0.193600
-0.194157
-0.194345
-0.239845
-0.247545
-0.248986
-0.241915
-0.196331
-0.198766
-0.246852
-0.246145
-0.241630
-0.243472
-0.253155
-0.254040
-0.253266
-0.254874
-0.253883
-0.253091
-0.254190
-0.254034
-0.252349
-0.140376
-0.121111
-0.193418
-0.192800
-0.249737
-0.250248
-0.250364
-0.251500
-0.250968
-0.181400
-0.180614
-0.180574
-0.254163
-0.254684
-0.248047
-0.248603
-0.253212
-0.253410
-0.197720
-0.196230
-0.196076
-0.197335
-0.131130
-0.246968
-0.245255
-0.243757
-0.244749
-0.176020
-0.147855
-0.184688
-0.189660
-0.191905
-0.197890
-0.203133
-0.196462
-0.192495
-0.188518
-0.189562
-0.192990
-0.192902
-0.191222
-0.191038
-0.196442
-0.186392
-0.191610
-0.190572
-0.116025
-0.248473
-0.249201
-0.207930
-0.227722
-0.053733
-0.249804
-0.235411
-0.199771
-0.013609
-0.402310
-0.198819
-0.187834
-0.188673
-0.140664
-0.237348
-0.189199
-0.259615
-0.251354
-0.250602
-0.250128
-0.178115
-0.182604
-0.179143
-0.169935
-0.192893
-0.248379
-0.248648
-0.248087
-0.251643
-0.200070
-0.199960
-0.199981
-0.200072
-0.140042
-0.249312
-0.252751
-0.254316
-0.247941
-0.253224
-0.198064
-0.202699
-0.200411
-0.195509
-0.199450
-0.017906
-0.251701
-0.196276
-0.195301
-0.195006
-0.196443
-0.193410
-0.194028
-0.232715
-0.021113
-0.193496
-0.017761
-0.207473
-0.193699
-0.193253
-0.325730
-0.269501
-0.209180
-0.247039
-0.245141
-0.191446
-0.192078
-0.191274
-0.192134
-0.225205
0.014047
-0.004101
-0.163933
-0.262122
-0.263721
-0.269922
-0.249567
-0.250485
-0.249360
-0.242106
-0.247630
-0.245656
-0.246182
-0.249176
-0.255076
-0.245706
-0.251218
-0.241430
-0.198303
-0.197300
-0.297772
-0.278739
-0.279118
-0.286588
-0.300274
-0.199108
-0.196938
-0.196067
-0.195773
-0.195033
-0.193374
-0.192904
-0.191940
-0.191979
-0.045986
-0.175548
-0.055672
-0.247195
-0.173490
-0.248763
-0.249071
-0.248695
-0.247851
-0.243563
-0.236827
-0.248422
-0.258046
-0.259522
-0.249577
-0.246247
-0.245462
-0.249391
-0.188075
-0.190031
-0.190007
-0.247678
-0.181473
-0.192309
-0.205906
-0.208899
-0.213008
-0.198613
-0.214768
-0.249093
-0.249683
-0.248423
-0.250152
-0.185306
-0.249248
-0.189753
-0.189906
-0.190109
-0.061675
-0.122649
-0.194983
-0.158460
-0.132310
-0.195213
0.002726
-0.193894
-0.194241
-0.193566
-0.116205
-0.201303
-0.093098
-0.056388
-0.135225
-0.160171
-0.158927
-0.006158
-0.190973
-0.190256
-0.191164
-0.190652
-0.247187
-0.248659
-0.262341
-0.260326
-0.203267
-0.198353
-0.195837
-0.261147
-0.249190
-0.248932
-0.249836
-0.249906
-0.194970
-0.252409
-0.251219
-0.252521
-0.226539
-0.226791
-0.234782
-0.226696
-0.229737
-0.195483
-0.261297
-0.259129
-0.260218
-0.191569
-0.191453
-0.190854
-0.190401
-0.251888
-0.250958
-0.251355
-0.251024
-0.251281
-0.229270
-0.239446
-0.256770
-0.197341
-0.219858
-0.220391
-0.255443
-0.257424
-0.249583
-0.248483
-0.251725
-0.248971
-0.247691
-0.195843
-0.198092
-0.194351
-0.249965
-0.193299
-0.225488
-0.249346
-0.251286
-0.251641
-0.314588
-0.199884
-0.294265
-0.047588
-0.099610
-0.133818
-0.192274
-0.192659
-0.249553
-0.191758
-0.252638
-0.252468
-0.251890
-0.192473
-0.208682
-0.231549
-0.218799
-0.155779
-0.203432
-0.258352
-0.245750
-0.239920
-0.246706
-0.205705
-0.212294
-0.242573
-0.244588
-0.189566
-0.167652
-0.244999
-0.099520
-0.262842
-0.191911
-0.268293
-0.258665
-0.193206
-0.193422
-0.165644
-0.189519
-0.192952
-0.243175
-0.247199
-0.182290
-0.175064
-0.190596
-0.189998
-0.217443
-0.222308
-0.246932
-0.246669
-0.246498
-0.195226
-0.195361
-0.185203
-0.184057
-0.251527
-0.251436
-0.251555
-0.253829
-0.252897
-0.253372
-0.192327
-0.249426
-0.239949
-0.262423
-0.255596
-0.246370
-0.246283
-0.246204
-0.192801
-0.252974
-0.258479
-0.254583
-0.124363
-0.063692
-0.245100
-0.243545
-0.226913
-0.218999
-0.191341
-0.190735
-0.191314
-0.182050
-0.219663
-0.235603
-0.242606
-0.250617
-0.252711
-0.252088
-0.251405
-0.251829
-0.252600
-0.190253
-0.193171
-0.192921
-0.193627
-0.206803
-0.202235
-0.286538
-0.037317
-0.276187
-0.198559
-0.199100
-0.199731
-0.187193
-0.246055
-0.243872
-0.245415
-0.245786
-0.245987
0.030907
-0.026351
-0.038267
-0.255598
-0.258652
-0.017505
-0.251248
-0.255052
-0.252689
-0.252340
-0.197629
-0.162738
-0.169978
-0.196072
0.034741
-0.194347
-0.198156
-0.198587
-0.139043
-0.155824
-0.245923
-0.245802
-0.245365
-0.203884
-0.194766
-0.194999
-0.277867
-0.196711
-0.218780
-0.245906
-0.207710
-0.120802
-0.016708
-0.148296
-0.146230
-0.113633
-0.251285
-0.243938
-0.235410
-0.229682
-0.255656
-0.174860
-0.207795
-0.230630
-0.194854
0.134652
-0.260212
-0.192794
-0.193076
-0.193132
-0.193492
-0.193498
-0.194223
-0.193342
-0.118688
-0.106205
-0.194870
-0.253311
-0.252447
-0.251439
-0.192259
-0.194359
-0.249713
-0.251007
-0.239728
-0.195919
-0.194917
-0.153410
-0.154854
-0.182917
-0.193498
-0.251803
-0.246054
-0.249272
-0.208272
-0.194592
-0.249563
-0.249243
-0.250686
-0.232638
-0.234358
-0.184323
-0.197085
-0.196472
-0.200291
-0.200272
-0.227037
-0.192904
-0.192860
-0.193764
-0.193262
-0.192967
-0.195604
-0.192019
-0.179483
-0.187250
-0.018584
-0.246622
-0.263816
-0.261891
-0.260149
-0.192269
-0.191813
-0.268315
-0.262090
-0.268062
-0.274623
1.312627
-4.637687
-0.226994
-0.199318
-0.048773
-0.162155
-0.233502
-0.191940
-0.218553
-0.196484
-0.195825
-0.237246
-0.211281
-0.209571
-0.204828
-0.186790
-0.193224
-0.193046
-0.192858
-0.248692
-0.247561
-0.192279
-0.246698
-0.256427
-0.248109
-0.196760
0.066524
-0.024344
-0.077524
-0.210027
-0.247872
-0.246538
-0.048865
-0.197338
-0.197362
-0.198056
-0.176699
-0.177480
-0.180227
-0.176933
-0.175384
-0.199492
-0.188637
-0.190306
-0.241485
-0.193893
-0.194755
-0.176542
-0.237161
-0.166603
-0.194019
-0.194665
-0.228247
-0.248680
-0.236305
-0.253085
-0.252767
-0.257870
-0.262525
-0.258747
-0.201551
-0.174166
-0.247338
-0.204859
-0.192367
-0.198676
-0.194343
-0.194337
-0.194699
-0.195565
-0.196200
-0.193808
-0.250512
-0.218769
-0.129656
-0.287834
-0.257389
-0.258177
0.041785
-0.257599
-0.195773
-0.195766
-0.196881
-0.194818
-0.203965
-0.204835
-0.186476
-0.222064
-0.196646
-0.198002
-0.185505
-0.186683
-0.197059
-0.193581
-0.194651
0.017771
-0.192742
-0.190172
-0.225535
-0.190955
-0.131461
-0.191018
-0.218138
-0.195443
-0.190575
-0.192258
-0.246522
-0.192771
-0.253178
-0.187968
-0.264683
-0.263191
-0.245989
-0.192498
-0.192009
-0.192995
-0.191970
-0.312320
-0.550461
-0.401924
-0.224536
-0.031741
-0.214169
-0.271476
-0.791745
-0.288037
-0.100549
2.664256
-0.196807
-0.200133
-0.244808
-0.246115
-0.252455
-0.250274
-0.252827
-0.249059
-0.203373
0.013248
-0.173746
-0.198953
-0.192081
2.610579
1.579820
-0.191389
-0.148766
0.077149
0.042037
-0.104268
-0.226305
-0.243777
-0.308842
-0.304672
-0.315919
-0.195270
-0.194773
-0.195581
-0.194753
-0.186715
-0.188114
-0.190779
-0.184308
-0.244203
-0.251173
-0.418409
-0.389062
-0.364318
-0.277462
-0.257740
-0.186244
-0.160695
-0.182782
-0.259358
-0.277900
-0.163355
-0.130540
-0.178715
-0.189547
-0.181254
-0.480994
-0.303394
-0.148602
-0.300702
-0.304802
-0.228405
-0.217321
-0.193461
-0.193586
-0.274035
-0.267445
-0.290935
-0.194734
-0.194225
-0.191193
-0.190995
-0.238907
-0.198802
-0.189883
-0.250840
-0.245816
-0.250799
-0.178735
-0.177452
-0.170524
-0.254319
0.215648
-0.180699
-0.175257
-0.235781
-0.230609
-0.181785
-0.186900
-0.286662
-0.270794
-0.164519
-0.248453
-0.293349
-0.178271
-0.180295
-0.175931
-0.268140
-0.235543
-0.242384
-0.279577
-0.262086
-0.264074
-0.266502
-0.186712
-0.188456
-0.258234
-0.238227
-0.280083
-0.143635
-0.163941
-0.216049
-0.170222
-0.255530
-0.250198
-0.230043
-0.226698
-0.210921
-0.192995
-0.241078
-0.221604
-0.244634
-0.243258
-0.020304
-0.219155
-0.247120
-0.023666
-0.181284
-0.179360
-0.158842
-0.153907
-0.159478
-0.156334
-0.525612
-0.512951
-0.753383
-0.482662
-0.430845
-0.153273
-0.188915
-0.191077
-0.261383
-0.195233
-0.282514
-0.243758
-0.190343
0.294294
0.276136
-0.349805
-0.926497
-0.175057
-0.876152
-0.878272
-2.389565
-0.557168
-0.181187
-0.698110
-0.952561
-0.190830
-0.191227
-0.189985
-0.191036
-0.195661
-0.190381
-0.165750
-0.162082
-0.059663
-0.012641
-0.043723
-0.097482
-0.594055
-0.196319
-0.228055
-0.226462
-0.188272
-0.169628
-0.393694
2.197047
-0.909297
0.039328
0.066743
-0.087830
0.120305
0.067385
-0.191704
-0.190939
-0.196103
-0.196764
-0.165603
-0.161896
-0.166989
-0.170477
-0.167889
-0.162624
-0.236069
-0.184723
-0.183442
-0.183875
-0.190724
-0.190871
-0.121356
-0.148133
0.011460
-0.160371
-0.199921
-0.194256
-0.193951
0.005629
-0.156712
-0.195357
-0.194901
-0.196472
-0.194174
-0.296131
-0.223308
0.099263
-0.172856
-0.261583
-0.189544
-0.190368
-0.291105
-0.218419
-0.198694
-0.209190
-0.115242
-0.253904
-0.197470
-0.196841
-0.189684
-0.189286
-0.169236
-0.163163
-0.158310
-0.177260
-0.156626
0.161391
0.338446
0.099276
-0.239340
-0.194664
-0.075755
-0.184968
-0.190745
-0.170401
-0.067292
-0.182051
-0.196020
-0.195896
-0.189687
-0.196159
-0.771953
-0.805436
-0.124844
-0.005325
-0.193309
-0.192634
-0.193286
0.007958
4.048992
-0.033240
-0.246668
-0.242632
-0.256902
-0.259099
-0.294655
-0.292280
-0.141942
-0.163749
-0.137202
-0.193981
-0.220316
-0.194794
-0.240854
-0.195089
-0.194777
-0.198245
-0.186286
-0.193698
-0.177586
-0.256953
-0.240010
-0.248067
-0.193179
-0.195692
-0.195986
-0.192234
-0.194588
-0.184215
-0.194594
-0.251180
-0.197896
0.085081
-0.233479
-0.218508
-0.245169
-0.078868
-4.849087
-0.201235
-0.248723
-0.216154
-0.436671
-0.714158
-0.193862
-0.283897
-0.104529
-0.153928
-0.262393
-0.237518
-0.068825
-0.192646
-0.186612
-0.211796
-0.165575
-0.133435
-0.239291
-0.158534
-0.213909
-0.145326
-0.136304
-0.192704
0.155495
-0.189913
-0.081763
-0.035464
-0.031570
-0.194024
-0.194635
-0.193724
-0.194036
-0.177360
-0.191195
-0.176864
-0.197367
-0.246148
-0.138221
-0.184935
-0.343046
-0.129050
0.193707
-0.339521
-0.805432
-0.169873
-0.180269
-0.246748
-0.246273
-0.190776
-0.190297
-0.151181
-0.626057
-0.252915
-0.252267
-0.192547
-0.256619
-0.193210
-0.193833
-0.194844
-0.175312
-0.181739
-0.194818
-0.194238
-0.019201
-0.102183
-0.194128
-0.193466
-0.191807
-0.191209
-0.156006
-0.162040
-0.183211
-0.171618
-0.192092
-0.194941
-0.194228
-0.154720
-0.246300
-0.180392
-0.193909
-0.147232
-0.220380
-0.077192
-0.168508
-0.069545
-0.178356
-0.176239
-0.194599
-0.191026
-0.188343
-0.236952
-0.325656
-0.164320
-0.210686
-0.248321
-0.237797
-0.280864
-0.213263
-0.048891
-0.176420
-0.168785
1.689537
-0.173066
-0.156257
-0.186586
-0.182094
-0.341998
-0.194999
-0.298607
-0.190627
-0.191929
-0.219594
-0.012217
-0.164850
0.239719
0.081114
0.083260
-0.197773
-0.195746
-0.204667
0.643982
0.922665
0.059333
-0.197174
-0.004464
-0.189382
-0.178278
-0.179160
-0.190754
-0.176669
-0.270486
-0.032620
0.006505
-0.189361
-0.194527
-0.150946
-0.139406
-0.223208
-0.189303
-0.148073
-0.296652
-0.328135
-0.398049
-0.198244
0.002751
-0.177727
-0.165599
-0.172292
-0.237198
-0.064223
-0.165265
-0.191951
-0.412289
-0.136100
-0.441131
0.232463
-0.152052
-0.177863
-0.259767
-1.011212
-0.299790
-0.190675
-0.099131
-0.187386
-0.267315
-0.355228
-0.303661
-0.178416
-0.176000
-0.195447
-0.156166
-0.153601
-0.184223
-0.443171
-0.167019
-0.193031
-0.245196
-0.250768
-0.183797
-0.188519
-0.185078
-0.192486
-0.193465
-0.278321
-0.215352
-0.124009
-0.010401
-0.009373
-0.009337
-0.010446
-0.012456
-0.013648
-0.046765
-0.148898
-0.106582
0.032031
0.032815
0.029187
-0.006688
-0.030156
0.015541
0.031700
0.027771
0.000041
-0.000034
-0.000055
0.001742
0.001342
0.001483
-0.015031
-0.044013
-0.009978
0.049158
0.046928
0.047467
0.049331
-0.040668
-0.011730
-0.010973
-0.023380
-0.014878
-0.013950
-0.001987
-0.002712
-0.002657
-0.018498
0.025326
0.097451
0.019708
0.076652
-0.011146
-0.001908
-0.011782
-0.011389
-0.005026
-0.000396
-0.000311
-0.000508
0.000812
0.001640
-0.001147
-0.007766
0.001648
-0.018075
-0.054579
-0.042758
-0.048204
-0.001110
-0.035188
-0.006528
-0.009138
0.007747
0.004431
-0.020145
-0.002660
-0.001659
-0.003763
-0.002981
-0.003599
0.000209