# vtk DataFile Version 2.0
Test
ASCII
DATASET POLYDATA
POINTS 3011 float
0.000000 0.000000 0.000000
2.000000 0.000000 0.000000
2.000000 4.000000 0.000000
0.000000 4.000000 0.000000
0.000000 0.500000 0.000000
1.500000 2.000000 0.000000
2.000000 2.500000 0.000000
0.285714 0.000000 0.000000
0.571429 0.000000 0.000000
0.857143 0.000000 0.000000
1.142857 0.000000 0.000000
1.428571 0.000000 0.000000
1.714286 0.000000 0.000000
2.000000 0.276366 0.000000
2.000000 0.523709 0.000000
2.000000 0.745076 0.000000
2.000000 0.943195 0.000000
2.000000 1.120508 0.000000
2.000000 1.279199 0.000000
2.000000 1.421225 0.000000
2.000000 1.548336 0.000000
2.000000 1.662097 0.000000
2.000000 1.763911 0.000000
2.000000 1.855033 0.000000
2.000000 1.936585 0.000000
2.000000 2.009573 0.000000
2.000000 2.074896 0.000000
2.000000 2.133358 0.000000
2.000000 2.185681 0.000000
2.000000 2.232509 0.000000
2.000000 2.274419 0.000000
2.000000 2.311927 0.000000
2.000000 2.345497 0.000000
2.000000 2.375541 0.000000
2.000000 2.402430 0.000000
2.000000 2.426495 0.000000
2.000000 2.448033 0.000000
2.000000 2.467309 0.000000
2.000000 2.484560 0.000000
2.000000 2.516256 0.000000
2.000000 2.535859 0.000000
2.000000 2.559499 0.000000
2.000000 2.588006 0.000000
2.000000 2.622383 0.000000
2.000000 2.663839 0.000000
2.000000 2.713831 0.000000
2.000000 2.774116 0.000000
2.000000 2.846815 0.000000
2.000000 2.934483 0.000000
2.000000 3.040202 0.000000
2.000000 3.167691 0.000000
2.000000 3.321430 0.000000
2.000000 3.506825 0.000000
2.000000 3.730395 0.000000
1.714286 4.000000 0.000000
1.428571 4.000000 0.000000
1.142857 4.000000 0.000000
0.857143 4.000000 0.000000
0.571429 4.000000 0.000000
0.285714 4.000000 0.000000
0.000000 3.713462 0.000000
0.000000 3.449209 0.000000
0.000000 3.205508 0.000000
0.000000 2.980761 0.000000
0.000000 2.773493 0.000000
0.000000 2.582346 0.000000
0.000000 2.406065 0.000000
0.000000 2.243495 0.000000
0.000000 2.093568 0.000000
0.000000 1.955302 0.000000
0.000000 1.827789 0.000000
0.000000 1.710194 0.000000
0.000000 1.601745 0.000000
0.000000 1.501730 0.000000
0.000000 1.409494 0.000000
0.000000 1.324431 0.000000
0.000000 1.245984 0.000000
0.000000 1.173639 0.000000
0.000000 1.106920 0.000000
0.000000 1.045390 0.000000
0.000000 0.988645 0.000000
0.000000 0.936314 0.000000
0.000000 0.888053 0.000000
0.000000 0.843545 0.000000
0.000000 0.802499 0.000000
0.000000 0.764646 0.000000
0.000000 0.729736 0.000000
0.000000 0.697541 0.000000
0.000000 0.667851 0.000000
0.000000 0.640469 0.000000
0.000000 0.615217 0.000000
0.000000 0.591929 0.000000
0.000000 0.570453 0.000000
0.000000 0.550646 0.000000
0.000000 0.532380 0.000000
0.000000 0.515535 0.000000
0.000000 0.483768 0.000000
0.000000 0.461535 0.000000
0.000000 0.431083 0.000000
0.000000 0.389372 0.000000
0.000000 0.332241 0.000000
0.000000 0.253989 0.000000
0.000000 0.146807 0.000000
0.010563 0.510563 0.000000
0.021127 0.521127 0.000000
0.031690 0.531690 0.000000
0.042254 0.542254 0.000000
0.052817 0.552817 0.000000
0.063380 0.563380 0.000000
0.073944 0.573944 0.000000
0.084507 0.584507 0.000000
0.095070 0.595070 0.000000
0.105634 0.605634 0.000000
0.116197 0.616197 0.000000
0.126761 0.626761 0.000000
0.137324 0.637324 0.000000
0.147887 0.647887 0.000000
0.158451 0.658451 0.000000
0.169014 0.669014 0.000000
0.179577 0.679577 0.000000
0.190141 0.690141 0.000000
0.200704 0.700704 0.000000
0.211268 0.711268 0.000000
0.221831 0.721831 0.000000
0.232394 0.732394 0.000000
0.242958 0.742958 0.000000
0.253521 0.753521 0.000000
0.264085 0.764085 0.000000
0.274648 0.774648 0.000000
0.285211 0.785211 0.000000
0.295775 0.795775 0.000000
0.306338 0.806338 0.000000
0.316901 0.816901 0.000000
0.327465 0.827465 0.000000
0.338028 0.838028 0.000000
0.348592 0.848592 0.000000
0.359155 0.859155 0.000000
0.369718 0.869718 0.000000
0.380282 0.880282 0.000000
0.390845 0.890845 0.000000
0.401408 0.901408 0.000000
0.411972 0.911972 0.000000
0.422535 0.922535 0.000000
0.433099 0.933099 0.000000
0.443662 0.943662 0.000000
0.454225 0.954225 0.000000
0.464789 0.964789 0.000000
0.475352 0.975352 0.000000
0.485915 0.985915 0.000000
0.496479 0.996479 0.000000
0.507042 1.007042 0.000000
0.517606 1.017606 0.000000
0.528169 1.028169 0.000000
0.538732 1.038732 0.000000
0.549296 1.049296 0.000000
0.559859 1.059859 0.000000
0.570423 1.070423 0.000000
0.580986 1.080986 0.000000
0.591549 1.091549 0.000000
0.602113 1.102113 0.000000
0.612676 1.112676 0.000000
0.623239 1.123239 0.000000
0.633803 1.133803 0.000000
0.644366 1.144366 0.000000
0.654930 1.154930 0.000000
0.665493 1.165493 0.000000
0.676056 1.176056 0.000000
0.686620 1.186620 0.000000
0.697183 1.197183 0.000000
0.707746 1.207746 0.000000
0.718310 1.218310 0.000000
0.728873 1.228873 0.000000
0.739437 1.239437 0.000000
0.750000 1.250000 0.000000
0.760563 1.260563 0.000000
0.771127 1.271127 0.000000
0.781690 1.281690 0.000000
0.792254 1.292254 0.000000
0.802817 1.302817 0.000000
0.813380 1.313380 0.000000
0.823944 1.323944 0.000000
0.834507 1.334507 0.000000
0.845070 1.345070 0.000000
0.855634 1.355634 0.000000
0.866197 1.366197 0.000000
0.876761 1.376761 0.000000
0.887324 1.387324 0.000000
0.897887 1.397887 0.000000
0.908451 1.408451 0.000000
0.919014 1.419014 0.000000
0.929577 1.429577 0.000000
0.940141 1.440141 0.000000
0.950704 1.450704 0.000000
0.961268 1.461268 0.000000
0.971831 1.471831 0.000000
0.982394 1.482394 0.000000
0.992958 1.492958 0.000000
1.003521 1.503521 0.000000
1.014085 1.514085 0.000000
1.024648 1.524648 0.000000
1.035211 1.535211 0.000000
1.045775 1.545775 0.000000
1.056338 1.556338 0.000000
1.066901 1.566901 0.000000
1.077465 1.577465 0.000000
1.088028 1.588028 0.000000
1.098592 1.598592 0.000000
1.109155 1.609155 0.000000
1.119718 1.619718 0.000000
1.130282 1.630282 0.000000
1.140845 1.640845 0.000000
1.151408 1.651408 0.000000
1.161972 1.661972 0.000000
1.172535 1.672535 0.000000
1.183099 1.683099 0.000000
1.193662 1.693662 0.000000
1.204225 1.704225 0.000000
1.214789 1.714789 0.000000
1.225352 1.725352 0.000000
1.235915 1.735915 0.000000
1.246479 1.746479 0.000000
1.257042 1.757042 0.000000
1.267606 1.767606 0.000000
1.278169 1.778169 0.000000
1.288732 1.788732 0.000000
1.299296 1.799296 0.000000
1.309859 1.809859 0.000000
1.320423 1.820423 0.000000
1.330986 1.830986 0.000000
1.341549 1.841549 0.000000
1.352113 1.852113 0.000000
1.362676 1.862676 0.000000
1.373239 1.873239 0.000000
1.383803 1.883803 0.000000
1.394366 1.894366 0.000000
1.404930 1.904930 0.000000
1.415493 1.915493 0.000000
1.426056 1.926056 0.000000
1.436620 1.936620 0.000000
1.447183 1.947183 0.000000
1.457746 1.957746 0.000000
1.468310 1.968310 0.000000
1.478873 1.978873 0.000000
1.489437 1.989437 0.000000
1.510417 2.010417 0.000000
1.520833 2.020833 0.000000
1.531250 2.031250 0.000000
1.541667 2.041667 0.000000
1.552083 2.052083 0.000000
1.562500 2.062500 0.000000
1.572917 2.072917 0.000000
1.583333 2.083333 0.000000
1.593750 2.093750 0.000000
1.604167 2.104167 0.000000
1.614583 2.114583 0.000000
1.625000 2.125000 0.000000
1.635417 2.135417 0.000000
1.645833 2.145833 0.000000
1.656250 2.156250 0.000000
1.666667 2.166667 0.000000
1.677083 2.177083 0.000000
1.687500 2.187500 0.000000
1.697917 2.197917 0.000000
1.708333 2.208333 0.000000
1.718750 2.218750 0.000000
1.729167 2.229167 0.000000
1.739583 2.239583 0.000000
1.750000 2.250000 0.000000
1.760417 2.260417 0.000000
1.770833 2.270833 0.000000
1.781250 2.281250 0.000000
1.791667 2.291667 0.000000
1.802083 2.302083 0.000000
1.812500 2.312500 0.000000
1.822917 2.322917 0.000000
1.833333 2.333333 0.000000
1.843750 2.343750 0.000000
1.854167 2.354167 0.000000
1.864583 2.364583 0.000000
1.875000 2.375000 0.000000
1.885417 2.385417 0.000000
1.895833 2.395833 0.000000
1.906250 2.406250 0.000000
1.916667 2.416667 0.000000
1.927083 2.427083 0.000000
1.937500 2.437500 0.000000
1.947917 2.447917 0.000000
1.958333 2.458333 0.000000
1.968750 2.468750 0.000000
1.979167 2.479167 0.000000
1.989583 2.489583 0.000000
0.206561 0.791563 0.000000
0.205359 0.816165 0.000000
0.186354 0.798211 0.000000
0.221961 0.800924 0.000000
0.280649 1.360489 0.000000
0.304015 1.400469 0.000000
0.229142 1.396096 0.000000
0.275922 1.451476 0.000000
1.869084 2.391788 0.000000
1.857928 2.378421 0.000000
1.238669 2.061899 0.000000
1.278787 2.082276 0.000000
1.238298 2.096047 0.000000
1.277579 2.032995 0.000000
0.402536 1.205823 0.000000
0.415290 1.176040 0.000000
0.428330 1.201952 0.000000
0.387294 1.172617 0.000000
0.146930 1.050586 0.000000
0.109488 1.087198 0.000000
0.102742 1.042403 0.000000
0.157178 1.091184 0.000000
0.588967 1.178581 0.000000
0.593116 1.153718 0.000000
0.608054 1.166752 0.000000
0.612180 1.145944 0.000000
0.860304 1.543784 0.000000
0.868821 1.521840 0.000000
0.878420 1.536650 0.000000
0.845380 1.517623 0.000000
1.129525 1.764330 0.000000
1.142005 1.751560 0.000000
1.145757 1.773681 0.000000
1.159368 1.759106 0.000000
1.968150 2.518865 0.000000
1.986105 2.509269 0.000000
1.986696 2.531115 0.000000
0.668964 1.191005 0.000000
0.683291 1.201259 0.000000
0.557625 1.074830 0.000000
0.569760 1.084377 0.000000
0.557769 1.089278 0.000000
0.707567 1.266174 0.000000
0.719026 1.281845 0.000000
0.700768 1.282275 0.000000
0.722329 1.266956 0.000000
0.468225 2.149688 0.000000
0.419106 2.064198 0.000000
0.523878 2.082648 0.000000
0.838546 1.421191 0.000000
0.823708 1.410355 0.000000
0.840477 1.404206 0.000000
0.818500 1.425973 0.000000
0.953187 1.488222 0.000000
0.959780 1.473222 0.000000
0.967054 1.485637 0.000000
1.047418 1.769126 0.000000
1.080240 1.782403 0.000000
1.047768 1.802712 0.000000
0.971392 1.693320 0.000000
0.949208 1.720793 0.000000
0.940644 1.684781 0.000000
0.381391 2.160909 0.000000
0.944091 1.477800 0.000000
0.530075 1.477351 0.000000
0.521303 1.516669 0.000000
0.474240 1.491166 0.000000
0.489489 1.546185 0.000000
1.537370 2.239326 0.000000
1.555275 2.267640 0.000000
1.532966 2.278201 0.000000
0.962010 1.661716 0.000000
0.986804 1.643200 0.000000
0.986259 1.672729 0.000000
1.049149 1.737940 0.000000
1.075111 1.737123 0.000000
[...]
POINT_DATA 3011
SCALARS UX float 1
LOOKUP_TABLE default
-0.000000
0.000000
-0.034257
-0.165799
-0.193857
0.044503
0.004860
-0.000000
-0.000000
-0.000000
-0.000000
0.000000
0.000000
0.021892
0.029231
0.036935
0.048758
0.066792
0.091440
0.121433
0.153529
0.184755
0.214220
0.241172
0.265634
0.287902
0.307585
0.325559
0.342075
0.353214
0.359419
0.362434
0.368842
0.367291
0.336361
0.226392
0.108417
0.036278
0.015391
-0.000696
-0.005151
-0.009258
-0.011852
-0.014265
-0.015536
-0.016381
-0.017158
-0.017220
-0.016675
-0.017080
-0.019327
-0.021318
-0.028471
-0.032724
-0.056614
-0.077672
-0.097576
-0.116306
-0.133958
-0.150225
-0.163481
-0.159366
-0.151989
-0.142664
-0.131247
-0.118990
-0.107355
-0.097118
-0.091806
-0.093226
-0.104123
-0.122224
-0.146267
-0.174131
-0.202791
-0.229474
-0.252695
-0.272051
-0.287940
-0.300983
-0.311522
-0.320537
-0.328133
-0.334381
-0.339029
-0.341233
-0.340805
-0.335886
-0.321926
-0.291695
-0.250368
-0.205288
-0.133486
-0.144136
-0.352713
-0.256159
-0.074942
-0.056029
-0.042297
-0.035994
-0.028969
-0.022109
-0.014548
-0.200067
-0.129479
-0.119615
-0.122542
-0.103987
-0.074911
-0.061267
-0.072227
-0.090949
-0.071160
-0.079776
-0.091970
-0.113666
-0.130294
-0.128589
-0.151794
-0.176641
-0.254124
-0.283668
-0.284216
-0.295263
-0.257534
-0.218636
-0.152281
-0.190138
-0.296862
-0.303129
-0.310307
-0.241795
-0.273955
-0.228446
-0.217423
-0.197174
-0.151248
-0.108965
-0.138678
-0.150220
-0.132745
-0.101345
-0.081684
-0.062826
-0.067888
-0.051345
-0.055133
-0.050100
-0.004185
-0.013819
0.001478
-0.000337
0.039586
-0.245931
-0.224346
-0.227344
-0.194800
-0.198053
-0.159244
-0.136603
-0.111374
-0.096673
-0.088783
-0.060868
-0.071183
-0.134319
0.055989
0.039104
-0.011068
-0.004750
-0.002887
-0.107187
0.314981
-0.340867
0.073258
-0.167474
-0.055016
-0.042539
0.099746
-0.009388
-0.166087
-0.033571
0.133076
-0.451038
-0.559510
-0.396318
1.516166
0.325650
0.005526
0.098683
-0.088246
0.249926
-0.356616
-0.225164
-0.054907
-0.160437
0.104163
0.179975
0.380738
0.644382
1.350610
-2.938171
-9.217803
1.668905
1.011623
0.750780
0.754052
0.873648
0.705647
0.683471
0.679205
0.159872
0.209668
0.263173
0.166010
0.068181
0.140988
0.251980
0.362698
0.132673
-0.026419
0.168457
0.069531
-0.038352
-0.146001
0.719740
-0.067360
0.013478
0.045879
0.060845
0.036029
-0.142070
-0.013065
0.019496
0.065158
0.160382
0.145779
0.162984
0.064768
-0.056169
-0.011809
0.000291
0.023934
0.022664
0.084140
0.110338
0.117675
0.118402
0.007003
0.039550
0.014180
-0.017071
0.009755
0.034477
0.049110
0.047918
-0.070224
-0.048468
-0.037027
-0.027127
-0.021117
-0.021110
-0.019469
-0.022747
-0.015329
-0.003653
0.000522
0.011044
0.021600
0.016724
0.021802
0.018062
0.000776
0.019697
0.016408
0.010445
-0.009582
-0.015246
-0.017705
-0.012496
-0.008749
-0.007147
-0.001019
0.001728
0.008867
0.007812
0.009000
0.009914
0.010041
0.005843
0.003975
-0.318973
-0.316537
-0.320659
-0.317285
-0.196510
-0.179096
-0.187557
-0.162984
-0.018388
-0.022076
-0.069570
-0.069831
-0.072046
-0.065840
-0.245638
-0.254312
-0.246067
-0.256658
-0.292049
-0.286509
-0.295776
-0.283601
-0.255413
-0.258408
-0.266537
-0.213471
-0.026100
-0.046449
-0.032101
-0.048583
-0.007822
0.007399
-0.013127
0.002141
-0.009130
-0.003121
-0.007218
-0.300571
-0.098617
-0.237522
-0.232235
-0.245349
-0.199015
-0.208637
-0.197429
-0.319021
-0.058238
-0.054312
-0.050943
-0.080401
-0.117957
-0.130910
-0.092923
-0.117552
-0.181347
-0.210599
-0.040539
-0.039580
-0.046442
0.090902
0.055278
0.173151
-0.063058
-0.145729
-0.117289
-0.102295
-0.120882
-0.096829
-0.053455
-0.052114
-0.054426
0.242561
0.353860
0.122005
-0.034644
-0.030101
-0.036170
-0.050505
-0.032025
0.071576
0.177481
0.198575
0.088176
-0.069101
-0.066165
-0.066833
-0.061095
-0.063983
-0.064370
-0.128144
-0.142736
-0.132391
-0.087665
-0.072669
-0.068764
-0.148852
-0.051069
-0.256715
-0.251037
-0.246654
-0.263489
-0.078878
-0.075709
-0.076885
-0.078059
-0.063643
-0.078024
-0.056597
-0.056763
-0.053882
-0.057119
-0.080170
-0.248879
-0.251079
-0.263919
-0.122595
-0.130819
-0.113608
-0.123321
-0.264005
-0.091303
-0.077209
-0.089232
-0.031477
-0.031326
-0.025884
-0.071898
-0.070478
-0.074326
-0.235894
-0.242756
-0.073416
-0.009444
0.006902
-0.014627
0.004993
-0.056884
-0.057996
-0.058289
-0.019226
0.012347
-0.004528
-0.055040
-0.314707
-0.183572
-0.211176
-0.242290
-0.248276
-0.244881
-0.274754
-0.257150
-0.251898
0.013859
0.041287
0.021699
-0.287633
0.062802
-0.051830
-0.049981
-0.296209
-0.288105
-0.295134
-0.245760
-0.251278
-0.209947
-0.264613
-0.258900
-0.038889
0.000932
-0.029246
-0.056311
-0.061465
-0.056432
-0.037440
-0.037202
-0.046394
1.779235
0.554593
1.267548
-0.040472
-0.278415
-0.286785
-0.290375
-0.072174
-0.068395
-0.076744
0.098074
-0.063688
-0.324297
-0.318628
-0.321472
-0.252886
-0.252770
-0.034506
0.822792
-0.017810
-0.032568
-0.031814
-0.085249
-0.078787
-0.196669
-0.198223
-0.044377
-0.041448
-0.046266
-0.198093
-0.205480
-0.209314
-0.074118
-0.075236
-0.072653
-0.076565
-0.019159
-0.015898
-0.053603
-0.064453
-0.067293
-0.061968
-10.644602
0.803023
1.223607
-0.059241
-0.054417
-0.067489
-0.063114
-0.021599
-0.010897
-0.030139
-0.231651
-0.262066
-0.257376
-0.254754
-0.251100
0.605417
-0.037262
-0.041256
-0.038467
-0.053884
-0.057037
-0.054429
-0.056113
-0.054214
-0.051925
-0.052029
-0.032293
-0.024899
-0.018214
-0.041802
-0.009457
-0.050171
-0.077574
-0.085869
-0.079126
-0.086863
-0.068047
-0.067092
-0.065967
-0.040809
-0.005330
-0.014170
-0.048188
-0.046817
-0.055452
-0.019681
-0.023154
-0.153635
-0.144435
-0.150459
-0.055929
-0.075099
-0.063374
-0.078687
-0.158841
-0.165868
-0.166524
-0.067814
-0.073659
-0.085445
-0.052480
0.005574
0.013128
0.007196
0.003775
-0.073015
-0.150656
-0.144928
-0.021923
-0.039697
-0.025019
-0.162919
-0.040951
-0.043758
-0.042663
-0.045624
-0.026106
-0.011508
-0.024581
0.012752
0.030354
0.718760
0.718769
0.492127
0.100296
0.053251
0.200608
0.011241
-0.210799
-0.074599
-0.130584
0.003406
-0.015860
-0.009652
-0.327732
-0.245648
-0.104571
0.071343
0.021262
0.017223
-0.067441
-0.070623
-0.072505
0.121303
-0.007848
0.001544
-0.010861
-0.057192
-0.057136
-0.047922
-0.042523
-0.053632
-0.048355
-0.014168
-0.022565
-0.028322
-0.035196
-0.303584
-0.296856
-0.305497
-0.300932
-0.285804
-0.257915
-0.231815
-0.115725
-0.119238
-0.130006
-0.025113
-0.283123
-0.274993
-0.282210
-0.273916
-0.073294
-0.071353
-0.073838
-0.070292
-0.029387
-0.024197
-0.035482
-0.028097
-0.039990
-0.037325
-0.037595
-0.031547
-0.052849
-0.056152
-0.134220
-0.127540
-0.150117
-0.302083
-0.318087
-0.308931
-0.323447
-0.307530
-0.301821
-0.021229
-0.003941
0.007497
-0.062888
-0.064155
-0.257977
-0.253770
-0.256195
-0.248727
-0.251127
0.032967
0.083013
0.045494
0.070644
-0.291716
-0.292266
-0.294747
-0.291837
-0.047260
-0.049107
-0.311140
-0.312993
-0.309336
-0.306848
-0.308519
-0.291477
-0.303347
-0.273331
-0.114601
-0.257150
-0.310164
-0.311615
-0.307527
-0.311204
-0.308597
-0.039943
-0.034807
-0.018595
-0.067562
-0.142123
-0.137946
-0.132055
-0.153226
-0.143615
-0.020762
-0.021132
-0.018886
-0.023383
-0.025604
-0.023441
-0.292007
-0.287417
-0.292625
-0.123402
-0.124132
-0.101975
-0.107990
-0.029426
-0.024831
-0.026033
-0.030363
-0.021496
-0.034199
-0.284338
-0.282519
-0.275478
-0.272486
-0.274919
-0.303272
-0.118822
-0.047338
-0.113148
-0.164016
-0.019115
-0.021339
-0.025753
-0.022960
-0.286171
-0.285155
-0.074633
-0.072394
-0.074850
-0.077639
-0.070867
-0.076395
-0.084978
-0.082233
-0.092829
-0.064323
-0.048311
-0.070247
-0.322112
-0.331610
-0.329823
-0.321208
-0.017953
-0.044258
-0.301939
-0.299948
-0.302624
-0.214241
-0.170808
-0.305133
-0.035557
-0.034952
-0.032113
-0.314690
-0.320294
-0.321274
-0.104977
-0.309764
-0.316549
-0.013621
-0.004958
-0.012978
-0.005101
-0.007927
-0.073000
-0.066397
-0.282494
-0.290536
-0.287155
-0.012533
-0.069020
-0.067382
-0.064503
-0.257652
-0.220640
-0.201863
-0.207727
-0.223245
-0.205707
-0.138586
-0.146169
-0.226364
-0.201407
-0.330275
-0.331361
-0.326936
-0.328974
-0.267936
-0.037558
-0.264158
-0.228008
-0.227801
-0.175134
-0.162685
-0.018423
-0.020988
-0.304411
-0.323584
-0.295363
-0.002363
-0.279702
-0.029391
-0.025935
-0.028430
-0.303962
-0.308667
-0.308215
-0.080842
-0.079338
-0.082890
-0.081283
-0.083254
-0.322504
-0.319037
-0.322560
-0.325627
-0.068436
-0.071317
-0.303119
-0.304712
-0.306440
-0.306356
-0.177481
-0.156790
-0.172192
-0.137981
-0.154719
-0.137052
-0.136261
-0.113683
-0.121657
-0.164076
-0.202110
-0.033282
-0.029797
-0.246444
-0.236021
-0.236687
-0.218766
-0.231525
0.032467
0.033347
-0.009148
-0.159855
-0.150645
-0.267155
-0.265192
-0.175598
-0.166764
-0.079054
-0.079844
-0.078727
-0.078490
-0.103899
-0.297932
-0.301757
-0.307048
-0.291291
0.190140
-0.011881
-0.025195
-0.026954
-0.032138
-0.051929
-0.044067
-0.054111
-0.059075
-0.063510
-0.062525
-0.032960
-0.032307
-0.015444
-0.017736
-0.057432
-0.064111
-0.025690
-0.021573
-0.114171
-0.261724
-0.256826
-0.296327
-0.312505
-0.297671
-0.309773
-0.306000
-0.073666
-0.097025
-0.336594
-0.071473
-0.071003
-0.071437
0.000270
-0.009663
-0.014087
-0.336906
-0.190955
-0.172889
-0.175419
-0.066366
-0.069306
-0.067049
-0.062966
-0.033912
-0.304640
-0.299977
-0.298823
-0.209539
-0.074241
-0.073287
-0.075706
-0.075897
-0.012168
-0.338181
-0.339418
-0.335920
-0.313023
-0.330521
-0.087523
-0.082983
-0.076917
-0.097569
-0.098336
-0.140685
-0.268258
-0.080275
-0.080258
-0.083859
-0.075803
-0.076529
-0.076152
-0.045538
-0.136647
-0.082367
-0.092505
-0.051889
-0.068370
-0.074184
-0.321020
-0.324782
-0.316405
-0.333662
-0.329327
-0.107319
-0.097404
-0.105061
-0.098466
-0.323180
0.032356
-0.041691
-0.060441
-0.018010
-0.041037
-0.029632
-0.257615
-0.244157
-0.264203
-0.290228
-0.287860
-0.294568
-0.294473
-0.001988
0.010593
0.009135
0.027213
0.014343
-0.078441
-0.079588
0.058994
0.178513
0.112266
0.126941
-0.034833
-0.077631
-0.079997
-0.080853
-0.081982
-0.081993
-0.128458
-0.117175
-0.124511
-0.113929
-0.228350
-0.279225
-0.278961
-0.269054
-0.004009
-0.274200
-0.265325
-0.272617
-0.280643
-0.039380
-0.046720
-0.032185
-0.114079
-0.100720
-0.313419
-0.287790
-0.291934
-0.307972
-0.033789
-0.028811
-0.120537
-0.296044
-0.024193
-0.021607
-0.073105
-0.077064
-0.065622
-0.078112
-0.074511
-0.321015
-0.276678
-0.335269
-0.334718
-0.029235
-0.316053
-0.084641
-0.103686
-0.087107
-0.319831
-0.315046
-0.016331
-0.288947
-0.290623
-0.301199
-0.123300
-0.038242
-0.042118
-0.036822
-0.023052
-0.032699
-0.024395
-0.138336
-0.306800
-0.308062
-0.308940
-0.118007
-0.046286
-0.054195
-0.059082
-0.067654
-0.284419
-0.278767
-0.080373
-0.096643
-0.067220
-0.072595
-0.054236
0.022796
-0.323081
-0.245251
-0.247781
-0.251751
-0.080401
-0.192391
-0.196115
-0.181077
-0.077485
-0.065684
-0.063058
-0.057348
-0.050003
-0.112302
-0.080358
-0.096611
-0.078786
-0.039942
-0.028415
-0.032173
-0.094364
-0.211108
-0.226994
-0.223669
-0.244437
-0.230019
-0.318017
-0.327491
-0.085717
-0.077298
-0.058932
-0.068367
-0.138375
-0.113991
-0.313021
-0.275832
-0.180967
-0.192592
-0.261677
-0.075886
-0.017293
-0.019353
-0.313242
-0.106665
-0.014321
-0.317994
-0.227116
-0.213718
-0.315660
-0.075280
-0.304129
0.005837
-0.018105
-0.019075
-0.098409
-0.093210
-0.316820
-0.107307
-0.191699
-0.191506
-0.208174
-0.028602
-0.038045
-0.003842
-0.026393
-0.295701
-0.301764
-0.091127
-0.285293
-0.285465
-0.284432
-0.089911
-0.083729
-0.287136
-0.313384
-0.037713
-0.031707
-0.268893
-0.281297
-0.285541
-0.041808
0.033534
0.047125
-0.036619
-0.033676
-0.032872
-0.065783
-0.061710
-0.314910
-0.318367
-0.062562
-0.057547
-0.080108
-0.070967
-0.043960
-0.048673
-0.298594
-0.291070
-0.297475
-0.051329
-0.051443
-0.070186
-0.068252
-0.102274
-0.211366
-0.209594
-0.163464
-0.184774
-0.174165
-0.138243
-0.331417
-0.084991
-0.000876
-0.009705
-0.299242
-0.301100
-0.300298
-0.027250
-0.023539
-0.028573
-0.039012
-0.195571
-0.161175
-0.288929
-0.288905
-0.038186
-0.035348
-0.096188
-0.108651
-0.073380
-0.026058
-0.080402
-0.031440
-0.026735
-0.232857
-0.173135
-0.197547
-0.205805
-0.206555
-0.191241
-0.037943
-0.086617
-0.092040
-0.085872
-0.045324
-0.046791
-0.198782
-0.108150
-0.084474
-0.076248
-0.077143
-0.076884
-0.068910
-0.015000
-0.293477
-0.297184
-0.294755
-0.297114
-0.023044
-0.082904
0.004951
-0.055997
-0.049468
-0.091053
-0.220670
-0.232620
-0.230465
-0.221160
-0.077532
-0.003238
-0.004950
-0.077514
0.012793
-0.075869
-0.074800
-0.310801
-0.302328
-0.292131
-0.297840
-0.295052
-0.296524
-0.057568
-0.049299
-0.051795
0.019951
-0.057110
-0.046004
-0.297557
-0.048130
-0.265142
-0.232487
-0.304805
-0.301139
-0.297723
-0.231610
-0.016769
-0.033928
-0.028952
-0.031821
-0.017064
-0.303967
-0.311897
-0.048428
-0.306517
-0.315735
-0.029508
-0.031877
-0.033725
-0.037353
-0.037111
-0.042885
-0.036493
-0.304326
-0.305370
-0.314491
-0.154396
-0.157346
-0.139137
-0.067956
-0.063190
-0.240992
-0.167080
-0.290550
-0.083121
-0.078138
-0.291067
-0.306299
-0.063523
-0.094281
-0.236688
-0.298490
-0.275180
-0.010531
-0.070325
-0.146323
-0.155269
-0.149057
-0.001212
-0.004096
-0.067763
-0.056268
-0.061898
-0.052832
-0.056659
-0.027126
-0.091618
-0.092426
-0.087667
-0.088868
-0.089081
-0.089727
-0.145747
-0.049576
-0.051024
-0.219534
-0.265763
-0.062373
-0.064427
-0.065391
-0.044801
-0.051362
0.132605
0.091344
0.100269
0.124072
0.016614
0.048701
-0.284864
-0.260628
-0.187292
-0.308594
-0.012187
-0.056983
-0.284857
-0.058076
-0.054549
-0.288986
-0.044066
-0.041096
-0.051430
-0.010150
-0.039955
-0.033960
-0.035684
-0.271488
-0.282566
-0.022336
-0.258366
-0.139882
-0.259526
-0.059595
-0.257799
-0.250404
-0.157578
-0.285125
-0.099911
-0.217451
-0.167305
-0.063375
-0.066137
-0.068058
-0.050894
-0.050021
-0.054709
-0.051644
-0.045810
-0.074666
-0.047297
-0.038506
-0.253986
-0.072384
-0.076207
-0.137052
-0.067184
-0.025354
-0.040623
-0.046203
-0.017157
-0.255049
-0.019641
-0.171308
-0.190745
-0.117091
-0.094883
-0.107367
-0.011719
-0.016739
-0.234856
-0.044995
-0.104393
-0.071366
-0.049778
-0.048028
-0.046829
-0.060262
-0.059951
-0.049696
-0.117016
-0.315853
-0.304450
0.068167
0.066015
-0.132464
-0.106700
-0.128941
-0.062842
-0.071009
-0.069379
-0.066333
-0.244452
-0.090797
-0.229669
-0.192051
-0.063308
-0.215623
-0.205762
-0.165182
-0.064937
-0.064307
-0.064877
-0.196461
-0.039932
-0.035530
-0.293038
-0.067591
-0.199729
-0.038020
-0.035559
-0.066788
-0.084051
-0.042718
-0.299741
-0.062859
-0.232697
-0.244159
-0.093124
-0.081842
-0.299225
-0.035874
-0.036206
-0.044573
-0.025527
0.003662
0.010114
0.005911
-0.163466
-0.114196
-0.147168
-0.055936
0.016923
0.011706
-0.161812
0.011365
-0.069559
-0.061583
-0.202038
-0.194916
-0.168893
-0.176564
-0.162171
-0.175188
-0.049713
-0.317408
-0.060619
-0.164926
-0.021946
0.011789
0.056257
-0.116545
-0.006202
-0.026550
-0.079085
-0.178423
-0.262732
-0.287248
0.044185
0.033974
0.241393
-0.051083
-0.048964
-0.056366
-0.053047
-0.054222
-0.050525
-0.050161
-0.054876
-0.284959
-0.240491
-0.005515
-0.022222
-0.023958
-0.028233
-0.069417
-0.043153
-0.036688
-0.043388
-0.001257
-0.000945
-0.178016
-0.165136
-0.041511
-0.047142
-0.045197
-0.020639
0.045146
-0.056017
0.561737
0.205755
-0.278555
-0.250363
-0.041269
-0.036760
0.186147
0.263859
0.384325
-0.040875
-0.043449
-0.046604
-0.049734
-0.288883
-0.071445
-0.045985
-0.162574
-0.169360
-0.152780
-0.059999
-0.055673
-0.059125
-0.154024
-0.246028
-0.058262
-0.218327
-0.275335
-0.280695
-0.056326
-0.062237
-0.073910
-0.075931
-0.159343
-0.184948
-0.186893
-0.025335
-0.027342
-0.033980
-0.074465
-0.095918
-0.175674
-0.091628
-0.112293
-0.137144
-0.102389
-0.055072
-0.057391
-0.316446
-0.315112
-0.040172
-0.001346
-0.051869
-0.133073
-0.423320
-0.329991
0.024755
-0.258561
-0.251238
-0.251482
-0.057103
-0.251959
-0.175007
-0.255384
-0.252936
0.006249
-0.092977
-0.297397
-0.006977
0.005827
-0.006339
-0.049844
-0.043150
-0.053887
-0.047112
0.054590
0.044211
0.031691
0.010309
-0.005223
-0.033315
-0.029219
-0.034740
-0.140188
-0.169422
-0.114202
-0.188204
-0.181652
-0.611231
0.071315
-0.098314
0.025905
-0.223450
0.048371
0.021335
0.072734
0.075682
-0.029285
0.517564
0.562417
-0.039348
-0.041045
-0.036880
-0.045304
-0.059765
-0.060237
-0.325157
0.106703
-0.004397
-0.034017
-0.010900
-18.743821
-1.444586
-0.215387
-0.229483
-0.239020
-0.185103
-0.369500
-0.074133
-0.071337
-0.081474
0.016384
0.012737
-0.008267
0.010511
0.013127
-0.048456
-0.048733
-0.057435
-0.061359
-0.055031
-0.046614
-0.052190
0.031525
-0.042642
-0.040878
-0.257660
-0.048909
-0.026868
-0.042539
-0.040200
-0.044793
-0.023423
-0.024408
-0.102186
-0.174839
-0.177614
-0.042903
-0.040862
-0.274945
-0.024691
-0.051132
-0.048003
-0.062491
-0.038452
-0.310416
-0.274601
-0.061385
-0.232282
-0.329283
-0.066638
-0.122858
0.034704
-0.222950
-0.199469
-0.234871
-0.107270
-0.150693
-0.063811
-0.060979
-0.057069
-0.049374
0.013428
-0.003588
0.002100
-0.146860
-0.020014
0.044373
0.810238
0.994997
-0.220665
-0.046418
0.403853
-0.063589
-0.065248
-0.025880
-0.016225
-0.001720
0.020432
-0.038319
-0.025193
-0.000110
0.259618
0.488870
-0.316577
0.022153
-0.050035
-0.048146
-0.047966
-0.153921
-0.157557
-0.199004
-0.186278
-0.196171
-0.136985
-0.138730
-0.006660
0.002107
-0.041750
-0.054391
-0.048159
-0.063182
-0.241481
-0.286319
-0.237532
-0.040630
-0.042892
-0.069614
-0.051731
-0.052187
-0.045515
-0.143164
-0.006653
-0.185360
-0.034995
-0.050814
-0.055706
-0.049708
-0.037710
-0.033248
-0.036899
-0.223516
-0.066570
-0.199564
-0.172020
-0.136736
-0.143708
-0.165303
0.036246
-0.063875
-0.325616
-0.206692
0.702820
0.404381
-0.085483
0.230045
-0.027354
-0.135647
-0.127867
-0.149496
-0.022065
-0.064465
-0.113982
-0.177248
-0.170193
-0.168693
-0.139680
-0.029955
-0.103290
-0.313508
-0.219757
-0.059804
0.097984
-0.266976
-5.593380
-0.298002
-0.016065
-0.084873
-0.044970
-0.046485
-0.043152
-0.090560
-0.085228
-0.315201
-0.074035
-0.316457
-0.083967
-0.221597
-0.025742
-0.130383
0.019896
0.346289
0.232336
-0.057993
-0.061109
-0.295631
-0.298246
-0.098801
-0.108742
-0.026701
0.488330
-0.043090
-0.144452
-0.045982
-0.163727
-0.046147
-0.047679
-0.083921
-0.189363
-0.179659
-0.044271
-0.046059
-0.073132
-0.021424
-0.086274
-0.052526
-0.050605
-0.051747
-0.025316
0.012874
-0.031083
-0.022522
-0.075524
-0.059400
-0.057381
-0.017893
-0.315296
-0.012817
-0.064530
-0.028213
-0.254612
0.014175
-0.042707
-0.130477
-0.235578
-0.039115
-0.084008
-0.043000
-0.038027
-0.211663
0.526911
-0.283334
-0.231773
-0.093537
-0.081808
-0.075629
-0.153599
-0.237341
-0.190177
-0.075950
-0.093696
-0.060011
-0.014357
-0.049311
-0.041143
-0.026547
-0.049264
-0.064431
-0.058608
-0.061007
-0.031822
-0.068548
-0.185738
0.002329
0.012335
0.721536
-0.033345
-0.057090
-0.185953
0.046197
0.016180
-0.106897
-0.069014
-0.008217
-0.060377
-0.031703
-0.025204
-0.130792
-0.042576
-0.076280
-0.005461
-0.016936
0.004686
0.274976
-1.238789
-0.200082
-0.152273
-0.486046
-0.491295
-0.091695
-0.029100
-0.013652
-0.057774
-0.133608
-0.046739
-0.037701
-0.050850
-0.084018
0.285804
0.048422
-0.054882
0.088631
0.434620
-0.088860
0.012522
-0.025672
-0.062749
-0.078774
0.531958
0.265110
-0.062240
-0.011312
-0.060537
-0.072034
-0.011761
0.606003
-0.030096
0.022420
-0.075274
-0.017381
-0.024337
-0.046736
0.007185
-0.036155
-0.065988
-0.259695
-0.160411
-0.056924
-0.059783
-0.053199
-0.043756
-0.045025
-0.064909
-0.114445
-0.017738
-0.035624
-0.024875
-0.025493
-0.055829
-0.033233
-0.040692
-0.013112
-0.015298
-0.003008
0.267781
0.269382
0.255397
0.174278
0.122196
0.196830
0.263726
0.251238
0.000647
0.002903
-0.000332
0.009692
0.015984
0.018833
0.018842
0.023400
0.022649
0.336405
0.325103
0.330102
0.333526
0.017996
-0.038651
-0.026128
0.009083
0.010171
0.015516
0.003848
0.009729
0.002839
0.010074
0.152094
0.152703
0.145045
0.160867
0.013656
0.009007
0.011471
0.011188
0.011399
0.000995
0.004677
0.028047
0.000822
0.006056
0.019937
0.003642
0.007761
0.004995
0.035877
0.105791
0.243452
-0.020470
-0.011991
-0.001710
0.002862
0.119926
0.085173
0.009908
-0.004924
-0.000681
-0.024929
-0.019846
-0.021962
0.014326
0.016181
0.011237
-0.015836
0.002521
0.002369
0.008279
0.014525
-0.007735
-0.001010
0.002597
-0.008797
0.037448
0.025159
0.044872
0.022327
0.008649
0.006762
0.010491