# vtk DataFile Version 2.0
Test
ASCII
DATASET POLYDATA
POINTS 9785 float
0.000000 0.000000 0.000000
2.000000 0.000000 0.000000
2.000000 4.000000 0.000000
0.000000 4.000000 0.000000
0.000000 0.500000 0.000000
1.500000 2.000000 0.000000
2.000000 2.500000 0.000000
0.285714 0.000000 0.000000
0.571429 0.000000 0.000000
0.857143 0.000000 0.000000
1.142857 0.000000 0.000000
1.428571 0.000000 0.000000
1.714286 0.000000 0.000000
2.000000 0.280673 0.000000
2.000000 0.530361 0.000000
2.000000 0.752483 0.000000
2.000000 0.950084 0.000000
2.000000 1.125869 0.000000
2.000000 1.282249 0.000000
2.000000 1.421364 0.000000
2.000000 1.545121 0.000000
2.000000 1.655216 0.000000
2.000000 1.753157 0.000000
2.000000 1.840285 0.000000
2.000000 1.917794 0.000000
2.000000 1.986746 0.000000
2.000000 2.048086 0.000000
2.000000 2.102655 0.000000
2.000000 2.151199 0.000000
2.000000 2.194384 0.000000
2.000000 2.232801 0.000000
2.000000 2.266977 0.000000
2.000000 2.297380 0.000000
2.000000 2.324427 0.000000
2.000000 2.348488 0.000000
2.000000 2.369892 0.000000
2.000000 2.388934 0.000000
2.000000 2.405873 0.000000
2.000000 2.420943 0.000000
2.000000 2.434348 0.000000
2.000000 2.446274 0.000000
2.000000 2.456883 0.000000
2.000000 2.466321 0.000000
2.000000 2.474717 0.000000
2.000000 2.482186 0.000000
2.000000 2.488831 0.000000
2.000000 2.494742 0.000000
2.000000 2.505473 0.000000
2.000000 2.512124 0.000000
2.000000 2.520207 0.000000
2.000000 2.530031 0.000000
2.000000 2.541968 0.000000
2.000000 2.556476 0.000000
2.000000 2.574107 0.000000
2.000000 2.595533 0.000000
2.000000 2.621572 0.000000
2.000000 2.653216 0.000000
2.000000 2.691672 0.000000
2.000000 2.738407 0.000000
2.000000 2.795203 0.000000
2.000000 2.864225 0.000000
2.000000 2.948106 0.000000
2.000000 3.050044 0.000000
2.000000 3.173927 0.000000
2.000000 3.324478 0.000000
2.000000 3.507439 0.000000
2.000000 3.729787 0.000000
1.714286 4.000000 0.000000
1.428571 4.000000 0.000000
1.142857 4.000000 0.000000
0.857143 4.000000 0.000000
0.571429 4.000000 0.000000
0.285714 4.000000 0.000000
0.000000 3.714677 0.000000
0.000000 3.452225 0.000000
0.000000 3.210813 0.000000
0.000000 2.988752 0.000000
0.000000 2.784493 0.000000
0.000000 2.596607 0.000000
0.000000 2.423783 0.000000
0.000000 2.264813 0.000000
0.000000 2.118586 0.000000
0.000000 1.984081 0.000000
0.000000 1.860358 0.000000
0.000000 1.746553 0.000000
0.000000 1.641871 0.000000
0.000000 1.545581 0.000000
0.000000 1.457009 0.000000
0.000000 1.375538 0.000000
0.000000 1.300597 0.000000
0.000000 1.231664 0.000000
0.000000 1.168257 0.000000
0.000000 1.109932 0.000000
0.000000 1.056283 0.000000
0.000000 1.006935 0.000000
0.000000 0.961543 0.000000
0.000000 0.919789 0.000000
0.000000 0.881382 0.000000
0.000000 0.846054 0.000000
0.000000 0.813558 0.000000
0.000000 0.783667 0.000000
0.000000 0.756173 0.000000
0.000000 0.730882 0.000000
0.000000 0.707618 0.000000
0.000000 0.686220 0.000000
0.000000 0.666537 0.000000
0.000000 0.648431 0.000000
0.000000 0.631777 0.000000
0.000000 0.616458 0.000000
0.000000 0.602367 0.000000
0.000000 0.589406 0.000000
0.000000 0.577484 0.000000
0.000000 0.566517 0.000000
0.000000 0.556429 0.000000
0.000000 0.547151 0.000000
0.000000 0.538615 0.000000
0.000000 0.530765 0.000000
0.000000 0.523543 0.000000
0.000000 0.516900 0.000000
0.000000 0.510790 0.000000
0.000000 0.505170 0.000000
0.000000 0.494407 0.000000
0.000000 0.486677 0.000000
0.000000 0.475993 0.000000
0.000000 0.461226 0.000000
0.000000 0.440815 0.000000
0.000000 0.412605 0.000000
0.000000 0.373615 0.000000
0.000000 0.319724 0.000000
0.000000 0.245240 0.000000
0.000000 0.142291 0.000000
0.003529 0.503529 0.000000
0.007059 0.507059 0.000000
0.010588 0.510588 0.000000
0.014118 0.514118 0.000000
0.017647 0.517647 0.000000
0.021176 0.521176 0.000000
0.024706 0.524706 0.000000
0.028235 0.528235 0.000000
0.031765 0.531765 0.000000
0.035294 0.535294 0.000000
0.038824 0.538824 0.000000
0.042353 0.542353 0.000000
0.045882 0.545882 0.000000
0.049412 0.549412 0.000000
0.052941 0.552941 0.000000
0.056471 0.556471 0.000000
0.060000 0.560000 0.000000
0.063529 0.563529 0.000000
0.067059 0.567059 0.000000
0.070588 0.570588 0.000000
0.074118 0.574118 0.000000
0.077647 0.577647 0.000000
0.081176 0.581176 0.000000
0.084706 0.584706 0.000000
0.088235 0.588235 0.000000
0.091765 0.591765 0.000000
0.095294 0.595294 0.000000
0.098824 0.598824 0.000000
0.102353 0.602353 0.000000
0.105882 0.605882 0.000000
0.109412 0.609412 0.000000
0.112941 0.612941 0.000000
0.116471 0.616471 0.000000
0.120000 0.620000 0.000000
0.123529 0.623529 0.000000
0.127059 0.627059 0.000000
0.130588 0.630588 0.000000
0.134118 0.634118 0.000000
0.137647 0.637647 0.000000
0.141176 0.641176 0.000000
0.144706 0.644706 0.000000
0.148235 0.648235 0.000000
0.151765 0.651765 0.000000
0.155294 0.655294 0.000000
0.158824 0.658824 0.000000
0.162353 0.662353 0.000000
0.165882 0.665882 0.000000
0.169412 0.669412 0.000000
0.172941 0.672941 0.000000
0.176471 0.676471 0.000000
0.180000 0.680000 0.000000
0.183529 0.683529 0.000000
0.187059 0.687059 0.000000
0.190588 0.690588 0.000000
0.194118 0.694118 0.000000
0.197647 0.697647 0.000000
0.201176 0.701176 0.000000
0.204706 0.704706 0.000000
0.208235 0.708235 0.000000
0.211765 0.711765 0.000000
0.215294 0.715294 0.000000
0.218824 0.718824 0.000000
0.222353 0.722353 0.000000
0.225882 0.725882 0.000000
0.229412 0.729412 0.000000
0.232941 0.732941 0.000000
0.236471 0.736471 0.000000
0.240000 0.740000 0.000000
0.243529 0.743529 0.000000
0.247059 0.747059 0.000000
0.250588 0.750588 0.000000
0.254118 0.754118 0.000000
0.257647 0.757647 0.000000
0.261176 0.761176 0.000000
0.264706 0.764706 0.000000
0.268235 0.768235 0.000000
0.271765 0.771765 0.000000
0.275294 0.775294 0.000000
0.278824 0.778824 0.000000
0.282353 0.782353 0.000000
0.285882 0.785882 0.000000
0.289412 0.789412 0.000000
0.292941 0.792941 0.000000
0.296471 0.796471 0.000000
0.300000 0.800000 0.000000
0.303529 0.803529 0.000000
0.307059 0.807059 0.000000
0.310588 0.810588 0.000000
0.314118 0.814118 0.000000
0.317647 0.817647 0.000000
0.321176 0.821176 0.000000
0.324706 0.824706 0.000000
0.328235 0.828235 0.000000
0.331765 0.831765 0.000000
0.335294 0.835294 0.000000
0.338824 0.838824 0.000000
0.342353 0.842353 0.000000
0.345882 0.845882 0.000000
0.349412 0.849412 0.000000
0.352941 0.852941 0.000000
0.356471 0.856471 0.000000
0.360000 0.860000 0.000000
0.363529 0.863529 0.000000
0.367059 0.867059 0.000000
0.370588 0.870588 0.000000
0.374118 0.874118 0.000000
0.377647 0.877647 0.000000
0.381176 0.881176 0.000000
0.384706 0.884706 0.000000
0.388235 0.888235 0.000000
0.391765 0.891765 0.000000
0.395294 0.895294 0.000000
0.398824 0.898824 0.000000
0.402353 0.902353 0.000000
0.405882 0.905882 0.000000
0.409412 0.909412 0.000000
0.412941 0.912941 0.000000
0.416471 0.916471 0.000000
0.420000 0.920000 0.000000
0.423529 0.923529 0.000000
0.427059 0.927059 0.000000
0.430588 0.930588 0.000000
0.434118 0.934118 0.000000
0.437647 0.937647 0.000000
0.441176 0.941176 0.000000
0.444706 0.944706 0.000000
0.448235 0.948235 0.000000
0.451765 0.951765 0.000000
0.455294 0.955294 0.000000
0.458824 0.958824 0.000000
0.462353 0.962353 0.000000
0.465882 0.965882 0.000000
0.469412 0.969412 0.000000
0.472941 0.972941 0.000000
0.476471 0.976471 0.000000
0.480000 0.980000 0.000000
0.483529 0.983529 0.000000
0.487059 0.987059 0.000000
0.490588 0.990588 0.000000
0.494118 0.994118 0.000000
0.497647 0.997647 0.000000
0.501176 1.001176 0.000000
0.504706 1.004706 0.000000
0.508235 1.008235 0.000000
0.511765 1.011765 0.000000
0.515294 1.015294 0.000000
0.518824 1.018824 0.000000
0.522353 1.022353 0.000000
0.525882 1.025882 0.000000
0.529412 1.029412 0.000000
0.532941 1.032941 0.000000
0.536471 1.036471 0.000000
0.540000 1.040000 0.000000
0.543529 1.043529 0.000000
0.547059 1.047059 0.000000
0.550588 1.050588 0.000000
0.554118 1.054118 0.000000
0.557647 1.057647 0.000000
0.561176 1.061176 0.000000
0.564706 1.064706 0.000000
0.568235 1.068235 0.000000
0.571765 1.071765 0.000000
0.575294 1.075294 0.000000
0.578824 1.078824 0.000000
0.582353 1.082353 0.000000
0.585882 1.085882 0.000000
0.589412 1.089412 0.000000
0.592941 1.092941 0.000000
0.596471 1.096471 0.000000
0.600000 1.100000 0.000000
0.603529 1.103529 0.000000
0.607059 1.107059 0.000000
0.610588 1.110588 0.000000
0.614118 1.114118 0.000000
0.617647 1.117647 0.000000
0.621176 1.121176 0.000000
0.624706 1.124706 0.000000
0.628235 1.128235 0.000000
0.631765 1.131765 0.000000
0.635294 1.135294 0.000000
0.638824 1.138824 0.000000
0.642353 1.142353 0.000000
0.645882 1.145882 0.000000
0.649412 1.149412 0.000000
0.652941 1.152941 0.000000
0.656471 1.156471 0.000000
0.660000 1.160000 0.000000
0.663529 1.163529 0.000000
0.667059 1.167059 0.000000
0.670588 1.170588 0.000000
0.674118 1.174118 0.000000
0.677647 1.177647 0.000000
0.681176 1.181176 0.000000
0.684706 1.184706 0.000000
0.688235 1.188235 0.000000
0.691765 1.191765 0.000000
0.695294 1.195294 0.000000
0.698824 1.198824 0.000000
0.702353 1.202353 0.000000
0.705882 1.205882 0.000000
0.709412 1.209412 0.000000
0.712941 1.212941 0.000000
0.716471 1.216471 0.000000
0.720000 1.220000 0.000000
0.723529 1.223529 0.000000
0.727059 1.227059 0.000000
0.730588 1.230588 0.000000
0.734118 1.234118 0.000000
0.737647 1.237647 0.000000
0.741176 1.241176 0.000000
0.744706 1.244706 0.000000
0.748235 1.248235 0.000000
0.751765 1.251765 0.000000
0.755294 1.255294 0.000000
0.758824 1.258824 0.000000
0.762353 1.262353 0.000000
0.765882 1.265882 0.000000
0.769412 1.269412 0.000000
0.772941 1.272941 0.000000
0.776471 1.276471 0.000000
0.780000 1.280000 0.000000
0.783529 1.283529 0.000000
0.787059 1.287059 0.000000
0.790588 1.290588 0.000000
0.794118 1.294118 0.000000
0.797647 1.297647 0.000000
0.801176 1.301176 0.000000
0.804706 1.304706 0.000000
0.808235 1.308235 0.000000
0.811765 1.311765 0.000000
0.815294 1.315294 0.000000
0.818824 1.318824 0.000000
0.822353 1.322353 0.000000
0.825882 1.325882 0.000000
0.829412 1.329412 0.000000
0.832941 1.332941 0.000000
[...]
POINT_DATA 9785
SCALARS UX float 1
LOOKUP_TABLE default
0.019901
0.061945
-0.012723
-0.054074
0.022569
0.050361
0.022869
0.023029
0.027177
0.031742
0.038130
0.044582
0.052850
0.062896
0.065235
0.068769
0.072819
0.077079
0.081340
0.085203
0.088238
0.089798
0.089565
0.086980
0.082688
0.077068
0.070795
0.064481
0.058653
0.053366
0.048747
0.044775
0.041371
0.038473
0.036010
0.033904
0.032098
0.030545
0.029218
0.028060
0.027060
0.026196
0.025440
0.024781
0.024206
0.023701
0.023258
0.022469
0.021988
0.021412
0.020732
0.019915
0.018951
0.017830
0.016521
0.014988
0.013234
0.011306
0.009133
0.006664
0.004025
0.001323
-0.001549
-0.004433
-0.007282
-0.009914
-0.011795
-0.021803
-0.029793
-0.036495
-0.042152
-0.046480
-0.050499
-0.052471
-0.049295
-0.044166
-0.038353
-0.032261
-0.026548
-0.021580
-0.017632
-0.014778
-0.013199
-0.012564
-0.012792
-0.013700
-0.015094
-0.016897
-0.018932
-0.021191
-0.023542
-0.025956
-0.028361
-0.030769
-0.033124
-0.035422
-0.037624
-0.039706
-0.041675
-0.043506
-0.045204
-0.046769
-0.048178
-0.049452
-0.050574
-0.051548
-0.052359
-0.053033
-0.053558
-0.053898
-0.054106
-0.054116
-0.053896
-0.053473
-0.052733
-0.051579
-0.049768
-0.047368
-0.043050
-0.032949
-0.013804
0.023161
0.023356
0.023457
0.023351
0.023204
0.022868
0.022338
0.021704
0.020901
0.020295
0.021337
0.021336
0.019291
0.014325
0.012138
0.009998
0.006320
0.005301
-0.002785
-0.005707
-0.004659
-0.004895
-0.006681
-0.009107
-0.010318
-0.010683
-0.010470
-0.005211
-0.003452
-0.001963
-0.003231
-0.002186
-0.002516
-0.000636
-0.002564
-0.003468
-0.001158
-0.002438
-0.000987
-0.002743
-0.012636
-0.008468
-0.011698
-0.012995
-0.010162
-0.009145
-0.009393
-0.005610
-0.006283
-0.004444
-0.007512
-0.005929
-0.006904
-0.010091
-0.008134
-0.008592
-0.005505
-0.014927
-0.008004
-0.003666
-0.001885
-0.002441
-0.003556
-0.009980
-0.010060
-0.008288
-0.006468
-0.004724
-0.002137
-0.007116
-0.009230
-0.001346
0.001642
-0.001607
0.000730
0.000696
-0.004290
-0.003956
-0.000730
-0.002265
-0.005146
-0.003786
-0.005309
-0.000440
-0.001534
0.000443
-0.004463
-0.009826
-0.004515
-0.000999
-0.000657
-0.002825
-0.001232
-0.002385
-0.003233
0.000459
0.000162
0.003664
-0.003545
-0.002387
0.001478
-0.000394
-0.001782
-0.004146
-0.004630
-0.005871
-0.004947
-0.000953
0.004122
0.004385
0.006795
0.002934
-0.000484
0.000702
0.000274
0.005923
0.012286
0.004550
0.005749
0.005121
0.008904
0.001756
0.000259
-0.003796
-0.005755
-0.000949
0.005071
0.000451
-0.005243
-0.001109
0.001403
0.005175
0.002043
0.005857
0.008807
0.009024
0.004659
-0.000559
0.007323
0.005768
0.005322
0.005229
0.006724
0.003851
0.003859
0.007445
0.011130
0.005741
0.009764
0.007136
0.001896
0.004916
0.007287
0.010354
0.010624
0.008705
0.010664
0.010846
0.015764
0.016923
0.018157
0.016132
0.016524
0.014860
0.009655
0.010397
0.013620
0.014998
0.014455
0.008192
0.009978
0.011975
0.012385
0.015467
0.014450
0.013026
0.011835
0.013451
0.014052
0.017188
0.017313
0.013929
0.017273
0.012953
0.015439
0.019897
0.017010
0.013502
0.014282
0.014912
0.009899
0.013870
0.013991
0.014805
0.013610
0.016022
0.011648
0.019041
0.016964
0.016298
0.018484
0.016989
0.018777
0.015045
0.016537
0.013044
0.013865
0.019522
0.021325
0.022206
0.021207
0.022627
0.026998
0.024273
0.021208
0.021250
0.019101
0.013602
0.019179
0.022764
0.021952
0.019924
0.022674
0.025227
0.023029
0.016773
0.015550
0.018373
0.018137
0.019606
0.013758
0.021824
0.024055
0.021328
0.024981
0.022813
0.019584
0.017659
0.019800
0.021278
0.023270
0.027376
0.024866
0.027157
0.022610
0.021679
0.024306
0.029670
0.029979
0.027504
0.023189
0.020811
0.024836
0.019644
0.019452
0.019089
0.023192
0.023481
0.026867
0.025282
0.024743
0.024013
0.025344
0.024564
0.025689
0.026381
0.026857
0.030247
0.029036
0.025765
0.024697
0.021829
0.027613
0.031457
0.034048
0.032890
0.034682
0.035644
0.031594
0.028623
0.028684
0.032945
0.033283
0.027295
0.028980
0.029586
0.032300
0.031755
0.034069
0.031458
0.032549
0.036066
0.030816
0.033922
0.035663
0.038777
0.042067
0.037177
0.034977
0.032780
0.035099
0.033185
0.032529
0.032259
0.029093
0.031892
0.032372
0.035508
0.036942
0.035224
0.036376
0.033537
0.034636
0.037202
0.036213
0.034963
0.037380
0.037014
0.038672
0.036776
0.035400
0.034702
0.036302
0.034662
0.035162
0.036851
0.035887
0.034397
0.035940
0.036095
0.036423
0.038016
0.041160
0.035809
0.035076
0.036804
0.037294
0.035873
0.038140
0.039408
0.037675
0.038768
0.042776
0.042844
0.039507
0.031886
0.038898
0.041679
0.045533
0.041103
0.042100
0.040135
0.041206
0.040753
0.040063
0.041129
0.040408
0.040367
0.039101
0.044181
0.047076
0.046594
0.045653
0.042705
0.040777
0.037059
0.039332
0.041824
0.047595
0.047592
0.042766
0.044743
0.049416
0.045757
0.045641
0.044463
0.046023
0.043101
0.042804
0.043594
0.045191
0.046294
0.045349
0.047967
0.044502
0.047835
0.045172
0.042064
0.045376
0.046475
0.047586
0.047730
0.045892
0.043313
0.043889
0.044427
0.044146
0.046204
0.044393
0.045332
0.046259
0.048451
0.053511
0.049884
0.050316
0.049432
0.050973
0.049921
0.051943
0.050000
0.049611
0.049827
0.048901
0.047202
0.046597
0.047570
0.048760
0.047558
0.049938
0.049099
0.046650
0.045080
0.046881
0.047519
0.047969
0.048554
0.048446
0.049682
0.046620
0.047963
0.048661
0.048611
0.048484
0.049247
0.050677
0.050333
0.049842
0.049415
0.048977
0.048508
0.048087
0.047699
0.047297
0.046922
0.046576
0.046225
0.045898
0.045588
0.045279
0.044975
0.044679
0.044396
0.044121
0.043852
0.043586
0.043333
0.043082
0.042840
0.042596
0.042360
0.042131
0.041906
0.041682
0.041459
0.041245
0.041028
0.040816
0.040608
0.040403
0.040197
0.039996
0.039792
0.039593
0.039394
0.039198
0.039002
0.038808
0.038618
0.038422
0.038230
0.038038
0.037848
0.037657
0.037467
0.037277
0.037088
0.036899
0.036710
0.036522
0.036334
0.036147
0.035959
0.035770
0.035582
0.035394
0.035206
0.035019
0.034830
0.034643
0.034455
0.034268
0.034079
0.033891
0.033703
0.033514
0.033326
0.033138
0.032950
0.032762
0.032575
0.032388
0.032201
0.032013
0.031827
0.031641
0.031455
0.031269
0.031084
0.030899
0.030715
0.030530
0.030348
0.030165
0.029984
0.029804
0.029625
0.029446
0.029269
0.029092
0.028916
0.028741
0.028569
0.028397
0.028226
0.028056
0.027889
0.027722
0.027557
0.027394
0.027232
0.027073
0.026915
0.026758
0.026604
0.026451
0.026301
0.026152
0.026006
0.025861
0.025719
0.025579
0.025441
0.025305
0.025172
0.025042
0.024913
0.024787
0.024664
0.024542
0.024424
0.024308
0.024194
0.024083
0.023974
0.023868
0.023765
0.023664
0.023565
0.023470
0.023376
0.023285
0.023197
0.023112
0.023028
0.022947
0.045666
0.047291
0.046741
0.032467
0.032073
0.032775
0.038024
0.038430
0.038876
0.039378
0.009532
0.009084
0.009274
0.024404
0.025455
0.023914
0.025629
0.025831
0.027187
0.023981
-0.005365
-0.006858
-0.006048
-0.007076
0.024820
0.025615
0.025410
0.025695
-0.005678
-0.007521
-0.006713
-0.006323
0.003581
0.005058
0.006677
0.007456
0.009322
0.014095
0.014499
0.014238
0.014224
0.032077
0.031506
0.032402
0.002728
0.000508
-0.010345
-0.011413
-0.009918
0.018308
0.020167
0.020059
0.019183
-0.002714
0.000654
-0.002973
-0.011932
-0.007124
-0.007410
-0.008622
0.025059
0.023452
0.023251
0.025344
0.025891
0.024987
0.025330
0.024339
0.023427
0.026207
0.019071
0.020875
0.021031
0.019489
-0.010228
-0.013618
0.021810
-0.027707
-0.027369
-0.027316
-0.027739
-0.000366
-0.000718
-0.000467
-0.000723
0.031193
0.025883
-0.018485
-0.018704
-0.018865
-0.018270
-0.010137
-0.010202
-0.009841
0.020543
0.024800
0.003157
0.003364
0.003434
0.027205
0.027370
0.026694
0.027126
0.026096
0.026190
0.025712
0.003048
0.017391
0.016621
0.015370
0.026665
0.032005
0.031443
0.032306
0.032066
0.037474
0.038445
0.037231
0.038686
0.037400
0.038308
0.038893
0.024860
0.025280
0.024985
0.028386
0.027610
0.028394
0.027279
0.025532
0.041780
0.043846
0.041892
0.017385
0.017632
0.017158
0.017440
0.034342
0.035541
0.034850
-0.034949
-0.035123
-0.035391
-0.034649
0.036295
0.011413
0.011368
0.011668
0.011657
0.025784
0.023655
0.024557
0.025586
0.033342
0.034794
0.033730
0.035225
0.001476
0.001235
0.001128
0.000903
0.017266
0.016963
0.017300
0.004798
0.004708
0.004479
0.005093
0.001652
0.004513
0.016977
0.004249
0.009415
0.009536
0.009810
0.009225
0.018293
0.018840
0.018470
0.019023
-0.017734
-0.017834
-0.017234
0.034002
0.034083
0.033346
0.033891
0.029842
0.028054
0.028154
0.026874
0.031636
0.035409
0.034803
0.034691
0.012943
0.012147
0.013276
0.012572
0.013067
0.011232
0.011865
0.006315
0.005796
0.006184
0.005909
0.024584
0.024502
0.025659
0.023205
0.023229
0.022493
0.022945
0.022584
0.030577
0.030237
0.030998
0.030613
0.022513
0.021772
0.023423
0.020250
-0.011711
-0.011896
-0.012365
0.010893
0.010629
0.010543
0.010820
-0.051882
-0.051567
-0.051169
-0.050892
-0.006389
-0.006703
-0.006177
-0.006701
-0.005634
-0.005393
0.033998
-0.003738
0.002849
0.004842
0.002293
0.005828
-0.000433
-0.003365
-0.004440
-0.004949
0.013229
0.013516
0.013369
0.013651
-0.022927
-0.021827
-0.022794
-0.025578
-0.024374
-0.025370
-0.009548
-0.008263
-0.008447
-0.008771
-0.051053
-0.051559
-0.051532
-0.051154
-0.051400
-0.051791
-0.027290
-0.026017
-0.026698
-0.024889
-0.034922
-0.034563
-0.033590
-0.035480
-0.016721
-0.016721
-0.017049
-0.024115
0.001324
0.002305
-0.001347
-0.050524
0.017535
0.018425
0.011075
0.011117
0.011379
-0.012199
-0.012714
-0.012969
-0.013149
0.002008
0.001535
0.002287
0.001536
0.011653
0.011620
0.014169
0.010325
-0.031250
-0.030742
-0.030805
-0.030127
-0.009957
-0.009315
-0.006270
-0.011231
-0.017886
-0.016769
-0.022071
-0.019269
-0.026872
-0.027753
-0.028027
-0.026300
-0.017715
-0.018050
-0.017170
-0.017940
-0.015770
-0.015592
-0.014591
-0.014634
-0.008299
-0.008076
-0.008583
-0.008457
-0.020425
-0.019003
-0.019096
-0.017735
-0.018692
-0.017806
-0.018406
-0.006549
0.001603
-0.000631
0.000299
-0.001573
0.024536
0.024726
0.003513
0.002158
0.002126
0.040607
0.041452
0.039896
-0.004928
-0.004370
-0.004586
-0.004683
0.021635
0.022019
0.022638
0.029779
0.028013
0.016316
0.015204
0.015660
0.026572
-0.010872
-0.011498
0.035451
0.012639
0.012660
0.013006
-0.013790
-0.013478
-0.013480
-0.025354
-0.026472
-0.013761
-0.013310
-0.006377
-0.006401
-0.006075
-0.005985
-0.029857
-0.030201
-0.028217
-0.031124
-0.036557
-0.037257
-0.036674
-0.037558
-0.044404
-0.044032
-0.045377
-0.043281
0.008344
0.005620
0.007224
0.004367
-0.040500
-0.039845
-0.039716
-0.040753
0.000720
0.001361
0.001104
-0.000378
0.000919
-0.000094
0.001922
0.022399
0.023715
0.023104
-0.010111
-0.012880
-0.013763
-0.000830
-0.000752
-0.000000
0.000591
-0.014408
-0.010143
-0.009781
-0.009772
-0.010025
0.013206
0.013385
0.012980
0.040232
0.040899
0.039476
0.040592
0.004285
0.004123
0.004060
0.039190
0.038789
0.038260
0.023612
0.023439
0.039784
0.039205
0.038823
0.040162
0.000828
0.004027
0.004189
0.015045
0.018084
0.011687
0.002818
0.007718
0.007559
0.007513
0.007869
0.009144
0.005907
0.005481
0.029271
0.030577
0.030839
0.014335
0.015006
0.013737
0.013050
0.011423
0.016704
0.016232
0.016427
-0.013686
-0.013240
-0.014770
0.007343
0.006556
0.007305
0.009702
0.009585
0.009924
0.015271
0.022135
0.022599
0.022203
-0.011283
-0.012755
-0.012970
-0.010835
-0.003493
-0.003231
-0.001667
-0.004778
-0.040378
-0.038985
-0.039005
-0.037435
0.032596
0.045805
0.045187
0.006110
0.003631
0.044018
0.013914
0.012412
0.012857
-0.010011
-0.009815
0.043164
0.045040
0.045060
0.011898
-0.015669
-0.015446
-0.015696
-0.015346
0.002074
0.040895
0.042026
-0.012192
-0.005056
-0.004160
-0.003927
0.013876
0.013890
0.014317
0.010859
0.011163
0.011568
0.011699
-0.001589
-0.001298
-0.001488
-0.001173
0.010261
0.009248
0.009608
0.013490
-0.007547
-0.008864
-0.009737
-0.012373
0.022265
0.023034
0.022604
0.023050
0.022846
0.023047
0.024685
0.013381
0.012667
0.012661
0.012127
-0.013395
-0.011042
-0.014448
-0.026187
-0.025883
-0.026372
-0.025987
-0.038646
-0.036747
0.002536
0.002973
0.002639
0.042296
0.043396
0.043312
0.003193
0.007011
0.007092
0.006766
0.007297
0.018764
0.019120
0.020377
-0.040644
-0.039151
0.042281
0.017412
0.006416
0.006709
0.006452
0.006761
0.028028
0.028452
0.028855
0.027848
0.003212
0.001807
0.025954
0.029330
0.028775
-0.009216
-0.012562
-0.009652
0.000121
-0.000001
-0.000231
-0.002022
-0.003013
-0.002828
0.000398
-0.004039
-0.003639
-0.004488
-0.000456
-0.000384
-0.000654
0.025940
0.027365
0.026411
0.021752
0.022001
0.021655
0.004247
0.004043
0.003947
0.004401
0.004831
0.004609
0.004460
0.021137
0.022281
0.014199
0.021457
0.021010
0.021392
0.007385
0.007656
0.007268
0.006899
-0.024740
-0.025090
-0.024823
0.004311
0.012055
0.010088
0.012717
0.012637
0.023601
0.023711
0.024156
0.003438
0.004969
0.012261
0.012294
0.006402
0.006230
0.007100
0.006837
0.009474
0.010384
0.010010
-0.002562
-0.001925
-0.003155
-0.002820
0.008627
0.008678
-0.011002
-0.011425
-0.011297
-0.011732
0.023249
0.019516
0.021574
0.021434
0.041088
0.041462
0.019212
0.019067
0.018851
0.025402
0.026646
0.025351
-0.005632
-0.004765
-0.004894
0.005536
0.003369
0.026380
0.032723
0.034340
0.033695
0.025418
0.023284
0.026430
-0.013209
-0.011797
-0.011635
-0.017486
-0.017834
-0.017751
-0.018109
-0.025225
0.028034
0.027726
0.027077
0.028742
0.008826
0.008971
0.008366
0.013316
0.013412
0.012667
0.009892
0.008152
0.007974
0.025246
0.025815
0.024781
0.026115
0.007812
0.035039
0.034397
0.035557
0.032124
0.031375
0.032237
0.034112
-0.041193
-0.046804
-0.046193
-0.048412
0.019088
0.018755
0.019117
0.018776
0.034513
0.034759
-0.037798
-0.036872
-0.037781
0.022104
0.022102
0.022979
-0.036134
-0.037760
-0.038253
-0.038177
0.005677
0.005545
0.005894
0.018497
0.018117
0.018794
0.018307
-0.007759
-0.008231
-0.008031
0.005609
0.002652
0.003882
0.020155
0.019168
0.018062
0.039393
0.039024
0.040440
0.004424
0.040367
0.004945
0.005356
0.004692
-0.028461
-0.028559
-0.030283
-0.029281
-0.029099
-0.029987
0.013817
0.013222
0.014105
0.007587
0.007271
0.003611
0.001849
0.000001
0.004200
0.020578
0.019701
0.019877
0.020320
0.020685
0.021138
-0.049668
-0.049573
-0.047451
0.005100
0.005327
0.004653
0.000595
0.000510
0.000049
0.006232
0.008844
0.008823
0.012727
0.012532
0.012394
0.000158
0.000218
0.000545
0.039614
0.039094
0.038632
0.012859
-0.014245
-0.014630
-0.014524
-0.014435
0.007938
0.007943
-0.018224
-0.018257
-0.018585
0.007422
0.006432
0.030838
0.032318
0.031608
0.023540
0.024049
-0.021796
-0.021922
-0.021456
-0.008718
-0.008125
-0.008785
0.029937
0.005713
0.006727
0.005823
0.024494
0.024712
-0.026691
-0.026009
-0.026341
-0.026412
0.004191
0.001131
0.000540
0.016818
0.017170
0.016692
0.017457
0.013157
0.012948
0.002957
0.013426
-0.029240
-0.028889
-0.028886
-0.018896
-0.028573
-0.029559
-0.029495
-0.029939
0.032156
0.006059
0.005749
0.006113
0.009833
0.008853
0.012758
0.013493
0.027468
0.028344
0.003072
0.004921
0.002451
0.004219
0.013195
0.012302
0.027227
0.027701
0.028655
0.026132
0.022559
0.022379
0.003952
0.004048
0.031558
0.031356
0.030701
0.030479
0.003697
0.005638
0.007620
0.006411
0.013339
0.012707
0.013208
0.034495
0.035478
0.034218
0.036032
0.008833
0.007769
0.013116
0.009529
0.008863
0.009257
0.012764
0.008959
0.027387
0.026155
0.010062
0.027320
0.009873
0.010205
0.010104
0.013515
0.012487
0.014612
0.029133
0.029071
0.028022
0.028494
-0.025213
-0.027324
-0.025923
0.009985
-0.016553
-0.017848
-0.016666
-0.017391
-0.027290
-0.042479
-0.043811
-0.041993
0.010502
0.009987
-0.044139
0.023960
0.023463
0.023006
-0.025845
-0.029526
-0.029502
0.022471
-0.001005
-0.000108
0.005605
0.007982
0.004087
-0.007390
-0.009587
-0.013417
0.012416
0.012672
0.012218
0.003313
0.003395
0.003129
0.003601
-0.000607
-0.000977
-0.005941
-0.006068
-0.006384
-0.005626
0.012399
0.012054
-0.006819
-0.006551
-0.006874
0.003356
0.003590
0.011825
0.011580
0.011877
0.011613
0.028785
0.028556
0.028163
0.008482
0.007633
0.008142
0.029770
0.029707
0.011754
0.008528
0.009144
0.008852
-0.001743
-0.002196
-0.002220
0.023446
0.023977
0.022638
0.011927
0.032519
0.033342
0.033274
0.017636
0.017605
0.018050
0.027539
0.027596
0.027089
0.017166
0.027271
-0.000811
-0.000328
0.015486
0.015749
0.015397
-0.019128
-0.019291
-0.019582
-0.018953
0.016864
0.016025
0.018105
0.018473
0.012316
0.014461
-0.003685
0.014561
0.014241
0.014630
0.015712
0.009007
0.009424
0.009303
-0.019941
-0.019679
-0.019392
-0.020122
-0.024428
-0.024847
0.022514
-0.024477
0.010735
0.009772
0.010340
0.024114
0.030746
0.020595
0.020931
0.021162
0.021594
0.031092
0.015006
0.014516
0.028946
-0.021667
-0.021646
-0.021239
-0.020838
-0.050929
-0.050473
-0.051223
0.010027
0.036646
0.035997
0.034971
0.037679
0.037289
-0.032794
-0.033132
-0.033625
-0.031714
-0.033802
-0.031321
-0.028833
-0.024038
-0.032527
0.024995
0.024988
0.017118
0.017666
0.018310
-0.003205
-0.003753
-0.003460
0.025137
-0.003846
0.001503
-0.001060
0.014395
0.016077
0.016570
0.018337
-0.029651
-0.030018
-0.029772
0.013986
-0.012523
-0.030297
-0.000787
-0.001294
-0.001482
-0.029233
-0.029097
0.020194
0.020820
0.020641
-0.000613
0.020352
0.006481
-0.017517
-0.017467
-0.017154
0.007545
0.000877
0.000558
0.007189
-0.025422
-0.024898
-0.029090
-0.028929
-0.032637
-0.037618
-0.023689
-0.024098
-0.024029
0.010127
0.010668
0.001159
0.001237
-0.023641
0.001558
0.026215
0.026139
0.025385
0.010180
0.007813
0.008182
0.027142
0.024266
0.024638
0.023417
0.027300
0.027977
0.028374
0.028921
-0.029943
-0.030611
-0.029693
-0.030505
-0.029813
-0.011548
-0.012430
-0.012019
-0.012031
-0.011355
-0.004389
0.005287
-0.001275
-0.040792
0.007830
0.007648
0.007352
0.008140
0.025232
0.012451
0.012161
-0.002658
-0.003062
-0.002752
-0.002061
-0.042416
-0.042944
-0.042481
-0.042775
-0.042688
0.021909
0.020333
0.021518
0.019656
0.020194
0.006502
0.005954
0.006511
-0.017004
0.036565
0.035897
0.034109
0.013610
0.034251
-0.000128
0.000000
-0.000187
-0.001994
-0.003026
-0.001718
0.004417
0.004580
0.003770
0.003842
0.016128
0.003590
-0.040831
-0.040424
-0.041037
-0.041552
-0.040334
0.008173
-0.003023
-0.004209
-0.030155
-0.030609
-0.030563
-0.004526
-0.030997
-0.033489
-0.033968
-0.032827
-0.033325
0.033360
0.033074
-0.000930
-0.021297
-0.016572
0.020795
0.019436
0.010330
0.010109
0.010382
0.002556
0.004233
-0.017718
-0.017069
-0.017095
0.023418
0.017607
0.018345
-0.005717
-0.041183
-0.040917
-0.041468
-0.040711
0.024401
0.023685
0.024852
0.003978
0.003393
0.004110
0.022523
0.017552
0.016853
0.016993
0.016773
0.011930
0.014910
0.014133
0.022747
0.024174
0.024653
0.025400
-0.012736
-0.013298
-0.012914
0.007909
0.020293
0.019277
0.019663
0.020810
0.020619
0.027124
0.026198
0.027546
0.025919
0.010325
0.008060
0.010137
0.011132
-0.035104
-0.035770
-0.035910
-0.002958
-0.002120
-0.003340
0.012814
0.011607
0.007715
0.005996
0.005683
0.006535
0.006330
-0.037109
-0.036125
0.007457
-0.002076
-0.000805
0.000341
-0.000079
-0.000339
0.023677
0.023096
0.024786
-0.050544
-0.051391
-0.050550
0.023006
-0.003838
0.018464
0.016860
0.016888
-0.013126
-0.013765
-0.013228
-0.013878
0.024190
0.024602
0.029862
-0.038365
0.013855
0.014441
0.011826
0.011411
0.012004
0.009763
0.010567
0.007813
0.012843
-0.026836
-0.027993
-0.032501
-0.032918
-0.026587
0.028287
0.028210
0.027569
0.022672
-0.023890
-0.023406
-0.023550
0.027859
-0.023177
0.030497
0.029728
0.029806
0.015805
0.016485
0.016988
0.017526
0.027031
-0.024296
-0.016368
-0.015410
-0.016230
0.001144
0.001475
0.001349
-0.017955
0.001773
-0.025271
-0.004524
-0.005536
-0.004997
-0.014456
-0.014451
-0.015185
-0.030666
-0.030951
-0.030396
0.001119
0.001182
-0.010030
-0.009172
-0.009688
-0.009229
0.010412
0.010209
0.009808
-0.025957
-0.026335
-0.026536
0.009580
0.005182
0.000874
0.031510
0.032013
0.025005
0.023619
0.025679
0.022903
-0.037345
-0.031804
-0.035903
-0.034358
-0.015893
-0.015731
-0.015433
0.025320
0.024168
0.024085
-0.024770
-0.024986
-0.025325
0.009384
0.025532
0.008649
0.032249
0.026791
0.026457
0.026969
-0.042722
-0.043452
-0.042783
-0.043345
0.013544
0.029312
0.019332
0.020108
0.020989
0.018293
0.021899
0.022680
0.029157
0.029252
-0.020618
-0.019907
-0.021178
-0.006627
-0.007090
-0.007239
-0.010500
-0.010824
-0.010315
-0.019770
-0.021081
-0.023674
-0.023975
-0.031483
-0.036040
-0.039539
0.024221
0.023778
-0.041601
-0.042856
-0.044851
-0.042901
-0.041080
-0.045901
-0.019119
-0.018827
-0.019083
0.020122
0.020851
0.017148
0.025883
0.005078
0.004907