# vtk DataFile Version 2.0
Test
ASCII
DATASET POLYDATA
POINTS 3011 float
0.000000 0.000000 0.000000
2.000000 0.000000 0.000000
2.000000 4.000000 0.000000
0.000000 4.000000 0.000000
0.000000 0.500000 0.000000
1.500000 2.000000 0.000000
2.000000 2.500000 0.000000
0.285714 0.000000 0.000000
0.571429 0.000000 0.000000
0.857143 0.000000 0.000000
1.142857 0.000000 0.000000
1.428571 0.000000 0.000000
1.714286 0.000000 0.000000
2.000000 0.276366 0.000000
2.000000 0.523709 0.000000
2.000000 0.745076 0.000000
2.000000 0.943195 0.000000
2.000000 1.120508 0.000000
2.000000 1.279199 0.000000
2.000000 1.421225 0.000000
2.000000 1.548336 0.000000
2.000000 1.662097 0.000000
2.000000 1.763911 0.000000
2.000000 1.855033 0.000000
2.000000 1.936585 0.000000
2.000000 2.009573 0.000000
2.000000 2.074896 0.000000
2.000000 2.133358 0.000000
2.000000 2.185681 0.000000
2.000000 2.232509 0.000000
2.000000 2.274419 0.000000
2.000000 2.311927 0.000000
2.000000 2.345497 0.000000
2.000000 2.375541 0.000000
2.000000 2.402430 0.000000
2.000000 2.426495 0.000000
2.000000 2.448033 0.000000
2.000000 2.467309 0.000000
2.000000 2.484560 0.000000
2.000000 2.516256 0.000000
2.000000 2.535859 0.000000
2.000000 2.559499 0.000000
2.000000 2.588006 0.000000
2.000000 2.622383 0.000000
2.000000 2.663839 0.000000
2.000000 2.713831 0.000000
2.000000 2.774116 0.000000
2.000000 2.846815 0.000000
2.000000 2.934483 0.000000
2.000000 3.040202 0.000000
2.000000 3.167691 0.000000
2.000000 3.321430 0.000000
2.000000 3.506825 0.000000
2.000000 3.730395 0.000000
1.714286 4.000000 0.000000
1.428571 4.000000 0.000000
1.142857 4.000000 0.000000
0.857143 4.000000 0.000000
0.571429 4.000000 0.000000
0.285714 4.000000 0.000000
0.000000 3.713462 0.000000
0.000000 3.449209 0.000000
0.000000 3.205508 0.000000
0.000000 2.980761 0.000000
0.000000 2.773493 0.000000
0.000000 2.582346 0.000000
0.000000 2.406065 0.000000
0.000000 2.243495 0.000000
0.000000 2.093568 0.000000
0.000000 1.955302 0.000000
0.000000 1.827789 0.000000
0.000000 1.710194 0.000000
0.000000 1.601745 0.000000
0.000000 1.501730 0.000000
0.000000 1.409494 0.000000
0.000000 1.324431 0.000000
0.000000 1.245984 0.000000
0.000000 1.173639 0.000000
0.000000 1.106920 0.000000
0.000000 1.045390 0.000000
0.000000 0.988645 0.000000
0.000000 0.936314 0.000000
0.000000 0.888053 0.000000
0.000000 0.843545 0.000000
0.000000 0.802499 0.000000
0.000000 0.764646 0.000000
0.000000 0.729736 0.000000
0.000000 0.697541 0.000000
0.000000 0.667851 0.000000
0.000000 0.640469 0.000000
0.000000 0.615217 0.000000
0.000000 0.591929 0.000000
0.000000 0.570453 0.000000
0.000000 0.550646 0.000000
0.000000 0.532380 0.000000
0.000000 0.515535 0.000000
0.000000 0.483768 0.000000
0.000000 0.461535 0.000000
0.000000 0.431083 0.000000
0.000000 0.389372 0.000000
0.000000 0.332241 0.000000
0.000000 0.253989 0.000000
0.000000 0.146807 0.000000
0.010563 0.510563 0.000000
0.021127 0.521127 0.000000
0.031690 0.531690 0.000000
0.042254 0.542254 0.000000
0.052817 0.552817 0.000000
0.063380 0.563380 0.000000
0.073944 0.573944 0.000000
0.084507 0.584507 0.000000
0.095070 0.595070 0.000000
0.105634 0.605634 0.000000
0.116197 0.616197 0.000000
0.126761 0.626761 0.000000
0.137324 0.637324 0.000000
0.147887 0.647887 0.000000
0.158451 0.658451 0.000000
0.169014 0.669014 0.000000
0.179577 0.679577 0.000000
0.190141 0.690141 0.000000
0.200704 0.700704 0.000000
0.211268 0.711268 0.000000
0.221831 0.721831 0.000000
0.232394 0.732394 0.000000
0.242958 0.742958 0.000000
0.253521 0.753521 0.000000
0.264085 0.764085 0.000000
0.274648 0.774648 0.000000
0.285211 0.785211 0.000000
0.295775 0.795775 0.000000
0.306338 0.806338 0.000000
0.316901 0.816901 0.000000
0.327465 0.827465 0.000000
0.338028 0.838028 0.000000
0.348592 0.848592 0.000000
0.359155 0.859155 0.000000
0.369718 0.869718 0.000000
0.380282 0.880282 0.000000
0.390845 0.890845 0.000000
0.401408 0.901408 0.000000
0.411972 0.911972 0.000000
0.422535 0.922535 0.000000
0.433099 0.933099 0.000000
0.443662 0.943662 0.000000
0.454225 0.954225 0.000000
0.464789 0.964789 0.000000
0.475352 0.975352 0.000000
0.485915 0.985915 0.000000
0.496479 0.996479 0.000000
0.507042 1.007042 0.000000
0.517606 1.017606 0.000000
0.528169 1.028169 0.000000
0.538732 1.038732 0.000000
0.549296 1.049296 0.000000
0.559859 1.059859 0.000000
0.570423 1.070423 0.000000
0.580986 1.080986 0.000000
0.591549 1.091549 0.000000
0.602113 1.102113 0.000000
0.612676 1.112676 0.000000
0.623239 1.123239 0.000000
0.633803 1.133803 0.000000
0.644366 1.144366 0.000000
0.654930 1.154930 0.000000
0.665493 1.165493 0.000000
0.676056 1.176056 0.000000
0.686620 1.186620 0.000000
0.697183 1.197183 0.000000
0.707746 1.207746 0.000000
0.718310 1.218310 0.000000
0.728873 1.228873 0.000000
0.739437 1.239437 0.000000
0.750000 1.250000 0.000000
0.760563 1.260563 0.000000
0.771127 1.271127 0.000000
0.781690 1.281690 0.000000
0.792254 1.292254 0.000000
0.802817 1.302817 0.000000
0.813380 1.313380 0.000000
0.823944 1.323944 0.000000
0.834507 1.334507 0.000000
0.845070 1.345070 0.000000
0.855634 1.355634 0.000000
0.866197 1.366197 0.000000
0.876761 1.376761 0.000000
0.887324 1.387324 0.000000
0.897887 1.397887 0.000000
0.908451 1.408451 0.000000
0.919014 1.419014 0.000000
0.929577 1.429577 0.000000
0.940141 1.440141 0.000000
0.950704 1.450704 0.000000
0.961268 1.461268 0.000000
0.971831 1.471831 0.000000
0.982394 1.482394 0.000000
0.992958 1.492958 0.000000
1.003521 1.503521 0.000000
1.014085 1.514085 0.000000
1.024648 1.524648 0.000000
1.035211 1.535211 0.000000
1.045775 1.545775 0.000000
1.056338 1.556338 0.000000
1.066901 1.566901 0.000000
1.077465 1.577465 0.000000
1.088028 1.588028 0.000000
1.098592 1.598592 0.000000
1.109155 1.609155 0.000000
1.119718 1.619718 0.000000
1.130282 1.630282 0.000000
1.140845 1.640845 0.000000
1.151408 1.651408 0.000000
1.161972 1.661972 0.000000
1.172535 1.672535 0.000000
1.183099 1.683099 0.000000
1.193662 1.693662 0.000000
1.204225 1.704225 0.000000
1.214789 1.714789 0.000000
1.225352 1.725352 0.000000
1.235915 1.735915 0.000000
1.246479 1.746479 0.000000
1.257042 1.757042 0.000000
1.267606 1.767606 0.000000
1.278169 1.778169 0.000000
1.288732 1.788732 0.000000
1.299296 1.799296 0.000000
1.309859 1.809859 0.000000
1.320423 1.820423 0.000000
1.330986 1.830986 0.000000
1.341549 1.841549 0.000000
1.352113 1.852113 0.000000
1.362676 1.862676 0.000000
1.373239 1.873239 0.000000
1.383803 1.883803 0.000000
1.394366 1.894366 0.000000
1.404930 1.904930 0.000000
1.415493 1.915493 0.000000
1.426056 1.926056 0.000000
1.436620 1.936620 0.000000
1.447183 1.947183 0.000000
1.457746 1.957746 0.000000
1.468310 1.968310 0.000000
1.478873 1.978873 0.000000
1.489437 1.989437 0.000000
1.510417 2.010417 0.000000
1.520833 2.020833 0.000000
1.531250 2.031250 0.000000
1.541667 2.041667 0.000000
1.552083 2.052083 0.000000
1.562500 2.062500 0.000000
1.572917 2.072917 0.000000
1.583333 2.083333 0.000000
1.593750 2.093750 0.000000
1.604167 2.104167 0.000000
1.614583 2.114583 0.000000
1.625000 2.125000 0.000000
1.635417 2.135417 0.000000
1.645833 2.145833 0.000000
1.656250 2.156250 0.000000
1.666667 2.166667 0.000000
1.677083 2.177083 0.000000
1.687500 2.187500 0.000000
1.697917 2.197917 0.000000
1.708333 2.208333 0.000000
1.718750 2.218750 0.000000
1.729167 2.229167 0.000000
1.739583 2.239583 0.000000
1.750000 2.250000 0.000000
1.760417 2.260417 0.000000
1.770833 2.270833 0.000000
1.781250 2.281250 0.000000
1.791667 2.291667 0.000000
1.802083 2.302083 0.000000
1.812500 2.312500 0.000000
1.822917 2.322917 0.000000
1.833333 2.333333 0.000000
1.843750 2.343750 0.000000
1.854167 2.354167 0.000000
1.864583 2.364583 0.000000
1.875000 2.375000 0.000000
1.885417 2.385417 0.000000
1.895833 2.395833 0.000000
1.906250 2.406250 0.000000
1.916667 2.416667 0.000000
1.927083 2.427083 0.000000
1.937500 2.437500 0.000000
1.947917 2.447917 0.000000
1.958333 2.458333 0.000000
1.968750 2.468750 0.000000
1.979167 2.479167 0.000000
1.989583 2.489583 0.000000
0.206561 0.791563 0.000000
0.205359 0.816165 0.000000
0.186354 0.798211 0.000000
0.221961 0.800924 0.000000
0.280649 1.360489 0.000000
0.304015 1.400469 0.000000
0.229142 1.396096 0.000000
0.275922 1.451476 0.000000
1.869084 2.391788 0.000000
1.857928 2.378421 0.000000
1.238669 2.061899 0.000000
1.278787 2.082276 0.000000
1.238298 2.096047 0.000000
1.277579 2.032995 0.000000
0.402536 1.205823 0.000000
0.415290 1.176040 0.000000
0.428330 1.201952 0.000000
0.387294 1.172617 0.000000
0.146930 1.050586 0.000000
0.109488 1.087198 0.000000
0.102742 1.042403 0.000000
0.157178 1.091184 0.000000
0.588967 1.178581 0.000000
0.593116 1.153718 0.000000
0.608054 1.166752 0.000000
0.612180 1.145944 0.000000
0.860304 1.543784 0.000000
0.868821 1.521840 0.000000
0.878420 1.536650 0.000000
0.845380 1.517623 0.000000
1.129525 1.764330 0.000000
1.142005 1.751560 0.000000
1.145757 1.773681 0.000000
1.159368 1.759106 0.000000
1.968150 2.518865 0.000000
1.986105 2.509269 0.000000
1.986696 2.531115 0.000000
0.668964 1.191005 0.000000
0.683291 1.201259 0.000000
0.557625 1.074830 0.000000
0.569760 1.084377 0.000000
0.557769 1.089278 0.000000
0.707567 1.266174 0.000000
0.719026 1.281845 0.000000
0.700768 1.282275 0.000000
0.722329 1.266956 0.000000
0.468225 2.149688 0.000000
0.419106 2.064198 0.000000
0.523878 2.082648 0.000000
0.838546 1.421191 0.000000
0.823708 1.410355 0.000000
0.840477 1.404206 0.000000
0.818500 1.425973 0.000000
0.953187 1.488222 0.000000
0.959780 1.473222 0.000000
0.967054 1.485637 0.000000
1.047418 1.769126 0.000000
1.080240 1.782403 0.000000
1.047768 1.802712 0.000000
0.971392 1.693320 0.000000
0.949208 1.720793 0.000000
0.940644 1.684781 0.000000
0.381391 2.160909 0.000000
0.944091 1.477800 0.000000
0.530075 1.477351 0.000000
0.521303 1.516669 0.000000
0.474240 1.491166 0.000000
0.489489 1.546185 0.000000
1.537370 2.239326 0.000000
1.555275 2.267640 0.000000
1.532966 2.278201 0.000000
0.962010 1.661716 0.000000
0.986804 1.643200 0.000000
0.986259 1.672729 0.000000
1.049149 1.737940 0.000000
1.075111 1.737123 0.000000
[...]
POINT_DATA 3011
SCALARS UX float 1
LOOKUP_TABLE default
0.039299
0.265647
0.000000
-0.000000
0.011325
0.131386
0.154180
0.066226
0.096713
0.129058
0.162632
0.196776
0.231095
0.265958
0.266611
0.267620
0.268692
0.269745
0.270578
0.271219
0.271112
0.269744
0.266877
0.262218
0.256599
0.249522
0.242150
0.234072
0.225452
0.216223
0.207408
0.198512
0.190151
0.182447
0.175664
0.169807
0.164801
0.160602
0.157082
0.151317
0.148114
0.144509
0.140975
0.137011
0.132898
0.129031
0.124894
0.120715
0.116474
0.111529
0.105288
0.096501
0.082984
0.061344
-0.000000
0.000000
0.000000
-0.000000
-0.000000
0.000000
-0.049059
-0.071909
-0.082466
-0.088077
-0.090547
-0.091394
-0.091411
-0.091260
-0.091208
-0.091343
-0.091927
-0.092801
-0.094024
-0.095567
-0.097362
-0.099298
-0.101365
-0.103457
-0.105528
-0.107517
-0.109373
-0.111059
-0.112590
-0.113992
-0.115317
-0.116610
-0.117881
-0.119028
-0.119846
-0.120185
-0.119890
-0.118080
-0.115984
-0.108489
-0.098582
0.092659
0.027942
0.034537
0.038855
0.040190
0.040941
0.040384
0.039696
-0.018419
-0.014185
-0.012685
-0.011729
-0.012635
-0.009815
-0.009794
-0.009545
-0.008518
-0.006993
-0.006215
-0.002023
-0.001142
0.001638
0.003435
0.005455
0.003038
0.002559
0.004911
0.006138
0.008183
0.006664
0.006799
0.008841
0.008034
0.008622
0.008452
0.008979
0.007325
0.006951
0.006536
0.009291
0.011130
0.015151
0.013570
0.019565
0.020627
0.020880
0.020517
0.024599
0.026014
0.027688
0.030234
0.030477
0.030815
0.032369
0.034601
0.037537
0.038586
0.042019
0.043507
0.045773
0.047379
0.043497
0.048179
0.048478
0.048061
0.048812
0.050825
0.048045
0.051019
0.052336
0.053524
0.054433
0.057731
0.056316
0.057727
0.056276
0.060350
0.063099
0.063317
0.060803
0.061238
0.058230
0.055526
0.054807
0.056035
0.054074
0.055026
0.055625
0.055692
0.056585
0.062644
0.060749
0.063269
0.066249
0.065543
0.068798
0.071811
0.069431
0.072108
0.073016
0.073454
0.075697
0.077723
0.079813
0.080119
0.080742
0.081015
0.082655
0.085291
0.087099
0.090357
0.089262
0.093031
0.095430
0.097724
0.097875
0.099117
0.101098
0.101147
0.102433
0.101721
0.105512
0.103905
0.104590
0.106693
0.108167
0.107300
0.108519
0.109632
0.109999
0.107363
0.107323
0.108229
0.108448
0.112879
0.111695
0.113158
0.113078
0.111918
0.112658
0.113398
0.113576
0.115855
0.120364
0.123247
0.121126
0.124633
0.127909
0.130660
0.133439
0.134245
0.135273
0.135779
0.136514
0.137308
0.137318
0.137706
0.138511
0.139411
0.140126
0.140726
0.141439
0.142093
0.142773
0.143356
0.143984
0.144519
0.145107
0.145599
0.146099
0.146559
0.147015
0.147381
0.147779
0.148118
0.148467
0.148733
0.149010
0.149229
0.149440
0.149630
0.149778
0.149962
0.150082
0.150222
0.150364
0.150510
0.150702
0.150872
0.151097
0.151346
0.151627
0.151986
0.152444
0.152920
0.153512
-0.091488
-0.093154
-0.095426
-0.089143
-0.068823
-0.065201
-0.073101
-0.066717
0.145042
0.145315
0.059291
0.065705
0.059882
0.064133
-0.062080
-0.061957
-0.059745
-0.064780
-0.092860
-0.095229
-0.097496
-0.090367
-0.042206
-0.039283
-0.036649
-0.027484
-0.003762
-0.003452
-0.002030
-0.006099
0.033942
0.035225
0.036467
0.038144
0.143686
0.149249
0.145883
-0.009245
0.001873
-0.011784
-0.005062
-0.031161
-0.022164
-0.021111
-0.025716
-0.017174
-0.037784
-0.043286
-0.031121
-0.006745
-0.009435
-0.005415
-0.010503
0.020256
0.044203
0.037650
0.024730
0.028933
0.026166
0.013636
0.012321
0.010098
-0.047904
0.019081
-0.039526
-0.039216
-0.044862
-0.041691
0.099333
0.100125
0.096154
0.011525
0.013654
0.014481
0.023650
0.026508
0.026570
0.103844
0.025045
0.040352
0.059108
0.055672
0.043490
0.078395
0.083717
0.081408
0.089789
0.084328
0.085613
-0.035122
-0.036725
-0.032768
-0.044129
-0.037263
-0.040474
-0.034454
-0.034215
-0.072729
-0.069171
-0.071870
-0.071247
0.030552
0.024531
0.031085
0.019746
-0.047370
-0.047368
-0.040250
0.101958
0.103574
0.098700
-0.055090
-0.080627
-0.086310
-0.086001
-0.029443
-0.027454
-0.025718
-0.024095
-0.091807
-0.072902
-0.067241
-0.079846
0.128520
0.135250
0.134168
0.021146
0.024904
0.028524
-0.058761
-0.056876
0.033782
-0.012306
-0.010820
-0.015473
-0.008928
0.103079
0.099968
0.097836
-0.006079
-0.004156
-0.007487
0.106184
-0.080231
-0.057464
-0.065300
-0.047507
-0.047215
-0.044483
-0.098800
-0.096524
-0.045302
0.000700
0.000002
0.005567
-0.100535
0.005293
0.027142
0.031271
-0.091300
-0.088066
-0.087632
-0.034215
-0.023538
-0.013911
-0.039894
-0.043869
0.129221
0.132941
0.125690
0.049465
0.046622
0.044795
0.035730
0.039276
0.035598
0.024475
0.021732
0.019386
0.032990
-0.060740
-0.065554
-0.065509
-0.007495
-0.009730
-0.009286
0.008227
-0.007369
-0.103490
-0.100369
-0.103912
-0.041301
-0.046237
0.132856
0.017561
0.142418
0.136588
0.135921
-0.011064
-0.007981
-0.015868
-0.021801
0.110019
0.108925
0.102858
-0.027018
-0.031791
-0.026306
0.063449
0.064026
0.068250
0.057273
0.142864
0.144260
0.106788
0.054894
0.050229
0.050783
0.039030
0.048653
0.046348
0.061049
0.065969
0.048551
0.051453
0.112614
0.115973
0.105290
-0.030749
-0.044945
-0.046225
-0.049226
-0.048496
0.028994
0.115851
0.114047
0.120632
0.091303
0.087227
0.093003
0.086267
0.094569
0.098418
0.099366
0.138530
0.140338
0.002841
0.005302
0.005896
0.002162
-0.004857
-0.001126
-0.003725
-0.000092
0.073218
0.069243
0.073510
0.072613
0.073727
0.067148
0.106254
0.111763
0.106247
0.141768
0.141280
-0.018163
-0.018365
-0.021793
-0.013848
-0.015268
-0.011907
-0.012516
-0.020721
-0.020141
-0.017017
0.000766
-0.001396
0.000783
-0.001133
0.048771
0.049760
0.052733
0.045869
0.015652
-0.011921
-0.014449
-0.011551
-0.011645
-0.009080
-0.011523
0.122016
0.116833
0.118278
0.113114
0.037768
0.039470
0.000252
0.001260
0.004330
0.068971
0.061022
0.042248
0.032166
0.028809
0.032752
0.029917
0.014501
0.013517
0.018134
0.010920
0.104450
0.104820
0.007487
0.021481
-0.003705
0.026141
0.025777
0.023259
0.081449
0.075262
0.071497
0.029442
0.020371
0.022486
0.019316
0.092796
0.091075
0.090202
0.094966
0.089215
0.094269
0.061939
0.062890
0.058548
0.060810
-0.100852
-0.101089
-0.104991
-0.096126
-0.064186
-0.058035
-0.048349
-0.027157
-0.023529
-0.045704
0.113765
-0.066230
-0.066147
-0.069605
-0.068878
0.041033
0.046340
0.048189
0.053195
-0.015362
-0.009135
-0.007440
-0.003271
0.128303
0.133865
0.131511
0.137173
0.108737
0.101170
-0.078866
-0.085036
-0.087652
-0.104355
-0.108058
-0.104351
-0.107436
-0.096514
-0.093207
0.021993
0.019026
0.019393
0.075325
0.069601
-0.055575
-0.054204
-0.057713
-0.055547
-0.058872
-0.000765
0.001791
-0.002431
-0.000072
-0.069630
-0.071855
-0.073087
-0.069424
-0.015560
-0.010940
-0.094403
-0.093762
-0.091109
-0.091613
-0.094443
-0.104796
-0.108901
-0.102223
-0.089000
-0.094845
-0.091383
-0.087327
-0.087814
-0.090624
-0.087283
0.000849
0.003325
0.001524
0.045111
-0.014515
-0.026057
-0.013569
-0.031338
-0.046837
0.122497
0.122486
0.127658
0.115542
0.113900
0.120891
-0.078807
-0.078750
-0.081556
-0.071513
-0.064216
-0.063584
-0.073441
0.101176
0.111100
0.107179
0.099162
0.020495
0.021126
-0.063143
-0.060323
-0.062425
-0.059417
-0.069145
-0.083722
-0.096994
-0.059448
-0.066205
-0.102059
0.138104
0.132526
0.129937
0.139568
-0.071508
-0.068927
0.059653
0.062468
0.055901
0.050962
0.061559
0.036073
0.022422
0.028406
0.010455
-0.019805
-0.019048
-0.017601
-0.114819
-0.114353
-0.117086
-0.112201
0.128512
0.057203
-0.085400
-0.085090
-0.088539
-0.116378
-0.112799
-0.088756
0.125120
0.127023
0.131767
-0.093344
-0.092617
-0.096648
-0.082486
-0.087950
-0.084893
0.141673
0.146556
0.140817
0.146844
0.144083
0.054358
0.058507
-0.083191
-0.084433
-0.081338
0.139236
0.073755
0.078370
0.079631
-0.060490
-0.052452
-0.049156
-0.053784
-0.049054
-0.046221
-0.030732
-0.029000
-0.090099
-0.088542
-0.110100
-0.108337
-0.106555
-0.105700
-0.059540
0.117746
-0.060823
-0.106097
-0.111634
-0.100409
-0.094191
0.125785
0.118182
-0.097642
-0.103581
-0.100118
0.148830
-0.112921
0.117809
0.120462
0.113488
-0.085897
-0.088402
-0.084762
-0.000918
0.009558
0.008836
0.018595
0.018798
-0.098477
-0.096579
-0.099782
-0.101626
0.076786
0.069645
-0.082962
-0.080603
-0.083832
-0.080294
-0.047327
-0.045873
-0.050413
-0.044911
-0.049816
-0.054509
-0.049446
-0.048298
-0.054324
-0.105138
-0.112448
0.121721
0.122777
-0.065211
-0.062512
-0.066661
-0.065919
-0.070632
0.124010
0.123089
0.115293
-0.038502
-0.039623
-0.065754
-0.068182
-0.038976
-0.035613
0.045768
0.036930
0.038097
0.044006
-0.068713
-0.078830
-0.073517
-0.074618
-0.069843
0.056802
0.143570
0.137742
0.137187
0.131646
0.007099
0.006754
0.014266
0.014807
0.021024
0.021565
0.105813
0.111367
0.135066
0.130685
0.019213
0.025041
0.124978
0.127673
-0.058593
-0.062923
-0.067839
-0.074669
-0.057641
-0.045873
-0.077497
-0.082853
0.068368
-0.066317
-0.116659
0.072265
0.039251
0.034934
0.148079
0.144582
0.137097
-0.114610
-0.079837
-0.081222
-0.088638
0.036862
0.034406
0.030956
0.033870
0.130995
-0.092428
-0.090064
-0.087168
-0.073794
0.065153
0.062445
0.057930
0.061197
0.144421
-0.112586
-0.114806
-0.112082
-0.083029
-0.106860
-0.053480
-0.062896
-0.047567
-0.055271
-0.072430
-0.096667
-0.107649
0.038513
0.035743
0.027096
0.047127
0.001856
-0.008653
0.022189
-0.097683
-0.011846
-0.049602
0.023704
0.005378
0.009212
-0.101032
-0.103934
-0.100880
-0.108378
-0.104629
-0.019401
-0.000080
-0.008716
-0.010026
-0.099984
0.023697
0.013551
0.014410
-0.018380
-0.021558
-0.015886
-0.076669
-0.075524
-0.081608
-0.069355
-0.069394
-0.074582
-0.075329
-0.015397
-0.011592
-0.010159
-0.005961
-0.004810
0.050116
0.043456
0.017053
0.008005
0.004849
0.006588
0.008631
0.054725
0.041277
0.034666
0.031975
0.026059
-0.073539
-0.059953
-0.056075
-0.045493
-0.090096
-0.093014
-0.099280
-0.063591
0.148567
-0.074764
-0.075081
-0.079434
-0.078841
-0.032823
-0.039817
-0.027680
-0.031276
-0.027128
-0.105085
-0.076221
-0.076276
-0.100259
0.137192
0.134365
-0.006936
-0.084756
0.137778
0.119020
-0.057361
-0.067930
-0.058293
0.050411
-0.070708
-0.100172
-0.095106
-0.111531
-0.109355
0.137521
-0.097179
0.005863
-0.000265
0.010338
-0.097033
-0.108995
0.144669
-0.043445
-0.055885
-0.067941
-0.081067
0.109690
0.102302
0.105659
0.144521
0.140166
0.145936
-0.075924
-0.084703
-0.086245
-0.093638
-0.076208
0.069635
0.050947
0.052215
0.036401
-0.072946
-0.072154
-0.023441
-0.023262
-0.042213
-0.032554
0.087093
-0.008475
-0.107650
-0.050133
-0.052441
-0.051237
0.028060
-0.040035
-0.037698
-0.037160
-0.074000
-0.060802
-0.052986
-0.051821
-0.043762
-0.072094
-0.026231
-0.030508
-0.028773
0.083219
0.097664
0.088343
0.006705
-0.058236
-0.059831
-0.056381
-0.090287
-0.082910
-0.097656
-0.103372
-0.036635
0.048045
-0.053793
-0.065733
-0.039976
-0.034954
-0.100861
-0.085382
-0.034877
-0.035219
-0.057753
0.043184
0.135233
0.128568
-0.097914
-0.051143
-0.006098
-0.104116
-0.075821
-0.069537
-0.084543
0.064720
-0.112964
0.055646
0.056271
0.053089
-0.023322
-0.008085
-0.101177
-0.029468
-0.054420
-0.058406
-0.062209
0.102140
0.008039
0.004103
0.008575
-0.053654
-0.075063
-0.033506
-0.066133
-0.065585
-0.062826
-0.078023
-0.079758
-0.068471
-0.093272
0.129296
0.135732
-0.057369
-0.057710
-0.060113
0.125009
-0.005683
-0.003073
0.126209
0.114681
0.054298
0.019953
0.011683
-0.094587
-0.097421
0.028457
0.030831
0.020806
0.021346
-0.032943
-0.042225
-0.080745
-0.076219
-0.078777
0.096008
0.093044
0.032740
0.039701
-0.051249
-0.084154
-0.078197
-0.042626
-0.044934
-0.041570
-0.069402
-0.106211
-0.063637
-0.014106
-0.017907
-0.080757
-0.083263
-0.082501
0.107568
-0.023200
-0.022621
-0.027750
-0.083088
-0.063565
-0.073913
-0.071522
-0.033082
-0.023710
0.006355
-0.007799
0.034030
0.140949
-0.079648
-0.029223
-0.026258
-0.054977
-0.058831
-0.064088
-0.040630
-0.043040
-0.042651
0.076547
-0.004860
-0.019763
-0.021882
0.013591
-0.001684
-0.048907
-0.035277
-0.024585
0.051074
0.052559
0.057990
0.027576
-0.020563
-0.074682
-0.076394
-0.077568
-0.078529
0.073039
0.077140
0.066755
-0.031793
-0.027320
-0.080313
-0.042917
-0.045312
-0.042656
-0.045708
0.045964
0.147188
0.147344
0.039691
0.061369
0.035319
0.050572
-0.077586
-0.059745
-0.055759
-0.076348
-0.073969
-0.074513
-0.028168
0.102368
0.097195
-0.005728
0.022941
0.019105
-0.077929
0.017576
-0.056607
-0.030600
-0.077032
-0.062076
-0.058141
-0.052164
0.014446
0.017953
0.014831
0.018441
0.137251
-0.051038
-0.071599
0.102370
-0.055740
-0.076923
0.106791
0.099722
0.100233
0.094005
0.099020
0.090775
0.090931
-0.096428
-0.090684
-0.098373
-0.054388
-0.059976
-0.060874
0.013109
0.006207
-0.053189
-0.073699
-0.069954
-0.036886
-0.021634
-0.064394
-0.077504
0.042232
-0.035969
-0.049970
-0.078429
-0.090381
0.145614
-0.003302
-0.074048
-0.082172
-0.068014
-0.002443
-0.009302
0.027723
0.002620
-0.002388
-0.005641
-0.011975
-0.022480
0.008123
0.002454
0.015997
0.005773
0.015801
-0.045275
-0.065577
0.132318
0.134898
-0.039120
-0.056749
-0.022560
-0.025414
-0.028146
0.080107
0.067412
0.006413
0.004095
0.003142
0.004847
0.062021
0.066950
-0.058414
-0.055748
-0.035075
-0.073607
0.010292
0.026635
-0.061397
0.080851
0.083693
-0.067618
-0.024087
-0.015920
-0.020652
0.143031
0.087149
0.093916
0.092205
-0.071016
-0.075594
0.113334
-0.052580
-0.025699
-0.055258
0.081257
-0.049394
-0.043863
-0.017377
-0.063040
-0.056392
-0.039768
-0.034887
0.074623
0.068273
0.069534
0.098368
0.101951
0.098449
0.093977
0.099058
0.055995
0.128708
0.124246
-0.057606
0.044021
0.040908
-0.045083
-0.025647
-0.021872
0.098286
0.093360
-0.014094
-0.052882
-0.021347
-0.054079
-0.050792
-0.021247
-0.019517
-0.022795
0.143260
0.138730
-0.040894
-0.008282
-0.036321
0.067628
0.102887
0.107190
0.108456
0.087847
0.085893
0.104010
-0.057377
-0.075518
-0.057072
0.002941
0.001405
-0.022609
-0.104479
-0.019532
0.064582
0.052057
0.059304
0.055465
-0.038820
-0.038140
-0.018160
-0.047143
0.083254
-0.052228
-0.039958
-0.018951
-0.010565
0.086178
0.086236
-0.079062
0.125314
0.128757
-0.071120
0.018267
-0.054850
0.124624
0.013472
0.081357
-0.041104
0.122182
-0.082822
0.089892
-0.047529
-0.034479
-0.015919
-0.020883
-0.080624
0.091073
0.091870
0.080535
0.103101
0.042558
0.046063
0.044921
-0.013715
-0.014760
-0.004630
-0.009298
0.043048
0.048095
-0.042907
0.054008
-0.018413
-0.020552
-0.035615
-0.032352
-0.033014
-0.031901
-0.030128
-0.029301
-0.012421
-0.078039
0.039267
-0.003565
0.110750
0.061878
0.068400
-0.037620
0.042758
0.025611
0.038855
-0.047584
-0.062480
-0.068876
0.021486
0.025179
0.018432
0.084634
0.082599
0.075544
0.074040
0.110790
0.116620
0.112792
0.117392
-0.071905
-0.095856
0.026138
0.026521
0.024072
0.034662
-0.032403
0.054694
0.057405
0.058158
0.014548
0.016821
-0.017520
-0.011276
0.061061
0.059413
0.062691
0.009405
0.007545
0.035647
0.015422
0.016640
-0.065015
-0.052568
0.123129
0.128106
0.009878
0.012704
0.012543
0.121927
0.118087
0.116830
0.109459
-0.069402
0.072164
0.119755
-0.027846
-0.026083
-0.025259
0.084933
0.089224
0.083867
-0.032077
-0.049997
0.089123
-0.052291
-0.056006
-0.058823
0.093860
0.083931
0.009189
0.006553
0.003841
0.009332
-0.008750
0.102574
0.110959
0.098341
0.004082
0.009042
-0.017099
0.004559
-0.017891
-0.015936
-0.013957
0.110617
0.104208
-0.085484
-0.089679
-0.008891
0.016935
0.021749
-0.001849
0.012097
-0.109333
0.010448
-0.047966
-0.048878
-0.042765
0.095633
-0.041560
-0.049107
-0.053444
-0.054155
0.074959
-0.001668
-0.082515
0.065804
0.126826
0.120324
0.072792
0.075122
0.076700
0.080731
0.035115
0.034594
0.035074
0.031254
0.032582
0.070243
0.131401
0.127341
-0.003882
0.013531
0.004663
-0.027517
-0.023975
0.019141
0.025509
0.005827
0.037013
-0.025704
0.040401
0.040682
0.046087
0.040423
0.134966
0.047008
0.043603
0.123862
0.120490
0.130978
0.114302
0.060425
0.095097
-0.007954
-0.000077
0.059894
0.074526
0.066117
0.024757
0.018196
-0.034075
-0.036797
-0.037452
-0.026795
-0.025952
0.024167
0.025780
0.007583
0.055161
0.058181
0.050884
0.060538
0.067258
0.108353
0.109553
0.078197
0.074720
0.080075
0.082067
0.085651
0.092982
0.099422
0.087817
-0.048926
0.113889
0.122666
0.121010
0.132630
0.116148
0.139966
0.139528
0.009154
-0.004238
-0.018542
0.115765
0.121992
-0.059203
0.141664
0.089531
0.096441
0.070046
0.127288
-0.117002
-0.116939
-0.075887
-0.115790
-0.111264
0.012309
-0.016920
0.016683
-0.033649
-0.025615
-0.034138
-0.078352
-0.027323
0.076128
0.081869
0.030838
0.023317
0.091709
0.085860
0.077232
0.005143
0.075373
0.021074
0.040112
0.042328
-0.037046
0.107135
0.030259
0.079326
0.077820
0.137354
0.142411
0.128150
0.130524
0.122488
0.126805
0.131086
0.034033
0.040459
-0.084354
0.088015
0.103778
0.108146
0.108192
0.017858
0.040373
0.039180
-0.030687
-0.029488
-0.018186
-0.020551
-0.001423
-0.002998
0.042214
0.040704
0.038643
0.088918
-0.034346
-0.030176
-0.039024
0.124347
0.118675
0.076571
0.063689
0.059680
0.045398
-0.023394
-0.015069
-0.032984
0.131719
0.055967
0.052962
0.052076
0.129266
0.133018
0.127945
-0.062589
0.074748
-0.024051
-0.008800
-0.007584
-0.012850
-0.042109
0.051929
-0.029951
-0.102568
-0.031966
0.055821
0.038707
0.011508
0.009831
0.043159
-0.009087
-0.012462
-0.009032
0.041063
0.083585
-0.006354
-0.019333
-0.023231
0.014689
-0.005298
0.046574
0.012564
-0.090684
-0.081489
0.093975
0.056937
-0.053909
0.044640
0.048241
0.086767
0.024658
0.112528
0.078733
0.084897
-0.017366
0.019118
-0.021673
0.053765
-0.087979
0.011031
-0.027343
0.067898
0.071331
0.055048
0.030412
0.032523
0.074370
0.070184
-0.079991
-0.080556
0.003600
-0.004410
0.065105
0.053211
0.022729
-0.015850
0.112656
-0.013143
0.112787
0.108788
0.023247
-0.008026
-0.004588
0.115151
0.112303
0.086732
0.075042
0.016741
0.070340
0.104860
0.104158
0.081394
0.090492
0.132966
0.137602
0.034714
0.065906
0.065879
0.069409
-0.095355
0.129087
0.054973
0.067592
-0.039168
0.049954
0.093388
-0.019039
-0.019283
0.100074
0.026214
0.121402
0.135805
-0.034260
0.015752
-0.089417
-0.054657
0.004683
0.001352
-0.002542
-0.002937
-0.033596
-0.006782
0.012583
0.011168
0.078888
0.043930
0.048414
0.050239
0.031941
0.098372
-0.003521
0.098003
0.093306
0.110854
-0.013081
-0.016878
0.034545
0.046852
0.049085
0.133397
0.088983
-0.049649
0.075899
0.056147
0.008806
0.077345
0.142933
0.092103
0.109674
0.109570
-0.032470
0.103880
-0.006203
0.087267
0.140834
0.078587
0.004981
0.027200
0.032784
-0.002744
0.005305
0.028015
-0.000313
0.029198
0.027870
0.055828
0.014763
0.065153
0.066068
0.068430
0.000284
0.030467
0.093985
0.099903
0.047309
0.016985
0.052852
0.049819
0.050492
0.080468
-0.003505
0.048588
0.024940
0.088063
0.046613
0.088560
-0.005615
0.022738
0.014739
0.134921
0.124770
0.044321
0.071517
0.071478
0.123195
0.040464
0.063924
0.079094
-0.050964
-0.023250
0.096546
0.066018
0.114841
0.118135
0.117187
-0.005212
0.010976
0.048420
0.079978
0.083909
0.085320
0.062181
0.080407
0.072846
0.106430
0.098494
0.113783
0.234712
0.226189
0.231505
0.179417
0.173910
0.184900
0.221380
0.242081
0.144721
0.144239
0.125722
0.212675
0.230883
0.229441
0.114949
0.109208
0.114967
0.207025
0.208522
0.216032
0.197934
0.111097
0.079581
0.085716
0.110154
0.111571
0.114049
0.113575
0.116655
0.108639
0.107358
0.181544
0.175084
0.178400
0.175983
0.114323
0.122281
0.108840
0.105236
0.107983
0.125532
0.136606
0.186481
0.180602
0.184951
0.180984
0.095458
0.098353
0.092505
0.160052
0.160074
0.148118
0.141277
0.137668
0.141209
0.135777
0.258509
0.256058
0.095628
0.102842
0.110322
0.073180
0.078496
0.080057
0.131682
0.134256
0.134007
0.085717
0.101966
0.105032
0.106471
0.137155
0.182391
0.186998
0.187850
0.178166
0.220779
0.221020
0.231110
0.211204
0.140781
0.149450
0.149056
0.188801
0.192636
0.193400
0.197454
0.114893
0.101964
0.108035
0.051555
0.049294
0.127921
0.127368
0.133544
0.116616
0.171129
0.176846
0.165536
0.173576
0.167180
0.165721
0.172114
0.162682
0.179944
0.178347
0.171895
0.183868
0.172114
0.182485
0.183369
0.172130
0.088161
0.102344
0.057951
0.055379
0.064678
0.065445
0.041431
0.079172
0.054983
0.072384
0.161914
0.162798
0.120969
0.118328
0.110148
0.104944
0.051808
0.083628
0.075536
0.100895
0.081832
0.062621
0.072989
0.072110
0.079878
0.081965
0.059271
0.061684
0.055338
0.056755
0.066074
0.089325
0.089106
0.064969
0.054345
0.043729
0.162106
0.160906
0.106515
0.129462
0.133685
0.205736
0.199214
0.205489
0.141174
0.105305
0.094294
0.113996
0.067670
0.064303
0.171150
0.182681
0.187895
0.184159
0.148666
0.147864
0.144508
0.212184
0.212296
0.204536
0.151856
0.026377
0.023790