# vtk DataFile Version 2.0
Test
ASCII
DATASET POLYDATA
POINTS 3011 float
0.000000 0.000000 0.000000
2.000000 0.000000 0.000000
2.000000 4.000000 0.000000
0.000000 4.000000 0.000000
0.000000 0.500000 0.000000
1.500000 2.000000 0.000000
2.000000 2.500000 0.000000
0.285714 0.000000 0.000000
0.571429 0.000000 0.000000
0.857143 0.000000 0.000000
1.142857 0.000000 0.000000
1.428571 0.000000 0.000000
1.714286 0.000000 0.000000
2.000000 0.276366 0.000000
2.000000 0.523709 0.000000
2.000000 0.745076 0.000000
2.000000 0.943195 0.000000
2.000000 1.120508 0.000000
2.000000 1.279199 0.000000
2.000000 1.421225 0.000000
2.000000 1.548336 0.000000
2.000000 1.662097 0.000000
2.000000 1.763911 0.000000
2.000000 1.855033 0.000000
2.000000 1.936585 0.000000
2.000000 2.009573 0.000000
2.000000 2.074896 0.000000
2.000000 2.133358 0.000000
2.000000 2.185681 0.000000
2.000000 2.232509 0.000000
2.000000 2.274419 0.000000
2.000000 2.311927 0.000000
2.000000 2.345497 0.000000
2.000000 2.375541 0.000000
2.000000 2.402430 0.000000
2.000000 2.426495 0.000000
2.000000 2.448033 0.000000
2.000000 2.467309 0.000000
2.000000 2.484560 0.000000
2.000000 2.516256 0.000000
2.000000 2.535859 0.000000
2.000000 2.559499 0.000000
2.000000 2.588006 0.000000
2.000000 2.622383 0.000000
2.000000 2.663839 0.000000
2.000000 2.713831 0.000000
2.000000 2.774116 0.000000
2.000000 2.846815 0.000000
2.000000 2.934483 0.000000
2.000000 3.040202 0.000000
2.000000 3.167691 0.000000
2.000000 3.321430 0.000000
2.000000 3.506825 0.000000
2.000000 3.730395 0.000000
1.714286 4.000000 0.000000
1.428571 4.000000 0.000000
1.142857 4.000000 0.000000
0.857143 4.000000 0.000000
0.571429 4.000000 0.000000
0.285714 4.000000 0.000000
0.000000 3.713462 0.000000
0.000000 3.449209 0.000000
0.000000 3.205508 0.000000
0.000000 2.980761 0.000000
0.000000 2.773493 0.000000
0.000000 2.582346 0.000000
0.000000 2.406065 0.000000
0.000000 2.243495 0.000000
0.000000 2.093568 0.000000
0.000000 1.955302 0.000000
0.000000 1.827789 0.000000
0.000000 1.710194 0.000000
0.000000 1.601745 0.000000
0.000000 1.501730 0.000000
0.000000 1.409494 0.000000
0.000000 1.324431 0.000000
0.000000 1.245984 0.000000
0.000000 1.173639 0.000000
0.000000 1.106920 0.000000
0.000000 1.045390 0.000000
0.000000 0.988645 0.000000
0.000000 0.936314 0.000000
0.000000 0.888053 0.000000
0.000000 0.843545 0.000000
0.000000 0.802499 0.000000
0.000000 0.764646 0.000000
0.000000 0.729736 0.000000
0.000000 0.697541 0.000000
0.000000 0.667851 0.000000
0.000000 0.640469 0.000000
0.000000 0.615217 0.000000
0.000000 0.591929 0.000000
0.000000 0.570453 0.000000
0.000000 0.550646 0.000000
0.000000 0.532380 0.000000
0.000000 0.515535 0.000000
0.000000 0.483768 0.000000
0.000000 0.461535 0.000000
0.000000 0.431083 0.000000
0.000000 0.389372 0.000000
0.000000 0.332241 0.000000
0.000000 0.253989 0.000000
0.000000 0.146807 0.000000
0.010563 0.510563 0.000000
0.021127 0.521127 0.000000
0.031690 0.531690 0.000000
0.042254 0.542254 0.000000
0.052817 0.552817 0.000000
0.063380 0.563380 0.000000
0.073944 0.573944 0.000000
0.084507 0.584507 0.000000
0.095070 0.595070 0.000000
0.105634 0.605634 0.000000
0.116197 0.616197 0.000000
0.126761 0.626761 0.000000
0.137324 0.637324 0.000000
0.147887 0.647887 0.000000
0.158451 0.658451 0.000000
0.169014 0.669014 0.000000
0.179577 0.679577 0.000000
0.190141 0.690141 0.000000
0.200704 0.700704 0.000000
0.211268 0.711268 0.000000
0.221831 0.721831 0.000000
0.232394 0.732394 0.000000
0.242958 0.742958 0.000000
0.253521 0.753521 0.000000
0.264085 0.764085 0.000000
0.274648 0.774648 0.000000
0.285211 0.785211 0.000000
0.295775 0.795775 0.000000
0.306338 0.806338 0.000000
0.316901 0.816901 0.000000
0.327465 0.827465 0.000000
0.338028 0.838028 0.000000
0.348592 0.848592 0.000000
0.359155 0.859155 0.000000
0.369718 0.869718 0.000000
0.380282 0.880282 0.000000
0.390845 0.890845 0.000000
0.401408 0.901408 0.000000
0.411972 0.911972 0.000000
0.422535 0.922535 0.000000
0.433099 0.933099 0.000000
0.443662 0.943662 0.000000
0.454225 0.954225 0.000000
0.464789 0.964789 0.000000
0.475352 0.975352 0.000000
0.485915 0.985915 0.000000
0.496479 0.996479 0.000000
0.507042 1.007042 0.000000
0.517606 1.017606 0.000000
0.528169 1.028169 0.000000
0.538732 1.038732 0.000000
0.549296 1.049296 0.000000
0.559859 1.059859 0.000000
0.570423 1.070423 0.000000
0.580986 1.080986 0.000000
0.591549 1.091549 0.000000
0.602113 1.102113 0.000000
0.612676 1.112676 0.000000
0.623239 1.123239 0.000000
0.633803 1.133803 0.000000
0.644366 1.144366 0.000000
0.654930 1.154930 0.000000
0.665493 1.165493 0.000000
0.676056 1.176056 0.000000
0.686620 1.186620 0.000000
0.697183 1.197183 0.000000
0.707746 1.207746 0.000000
0.718310 1.218310 0.000000
0.728873 1.228873 0.000000
0.739437 1.239437 0.000000
0.750000 1.250000 0.000000
0.760563 1.260563 0.000000
0.771127 1.271127 0.000000
0.781690 1.281690 0.000000
0.792254 1.292254 0.000000
0.802817 1.302817 0.000000
0.813380 1.313380 0.000000
0.823944 1.323944 0.000000
0.834507 1.334507 0.000000
0.845070 1.345070 0.000000
0.855634 1.355634 0.000000
0.866197 1.366197 0.000000
0.876761 1.376761 0.000000
0.887324 1.387324 0.000000
0.897887 1.397887 0.000000
0.908451 1.408451 0.000000
0.919014 1.419014 0.000000
0.929577 1.429577 0.000000
0.940141 1.440141 0.000000
0.950704 1.450704 0.000000
0.961268 1.461268 0.000000
0.971831 1.471831 0.000000
0.982394 1.482394 0.000000
0.992958 1.492958 0.000000
1.003521 1.503521 0.000000
1.014085 1.514085 0.000000
1.024648 1.524648 0.000000
1.035211 1.535211 0.000000
1.045775 1.545775 0.000000
1.056338 1.556338 0.000000
1.066901 1.566901 0.000000
1.077465 1.577465 0.000000
1.088028 1.588028 0.000000
1.098592 1.598592 0.000000
1.109155 1.609155 0.000000
1.119718 1.619718 0.000000
1.130282 1.630282 0.000000
1.140845 1.640845 0.000000
1.151408 1.651408 0.000000
1.161972 1.661972 0.000000
1.172535 1.672535 0.000000
1.183099 1.683099 0.000000
1.193662 1.693662 0.000000
1.204225 1.704225 0.000000
1.214789 1.714789 0.000000
1.225352 1.725352 0.000000
1.235915 1.735915 0.000000
1.246479 1.746479 0.000000
1.257042 1.757042 0.000000
1.267606 1.767606 0.000000
1.278169 1.778169 0.000000
1.288732 1.788732 0.000000
1.299296 1.799296 0.000000
1.309859 1.809859 0.000000
1.320423 1.820423 0.000000
1.330986 1.830986 0.000000
1.341549 1.841549 0.000000
1.352113 1.852113 0.000000
1.362676 1.862676 0.000000
1.373239 1.873239 0.000000
1.383803 1.883803 0.000000
1.394366 1.894366 0.000000
1.404930 1.904930 0.000000
1.415493 1.915493 0.000000
1.426056 1.926056 0.000000
1.436620 1.936620 0.000000
1.447183 1.947183 0.000000
1.457746 1.957746 0.000000
1.468310 1.968310 0.000000
1.478873 1.978873 0.000000
1.489437 1.989437 0.000000
1.510417 2.010417 0.000000
1.520833 2.020833 0.000000
1.531250 2.031250 0.000000
1.541667 2.041667 0.000000
1.552083 2.052083 0.000000
1.562500 2.062500 0.000000
1.572917 2.072917 0.000000
1.583333 2.083333 0.000000
1.593750 2.093750 0.000000
1.604167 2.104167 0.000000
1.614583 2.114583 0.000000
1.625000 2.125000 0.000000
1.635417 2.135417 0.000000
1.645833 2.145833 0.000000
1.656250 2.156250 0.000000
1.666667 2.166667 0.000000
1.677083 2.177083 0.000000
1.687500 2.187500 0.000000
1.697917 2.197917 0.000000
1.708333 2.208333 0.000000
1.718750 2.218750 0.000000
1.729167 2.229167 0.000000
1.739583 2.239583 0.000000
1.750000 2.250000 0.000000
1.760417 2.260417 0.000000
1.770833 2.270833 0.000000
1.781250 2.281250 0.000000
1.791667 2.291667 0.000000
1.802083 2.302083 0.000000
1.812500 2.312500 0.000000
1.822917 2.322917 0.000000
1.833333 2.333333 0.000000
1.843750 2.343750 0.000000
1.854167 2.354167 0.000000
1.864583 2.364583 0.000000
1.875000 2.375000 0.000000
1.885417 2.385417 0.000000
1.895833 2.395833 0.000000
1.906250 2.406250 0.000000
1.916667 2.416667 0.000000
1.927083 2.427083 0.000000
1.937500 2.437500 0.000000
1.947917 2.447917 0.000000
1.958333 2.458333 0.000000
1.968750 2.468750 0.000000
1.979167 2.479167 0.000000
1.989583 2.489583 0.000000
0.206561 0.791563 0.000000
0.205359 0.816165 0.000000
0.186354 0.798211 0.000000
0.221961 0.800924 0.000000
0.280649 1.360489 0.000000
0.304015 1.400469 0.000000
0.229142 1.396096 0.000000
0.275922 1.451476 0.000000
1.869084 2.391788 0.000000
1.857928 2.378421 0.000000
1.238669 2.061899 0.000000
1.278787 2.082276 0.000000
1.238298 2.096047 0.000000
1.277579 2.032995 0.000000
0.402536 1.205823 0.000000
0.415290 1.176040 0.000000
0.428330 1.201952 0.000000
0.387294 1.172617 0.000000
0.146930 1.050586 0.000000
0.109488 1.087198 0.000000
0.102742 1.042403 0.000000
0.157178 1.091184 0.000000
0.588967 1.178581 0.000000
0.593116 1.153718 0.000000
0.608054 1.166752 0.000000
0.612180 1.145944 0.000000
0.860304 1.543784 0.000000
0.868821 1.521840 0.000000
0.878420 1.536650 0.000000
0.845380 1.517623 0.000000
1.129525 1.764330 0.000000
1.142005 1.751560 0.000000
1.145757 1.773681 0.000000
1.159368 1.759106 0.000000
1.968150 2.518865 0.000000
1.986105 2.509269 0.000000
1.986696 2.531115 0.000000
0.668964 1.191005 0.000000
0.683291 1.201259 0.000000
0.557625 1.074830 0.000000
0.569760 1.084377 0.000000
0.557769 1.089278 0.000000
0.707567 1.266174 0.000000
0.719026 1.281845 0.000000
0.700768 1.282275 0.000000
0.722329 1.266956 0.000000
0.468225 2.149688 0.000000
0.419106 2.064198 0.000000
0.523878 2.082648 0.000000
0.838546 1.421191 0.000000
0.823708 1.410355 0.000000
0.840477 1.404206 0.000000
0.818500 1.425973 0.000000
0.953187 1.488222 0.000000
0.959780 1.473222 0.000000
0.967054 1.485637 0.000000
1.047418 1.769126 0.000000
1.080240 1.782403 0.000000
1.047768 1.802712 0.000000
0.971392 1.693320 0.000000
0.949208 1.720793 0.000000
0.940644 1.684781 0.000000
0.381391 2.160909 0.000000
0.944091 1.477800 0.000000
0.530075 1.477351 0.000000
0.521303 1.516669 0.000000
0.474240 1.491166 0.000000
0.489489 1.546185 0.000000
1.537370 2.239326 0.000000
1.555275 2.267640 0.000000
1.532966 2.278201 0.000000
0.962010 1.661716 0.000000
0.986804 1.643200 0.000000
0.986259 1.672729 0.000000
1.049149 1.737940 0.000000
1.075111 1.737123 0.000000
[...]
POINT_DATA 3011
SCALARS UX float 1
LOOKUP_TABLE default
0.460979
0.787892
0.000000
-0.000000
0.379508
0.576231
0.546897
0.498948
0.544504
0.600971
0.653724
0.700015
0.744267
0.789078
0.791435
0.791769
0.790000
0.785722
0.780024
0.773793
0.766841
0.758744
0.749151
0.736964
0.722157
0.704860
0.687468
0.670293
0.654230
0.639189
0.625369
0.612689
0.601338
0.590872
0.581431
0.572943
0.565282
0.558396
0.552305
0.541189
0.534380
0.526448
0.517501
0.507132
0.494905
0.481881
0.466582
0.449411
0.430524
0.407075
0.376403
0.335162
0.269759
0.184937
-0.000000
0.000000
0.000000
-0.000000
-0.000000
0.000000
-0.062772
-0.114240
-0.113099
-0.089846
-0.047205
0.004571
0.058771
0.108843
0.152454
0.189024
0.218080
0.242654
0.262959
0.280017
0.294249
0.305523
0.313314
0.317746
0.318972
0.317140
0.312017
0.305414
0.298713
0.293277
0.290104
0.289094
0.289740
0.290801
0.291877
0.293411
0.297639
0.301682
0.295631
0.286014
0.277856
0.231666
0.458705
0.470903
0.471973
0.471880
0.470404
0.466385
0.463289
0.434087
0.422112
0.401594
0.395947
0.425210
0.406797
0.360418
0.283939
0.390566
0.374512
0.354920
0.348731
0.355201
0.374624
0.395336
0.408172
0.438019
0.416811
0.478587
0.371656
0.415658
0.446899
0.469352
0.487296
0.505189
0.476524
0.500419
0.486892
0.440078
0.437822
0.431461
0.442917
0.446730
0.452232
0.442408
0.420246
0.396972
0.416073
0.438448
0.434608
0.283885
0.466925
0.390941
0.403053
0.442585
0.472661
0.445511
0.476383
0.493310
0.510885
0.522475
0.520458
0.513921
0.514072
0.474387
0.496544
0.512431
0.502713
0.531109
0.516074
0.530396
0.520112
0.526062
0.532686
0.477464
0.469989
0.488333
0.517778
0.528669
0.560725
0.532107
0.515887
0.500363
0.523867
0.539994
0.530572
0.524429
0.492418
0.528231
0.518070
0.527179
0.529638
0.523534
0.518922
0.528742
0.528336
0.539407
0.579025
0.552617
0.575806
0.581413
0.584422
0.561511
0.539377
0.549358
0.548595
0.546416
0.544386
0.537346
0.537623
0.538014
0.541382
0.548661
0.531991
0.536919
0.551543
0.558055
0.543954
0.544771
0.545200
0.540181
0.540151
0.538366
0.543541
0.544592
0.544301
0.549694
0.548952
0.543225
0.547182
0.552735
0.536781
0.547277
0.545096
0.545882
0.551887
0.550268
0.554516
0.557772
0.555503
0.556401
0.550936
0.555015
0.550478
0.556110
0.557534
0.560401
0.564852
0.568917
0.569148
0.569819
0.577681
0.572861
0.570508
0.568014
0.566433
0.565191
0.563979
0.563038
0.562447
0.561809
0.561235
0.560659
0.560133
0.559584
0.559033
0.558477
0.557938
0.557378
0.556877
0.556402
0.555988
0.555619
0.555299
0.555004
0.554804
0.554614
0.554457
0.554280
0.554114
0.553915
0.553682
0.553458
0.553190
0.552926
0.552592
0.552202
0.551795
0.551358
0.550946
0.550492
0.550013
0.549504
0.548945
0.548408
0.547927
0.547472
0.547144
0.325537
0.325489
0.318893
0.329551
0.353160
0.352235
0.341358
0.341903
0.543967
0.545116
0.444083
0.451591
0.437875
0.459597
0.381929
0.385857
0.385247
0.382691
0.345848
0.340600
0.336650
0.349726
0.418768
0.435203
0.439170
0.479804
0.416889
0.420932
0.420989
0.417141
0.449302
0.453552
0.451752
0.456506
0.530161
0.539147
0.531848
0.467083
0.466155
0.442199
0.461257
0.453322
0.437284
0.437331
0.430241
0.442176
0.246684
0.258032
0.276878
0.437537
0.435431
0.444839
0.429454
0.458955
0.489743
0.475687
0.431891
0.437091
0.428984
0.424322
0.418348
0.419698
0.223180
0.459540
0.378512
0.373212
0.368409
0.365044
0.479739
0.476713
0.467065
0.425295
0.431926
0.428836
0.435114
0.440682
0.437561
0.487220
0.441051
0.466034
0.480881
0.479164
0.468824
0.443848
0.455728
0.444732
0.462037
0.447049
0.455127
0.391759
0.393027
0.398350
0.354064
0.363533
0.351405
0.399920
0.356696
0.371382
0.374315
0.368911
0.376055
0.344485
0.347676
0.359988
0.320595
0.321978
0.338165
0.340174
0.496610
0.496359
0.486743
0.316019
0.356008
0.346116
0.352218
0.402124
0.409428
0.406376
0.413113
0.340520
0.269719
0.265659
0.239020
0.515588
0.528341
0.525199
0.355920
0.374904
0.368559
0.382182
0.387456
0.390460
0.397023
0.394506
0.391195
0.400499
0.510903
0.498776
0.500036
0.411439
0.409922
0.405941
0.513979
0.378494
0.417361
0.404185
0.396733
0.400839
0.402541
0.329520
0.327006
0.405619
0.390430
0.395772
0.400161
0.329839
0.405605
0.425370
0.433443
0.348713
0.355192
0.356206
0.461532
0.467351
0.481150
0.448295
0.433163
0.551477
0.554605
0.544762
0.447988
0.440357
0.442634
0.444890
0.447939
0.440594
0.456973
0.450988
0.449595
0.441060
0.399437
0.397111
0.399362
0.424096
0.418747
0.423912
0.413198
0.420199
0.310235
0.319110
0.313138
0.435226
0.420726
0.524861
0.444575
0.545118
0.535165
0.535073
0.424368
0.430556
0.446289
0.442349
0.480579
0.475835
0.463211
0.431867
0.424552
0.438898
0.391977
0.404475
0.405375
0.380317
0.545069
0.546682
0.506862
0.447385
0.437534
0.444728
0.468725
0.476956
0.473325
0.307366
0.305785
0.260928
0.244355
0.544949
0.553205
0.535225
0.477044
0.418078
0.410632
0.408916
0.403244
0.459783
0.490677
0.488477
0.502770
0.440547
0.434220
0.449948
0.426976
0.457949
0.464635
0.471032
0.546285
0.549857
0.427794
0.434625
0.432323
0.430492
0.437273
0.443898
0.436287
0.442792
0.464441
0.464317
0.473054
0.490731
0.492670
0.484135
0.525863
0.532723
0.521434
0.547866
0.548435
0.439237
0.433059
0.429908
0.407828
0.411669
0.413340
0.418207
0.435475
0.437835
0.443999
0.430619
0.428380
0.433935
0.425373
0.465659
0.469061
0.471575
0.463538
0.333284
0.454456
0.442959
0.401996
0.406617
0.407289
0.453787
0.522262
0.512523
0.517676
0.506821
0.450128
0.455124
0.423970
0.421452
0.425958
0.493167
0.482410
0.470504
0.458420
0.453824
0.460069
0.452803
0.445127
0.445807
0.451985
0.438251
0.525555
0.528230
0.458842
0.473610
0.454140
0.453340
0.450021
0.447022
0.457727
0.443958
0.427518
0.456497
0.441347
0.447876
0.442357
0.463720
0.454299
0.512317
0.519564
0.508373
0.515281
0.479294
0.479084
0.473440
0.474196
0.329313
0.329696
0.321558
0.338588
0.402865
0.411010
0.411708
0.016319
-0.000421
-0.042899
0.539987
0.391171
0.388277
0.385250
0.383428
0.409615
0.425385
0.419773
0.436189
0.340065
0.355097
0.346750
0.363094
0.529698
0.538848
0.533649
0.542999
0.522785
0.512190
0.295615
0.272635
0.284012
0.313672
0.306830
0.317312
0.304197
0.334712
0.343484
0.437001
0.431514
0.435991
0.483758
0.472081
0.399986
0.397883
0.393951
0.392401
0.388936
0.414767
0.413448
0.407982
0.405912
0.391598
0.386885
0.387253
0.396024
0.402265
0.410363
0.333887
0.332167
0.339849
0.341978
0.336644
0.318528
0.308967
0.317395
0.335079
0.327232
0.332410
0.335619
0.339322
0.337659
0.342787
0.361964
0.374114
0.379770
0.431657
-0.017091
-0.024983
-0.012426
-0.036053
-0.062962
0.482647
0.488504
0.495150
0.469219
0.472743
0.490761
0.373988
0.372910
0.368711
0.306731
0.326085
0.311232
0.288117
0.430763
0.452341
0.435039
0.415904
0.431159
0.428080
0.397941
0.401644
0.394785
0.400615
0.374221
0.353706
0.310556
0.322325
0.323726
0.311239
0.530940
0.519258
0.516428
0.534834
0.384400
0.388211
0.375638
0.375461
0.357721
0.356650
0.363733
0.223538
0.164031
0.215995
0.140883
0.400347
0.396220
0.406116
0.298986
0.297504
0.294783
0.302541
0.491491
0.175420
0.356298
0.359866
0.351320
0.304276
0.306057
0.347110
0.510510
0.515409
0.524011
0.319935
0.322554
0.314511
0.255998
0.329719
0.333952
0.531834
0.538839
0.528571
0.540650
0.532945
0.429796
0.449779
0.363469
0.362657
0.368022
0.520232
0.415390
0.431421
0.426419
0.389831
0.384285
0.384096
0.379359
0.388842
0.389243
0.404888
0.411495
0.325662
0.315327
0.299779
0.300422
0.305653
0.303880
0.397897
0.540160
0.392938
0.311702
0.308287
0.318705
0.328714
0.479869
0.460242
0.319184
0.307472
0.323234
0.541260
0.304082
0.490240
0.493397
0.477058
0.350943
0.343797
0.346877
0.248488
0.284944
0.260735
0.295354
0.277800
0.312776
0.319471
0.313073
0.307478
0.461359
0.448861
0.352702
0.351972
0.345463
0.349276
0.381455
0.378539
0.374771
0.374576
0.370593
0.354717
0.364860
0.357722
0.347894
0.314196
0.308585
0.501923
0.502600
0.378033
0.377533
0.372377
0.366676
0.364774
0.561066
0.556648
0.546929
0.394128
0.389066
0.385720
0.381072
0.397040
0.402359
0.369133
0.348365
0.363412
0.377724
0.340225
0.357275
0.355325
0.352693
0.360608
0.478648
0.545040
0.535159
0.535262
0.524802
0.364414
0.374496
0.386610
0.376173
0.389107
0.398183
0.460506
0.475699
0.508642
0.505174
0.401526
0.408547
0.504972
0.507049
0.345625
0.387680
0.378516
0.342199
0.345094
0.357545
0.338084
0.340786
0.430236
0.411729
0.293377
0.445426
0.416046
0.403126
0.544616
0.538125
0.520004
0.294794
0.329220
0.315691
0.299043
0.425101
0.414910
0.416236
0.425417
0.524586
0.343206
0.350189
0.356298
0.350287
0.431716
0.435641
0.419623
0.417047
0.545600
0.293658
0.292400
0.296077
0.337016
0.301272
0.128598
0.142062
0.173520
0.086614
0.081132
0.321175
0.309308
0.304389
0.276489
0.267748
0.314064
0.276857
0.249374
0.421142
0.325636
0.215030
0.334494
0.418563
0.318003
0.308082
0.306554
0.303385
0.308757
0.298619
0.303319
0.060706
0.125674
0.065668
0.123680
0.308461
0.461002
0.447676
0.450195
0.384382
0.388076
0.396097
0.365870
0.362452
0.360228
0.377681
0.384688
0.377309
0.370460
0.374487
0.384014
0.378670
0.388762
0.383455
0.367207
0.350106
0.435001
0.421738
0.419288
0.425090
0.439719
0.387114
0.329883
0.327457
0.301559
0.302103
-0.041620
0.002806
-0.026383
0.020921
0.348513
0.351311
0.333497
0.389822
0.539598
0.374744
0.371147
0.366811
0.370556
0.345977
0.324101
0.359651
0.395186
0.398936
0.318285
0.377432
0.378656
0.328525
0.551171
0.546306
-0.002440
0.362027
0.549751
0.469678
0.181680
0.168847
0.215631
0.388820
0.191449
0.315847
0.338229
0.295234
0.297685
0.533845
0.324872
0.009206
0.002091
0.041960
0.335243
0.308072
0.542626
0.365173
0.359250
0.350662
0.352490
0.475705
0.458915
0.464246
0.544943
0.537379
0.546611
0.372996
0.338297
0.332627
0.319791
0.333863
0.266117
0.179524
0.217052
0.148451
0.381372
0.380209
0.398940
0.404731
0.213455
0.209595
0.425296
0.391965
0.308075
0.396837
0.396140
0.401389
0.324796
0.398588
0.405245
0.402586
0.229430
0.259315
0.297560
0.277628
0.301923
0.023430
0.393379
0.390466
0.387332
0.329245
0.369503
0.325429
0.046207
0.374492
0.377596
0.380646
0.334771
0.343151
0.311682
0.303725
0.371955
0.334166
0.252497
0.226330
0.384800
0.387271
0.324350
0.357520
0.407965
0.410816
0.398343
0.399799
0.519588
0.505047
0.327686
0.051673
0.367799
0.316336
0.354846
0.359337
0.332168
0.416403
0.302621
0.471788
0.471129
0.466789
0.114197
0.163204
0.320506
0.060258
0.374001
0.368086
0.368078
0.412192
0.384308
0.391406
0.393188
0.349695
0.346536
0.381731
0.393731
0.396983
0.402469
0.119941
0.156221
0.390514
0.330810
0.527980
0.539363
0.406280
0.408463
0.406270
0.521885
0.399523
0.397572
0.514979
0.485699
0.466053
0.376016
0.358798
0.325927
0.320593
0.418293
0.426662
0.096566
0.074145
0.295449
0.286223
0.359467
0.363736
0.365264
0.450978
0.440824
0.405943
0.424515
0.344534
0.330950
0.342374
0.386616
0.387229
0.391280
-0.076023
0.300548
0.293114
0.387198
0.377801
0.364108
0.357621
0.362280
0.452673
0.370039
0.377858
0.368552
0.375940
0.400106
0.381630
0.385811
0.316481
0.320871
0.094760
0.031962
0.166749
0.537889
0.190848
0.338818
0.353352
0.385499
0.360957
0.361414
0.399709
0.394779
0.392724
0.265769
0.208314
0.153576
0.178160
0.395929
0.346447
0.440526
0.448863
0.467519
0.409447
0.402683
0.402416
0.391656
0.365038
0.382339
0.380066
0.377013
0.375060
0.491102
0.498064
0.485812
0.368283
0.377184
0.367002
0.397479
0.396329
0.400088
0.393031
0.392056
0.544239
0.545261
0.379111
0.479083
0.379717
0.416644
0.339705
0.361441
0.359396
0.378454
0.382709
0.384077
0.262790
0.468610
0.457722
0.404697
0.412514
0.412452
0.371876
0.405494
0.362184
0.383463
0.346165
0.365457
0.368948
0.388217
0.412992
0.415963
0.409177
0.420821
0.526022
0.360286
0.342539
0.465406
0.352637
0.338146
0.457514
0.436595
0.443259
0.427189
0.444964
0.425159
0.409442
0.318878
0.335377
0.311519
0.361992
0.352560
0.342348
0.344742
0.336432
0.391042
0.329448
0.388994
0.164267
0.211275
0.374380
0.347798
0.433535
0.118455
0.392210
0.374249
0.347593
0.543252
0.286014
0.316401
0.302006
0.331903
0.380388
0.370066
0.403721
0.341460
0.313538
0.325113
0.299872
0.337508
0.176872
0.176094
0.221855
0.210191
0.184248
0.125401
-0.090193
0.549138
0.551113
0.372154
0.404894
0.394314
0.389036
0.383168
0.337305
0.285136
0.415109
0.408987
0.411027
0.416134
0.481819
0.488905
0.388270
0.380607
0.389514
0.348554
0.403152
0.420316
0.411179
0.409458
0.413236
0.392954
0.303171
0.322073
0.292599
0.536949
0.388601
0.408372
0.393924
0.379336
0.376492
0.441220
0.406566
0.416663
0.404144
0.416145
0.424014
0.447199
0.472378
0.414703
0.329464
0.404349
0.400370
0.396941
0.375584
0.389072
0.514634
0.518929
0.510422
0.509455
0.521239
0.424705
0.541716
0.536834
0.397879
0.266438
0.275318
0.432842
0.476425
0.475781
0.446611
0.436045
0.355263
0.412860
0.352433
0.368395
0.379104
0.415158
0.410441
0.409296
0.538496
0.530412
0.405995
0.332551
0.072370
0.394901
0.473365
0.481875
0.481709
0.451054
0.440189
0.479798
0.338175
0.337753
0.348916
0.419687
0.402956
0.419370
0.299971
0.421720
0.350655
0.316846
0.346251
0.314494
0.437815
0.434981
0.444444
0.426683
0.439510
0.429426
0.421457
0.430105
0.282216
0.473439
0.466084
0.297320
0.526312
0.534209
0.392770
0.363042
0.317493
0.529110
0.402381
0.464953
0.435604
0.518484
0.363953
0.477206
0.393309
0.457378
0.415865
0.404069
0.367722
0.378218
0.366503
0.358966
0.398631
0.461344
0.466977
0.463954
0.447507
0.458153
0.459563
0.414804
0.464519
0.468769
0.422624
0.475468
0.248639
0.267683
0.413857
0.418548
0.408980
0.413456
0.413587
0.418672
0.314126
0.336548
0.433909
0.461477
0.424992
0.482115
0.489015
0.010102
0.459144
0.463957
0.480891
0.367411
0.372729
0.366162
0.448373
0.453611
0.443443
0.412274
0.402106
0.383865
0.372437
0.517873
0.527697
0.518711
0.532196
0.370254
0.320026
0.447853
0.445914
0.442396
0.446772
0.374574
0.462804
0.469346
0.467699
0.417717
0.424685
0.456711
0.464320
0.472100
0.467265
0.472600
0.438580
0.431521
0.434266
0.438417
0.437667
0.399028
0.410722
0.516078
0.524167
0.432295
0.438811
0.434603
0.511287
0.505191
0.523876
0.508846
0.390491
0.419619
0.531352
0.419214
0.425314
0.422828
0.497085
0.503845
0.501126
0.406792
0.420219
0.498456
0.428950
0.418425
0.414148
0.501991
0.486933
0.442792
0.439611
0.464250
0.478233
0.454748
0.530690
0.537703
0.523787
0.436551
0.445671
0.443878
0.439314
0.418140
0.425643
0.422475
0.520767
0.505425
0.333468
0.330854
0.411023
0.509984
0.515002
0.456419
0.481445
0.299880
0.410662
0.428799
0.426220
0.438466
0.475556
0.409735
0.423894
0.414586
0.413298
0.496123
0.465250
0.366404
0.484535
0.554653
0.547524
0.489230
0.494317
0.495285
0.501830
0.460906
0.458523
0.456729
0.451298
0.449652
0.487442
0.540268
0.535591
0.469421
0.496063
0.486958
0.424775
0.432029
0.468309
0.470939
0.453866
0.458458
0.478401
0.464294
0.461912
0.468305
0.465778
0.544224
0.475124
0.469767
0.532175
0.524300
0.542851
0.512769
0.460013
0.489079
0.459895
0.460088
0.477160
0.493084
0.484082
0.458391
0.450596
0.428394
0.420324
0.417307
0.443965
0.441761
0.469312
0.461619
0.448244
0.472837
0.476954
0.466300
0.480437
0.486161
0.498887
0.505385
0.396965
0.391094
0.497548
0.501615
0.505861
0.513371
0.518343
0.508249
0.417433
0.530025
0.545225
0.540539
0.551189
0.519350
0.551688
0.549922
0.454848
0.497788
0.502404
0.494060
0.507544
0.410929
0.549990
0.428603
0.446612
0.373125
0.518483
0.297279
0.299622
0.310485
0.303376
0.300606
0.026433
-0.008779
0.429843
0.427892
0.467564
0.441036
0.327234
0.417064
0.406948
0.424005
0.093770
0.072054
0.511954
0.504509
0.497043
0.536776
0.494907
0.456506
0.473021
0.473697
0.414303
0.475693
0.463857
0.485129
0.476646
0.538498
0.545924
0.554367
0.556059
0.538047
0.542765
0.550640
0.462437
0.468071
0.332869
0.506057
0.483085
0.494924
0.491255
0.457125
0.483213
0.482712
0.418668
0.424419
0.427471
0.425829
0.418386
0.414035
0.448302
0.440501
0.442218
0.467448
0.427208
0.438547
0.412307
0.514074
0.502317
0.433857
0.470650
0.464441
0.449770
0.422977
0.366290
0.413931
0.526968
0.460452
0.452923
0.455482
0.523524
0.530840
0.522320
0.372932
0.409582
0.420689
0.441802
0.447876
0.438478
0.377818
0.473713
0.241640
0.308414
0.429230
0.479797
0.466065
0.246105
0.427762
0.454103
0.450374
0.429744
0.438974
0.454041
0.476234
0.500415
0.440381
0.432012
0.515919
0.466311
0.456182
0.502028
0.346546
0.388580
0.477012
0.481201
0.414566
0.475870
0.479691
0.505174
0.228928
0.488745
0.371867
0.401934
0.438054
0.117754
0.455405
0.341829
0.328966
0.460622
0.441386
0.487060
0.490579
0.476340
0.459983
0.461310
0.488652
0.479168
0.372020
0.370086
0.058142
0.015014
0.480864
0.479402
0.425990
0.432450
0.502816
0.432820
0.499987
0.488446
0.274810
0.493645
0.527789
0.496862
0.493205
0.504889
0.494661
0.242794
0.335665
0.492876
0.494423
0.501907
0.511760
0.531848
0.539864
0.195346
0.347074
0.335989
0.487476
0.326716
0.553110
0.297626
0.484676
0.424009
0.471643
0.516142
0.438124
0.457374
0.526176
0.249471
0.529998
0.550740
0.420014
0.444801
0.356840
0.418007
0.441127
0.438236
0.430162
0.452499
0.410157
0.473805
0.502860
0.449739
0.493147
0.458040
0.450618
0.457284
0.444475
0.454256
0.423627
0.490454
0.480917
0.535741
0.434600
0.451229
0.479469
0.486903
0.486380
0.539857
0.443212
0.422986
0.495774
0.477642
0.446215
0.455367
0.547676
0.489461
0.535588
0.540039
-0.031463
0.527275
0.429869
0.505523
0.545365
0.497888
0.460938
0.483049
0.483438
0.452276
0.467451
0.494318
0.450238
0.443567
0.445728
0.455076
0.452322
0.475709
0.479710
0.480558
0.439711
0.460931
0.514619
0.485918
0.471563
0.467475
0.476060
0.470333
0.462223
0.492076
0.433455
0.474249
0.454376
0.483351
0.460640
0.489568
0.426299
0.442832
0.440302
0.536515
0.555985
0.295421
0.490434
0.490362
0.542422
0.459627
0.477618
0.473220
0.414841
0.430110
0.502484
0.470596
0.529914
0.512435
0.506555
0.422986
0.449057
0.461219
0.544291
0.544731
0.548794
0.531664
0.549676
0.539894
0.564932
0.560146
0.570075
0.687513
0.674826
0.686498
0.623370
0.619777
0.628847
0.669635
0.702626
0.628384
0.630454
0.598705
0.721887
0.745907
0.742427
0.576836
0.565452
0.582459
0.631412
0.635595
0.644504
0.619764
0.561401
0.548016
0.550917
0.572480
0.578872
0.583372
0.589755
0.596108
0.582715
0.567840
0.631284
0.624812
0.628789
0.624134
0.587311
0.604151
0.578459
0.570095
0.578666
0.602600
0.621554
0.660733
0.653197
0.662385
0.650543
0.562957
0.561706
0.547607
0.613887
0.612980
0.605813
0.590258
0.585287
0.594333
0.586064
0.754926
0.759866
0.537616
0.570955
0.581619
0.528731
0.533385
0.537184
0.592411
0.598675
0.597024
0.543357
0.573310
0.577627
0.578469
0.604232
0.663327
0.675000
0.671193
0.660405
0.719338
0.724937
0.733635
0.708967
0.629373
0.640652
0.640973
0.644069
0.652226
0.650822
0.658477
0.587085
0.566413
0.572885
0.478921
0.481881
0.583840
0.586207
0.593602
0.569467
0.597615
0.604590
0.590427
0.599127
0.643484
0.646315
0.653782
0.637868
0.625474
0.623009
0.617647
0.628919
0.605036
0.621243
0.620083
0.605602
0.545852
0.551476
0.521832
0.522233
0.515137
0.516555
0.466884
0.517768
0.458091
0.494947
0.605042
0.607829
0.576772
0.575648
0.568393
0.566113
0.535661
0.511026
0.503206
0.531040
0.513090
0.529651
0.533303
0.536753
0.540062
0.459208
0.434014
0.336095
0.470509
0.480724
0.513304
0.561755
0.556263
0.511059
0.491795
0.466116
0.604663
0.606343
0.568843
0.581928
0.585094
0.661761
0.652321
0.663372
0.590585
0.564968
0.555013
0.572742
0.541604
0.538627
0.614120
0.626274
0.633735
0.628638
0.602432
0.597617
0.596037
0.655656
0.653538
0.641954
0.605853
0.404055
0.382983
0.456449
0.594921
0.584930
0.605935
0.550367
0.543395
0.540959
0.532918
0.553023
0.594447
0.601720
0.597991
0.526953
0.513369
0.582982
0.584556
0.589368
0.592649
0.686151
0.697210
0.695167
0.629845
0.623671
0.633663
0.605511
0.600644
0.606646
0.599520
0.608089
0.604070
0.605568
0.593479
0.600276
0.519623
0.533148
0.548952
0.616993
0.618970
0.618219
0.611213
0.625236
0.596663
0.602059
0.497340
0.514783
0.545737
0.634703
0.625456
0.637286
0.573342
0.535762
0.645531
0.636609
0.640886
0.587613
0.538501
0.557828
0.557676
0.565744
0.538662
0.542461
0.569242
0.567214
0.561254
0.562522
0.570597
0.581841
0.478351
0.583865
0.577955
0.579715
0.587749
0.588518
0.569379
0.570765
0.562637
0.562103
0.555267
0.758397
0.761138
0.594454
0.572096
0.579389
0.565644
0.527292
0.441449
0.658440
0.639471
0.595076
0.610600
0.619400
0.611995
0.576442