# vtk DataFile Version 2.0
Test
ASCII
DATASET POLYDATA
POINTS 3011 float
0.000000 0.000000 0.000000
2.000000 0.000000 0.000000
2.000000 4.000000 0.000000
0.000000 4.000000 0.000000
0.000000 0.500000 0.000000
1.500000 2.000000 0.000000
2.000000 2.500000 0.000000
0.285714 0.000000 0.000000
0.571429 0.000000 0.000000
0.857143 0.000000 0.000000
1.142857 0.000000 0.000000
1.428571 0.000000 0.000000
1.714286 0.000000 0.000000
2.000000 0.276366 0.000000
2.000000 0.523709 0.000000
2.000000 0.745076 0.000000
2.000000 0.943195 0.000000
2.000000 1.120508 0.000000
2.000000 1.279199 0.000000
2.000000 1.421225 0.000000
2.000000 1.548336 0.000000
2.000000 1.662097 0.000000
2.000000 1.763911 0.000000
2.000000 1.855033 0.000000
2.000000 1.936585 0.000000
2.000000 2.009573 0.000000
2.000000 2.074896 0.000000
2.000000 2.133358 0.000000
2.000000 2.185681 0.000000
2.000000 2.232509 0.000000
2.000000 2.274419 0.000000
2.000000 2.311927 0.000000
2.000000 2.345497 0.000000
2.000000 2.375541 0.000000
2.000000 2.402430 0.000000
2.000000 2.426495 0.000000
2.000000 2.448033 0.000000
2.000000 2.467309 0.000000
2.000000 2.484560 0.000000
2.000000 2.516256 0.000000
2.000000 2.535859 0.000000
2.000000 2.559499 0.000000
2.000000 2.588006 0.000000
2.000000 2.622383 0.000000
2.000000 2.663839 0.000000
2.000000 2.713831 0.000000
2.000000 2.774116 0.000000
2.000000 2.846815 0.000000
2.000000 2.934483 0.000000
2.000000 3.040202 0.000000
2.000000 3.167691 0.000000
2.000000 3.321430 0.000000
2.000000 3.506825 0.000000
2.000000 3.730395 0.000000
1.714286 4.000000 0.000000
1.428571 4.000000 0.000000
1.142857 4.000000 0.000000
0.857143 4.000000 0.000000
0.571429 4.000000 0.000000
0.285714 4.000000 0.000000
0.000000 3.713462 0.000000
0.000000 3.449209 0.000000
0.000000 3.205508 0.000000
0.000000 2.980761 0.000000
0.000000 2.773493 0.000000
0.000000 2.582346 0.000000
0.000000 2.406065 0.000000
0.000000 2.243495 0.000000
0.000000 2.093568 0.000000
0.000000 1.955302 0.000000
0.000000 1.827789 0.000000
0.000000 1.710194 0.000000
0.000000 1.601745 0.000000
0.000000 1.501730 0.000000
0.000000 1.409494 0.000000
0.000000 1.324431 0.000000
0.000000 1.245984 0.000000
0.000000 1.173639 0.000000
0.000000 1.106920 0.000000
0.000000 1.045390 0.000000
0.000000 0.988645 0.000000
0.000000 0.936314 0.000000
0.000000 0.888053 0.000000
0.000000 0.843545 0.000000
0.000000 0.802499 0.000000
0.000000 0.764646 0.000000
0.000000 0.729736 0.000000
0.000000 0.697541 0.000000
0.000000 0.667851 0.000000
0.000000 0.640469 0.000000
0.000000 0.615217 0.000000
0.000000 0.591929 0.000000
0.000000 0.570453 0.000000
0.000000 0.550646 0.000000
0.000000 0.532380 0.000000
0.000000 0.515535 0.000000
0.000000 0.483768 0.000000
0.000000 0.461535 0.000000
0.000000 0.431083 0.000000
0.000000 0.389372 0.000000
0.000000 0.332241 0.000000
0.000000 0.253989 0.000000
0.000000 0.146807 0.000000
0.010563 0.510563 0.000000
0.021127 0.521127 0.000000
0.031690 0.531690 0.000000
0.042254 0.542254 0.000000
0.052817 0.552817 0.000000
0.063380 0.563380 0.000000
0.073944 0.573944 0.000000
0.084507 0.584507 0.000000
0.095070 0.595070 0.000000
0.105634 0.605634 0.000000
0.116197 0.616197 0.000000
0.126761 0.626761 0.000000
0.137324 0.637324 0.000000
0.147887 0.647887 0.000000
0.158451 0.658451 0.000000
0.169014 0.669014 0.000000
0.179577 0.679577 0.000000
0.190141 0.690141 0.000000
0.200704 0.700704 0.000000
0.211268 0.711268 0.000000
0.221831 0.721831 0.000000
0.232394 0.732394 0.000000
0.242958 0.742958 0.000000
0.253521 0.753521 0.000000
0.264085 0.764085 0.000000
0.274648 0.774648 0.000000
0.285211 0.785211 0.000000
0.295775 0.795775 0.000000
0.306338 0.806338 0.000000
0.316901 0.816901 0.000000
0.327465 0.827465 0.000000
0.338028 0.838028 0.000000
0.348592 0.848592 0.000000
0.359155 0.859155 0.000000
0.369718 0.869718 0.000000
0.380282 0.880282 0.000000
0.390845 0.890845 0.000000
0.401408 0.901408 0.000000
0.411972 0.911972 0.000000
0.422535 0.922535 0.000000
0.433099 0.933099 0.000000
0.443662 0.943662 0.000000
0.454225 0.954225 0.000000
0.464789 0.964789 0.000000
0.475352 0.975352 0.000000
0.485915 0.985915 0.000000
0.496479 0.996479 0.000000
0.507042 1.007042 0.000000
0.517606 1.017606 0.000000
0.528169 1.028169 0.000000
0.538732 1.038732 0.000000
0.549296 1.049296 0.000000
0.559859 1.059859 0.000000
0.570423 1.070423 0.000000
0.580986 1.080986 0.000000
0.591549 1.091549 0.000000
0.602113 1.102113 0.000000
0.612676 1.112676 0.000000
0.623239 1.123239 0.000000
0.633803 1.133803 0.000000
0.644366 1.144366 0.000000
0.654930 1.154930 0.000000
0.665493 1.165493 0.000000
0.676056 1.176056 0.000000
0.686620 1.186620 0.000000
0.697183 1.197183 0.000000
0.707746 1.207746 0.000000
0.718310 1.218310 0.000000
0.728873 1.228873 0.000000
0.739437 1.239437 0.000000
0.750000 1.250000 0.000000
0.760563 1.260563 0.000000
0.771127 1.271127 0.000000
0.781690 1.281690 0.000000
0.792254 1.292254 0.000000
0.802817 1.302817 0.000000
0.813380 1.313380 0.000000
0.823944 1.323944 0.000000
0.834507 1.334507 0.000000
0.845070 1.345070 0.000000
0.855634 1.355634 0.000000
0.866197 1.366197 0.000000
0.876761 1.376761 0.000000
0.887324 1.387324 0.000000
0.897887 1.397887 0.000000
0.908451 1.408451 0.000000
0.919014 1.419014 0.000000
0.929577 1.429577 0.000000
0.940141 1.440141 0.000000
0.950704 1.450704 0.000000
0.961268 1.461268 0.000000
0.971831 1.471831 0.000000
0.982394 1.482394 0.000000
0.992958 1.492958 0.000000
1.003521 1.503521 0.000000
1.014085 1.514085 0.000000
1.024648 1.524648 0.000000
1.035211 1.535211 0.000000
1.045775 1.545775 0.000000
1.056338 1.556338 0.000000
1.066901 1.566901 0.000000
1.077465 1.577465 0.000000
1.088028 1.588028 0.000000
1.098592 1.598592 0.000000
1.109155 1.609155 0.000000
1.119718 1.619718 0.000000
1.130282 1.630282 0.000000
1.140845 1.640845 0.000000
1.151408 1.651408 0.000000
1.161972 1.661972 0.000000
1.172535 1.672535 0.000000
1.183099 1.683099 0.000000
1.193662 1.693662 0.000000
1.204225 1.704225 0.000000
1.214789 1.714789 0.000000
1.225352 1.725352 0.000000
1.235915 1.735915 0.000000
1.246479 1.746479 0.000000
1.257042 1.757042 0.000000
1.267606 1.767606 0.000000
1.278169 1.778169 0.000000
1.288732 1.788732 0.000000
1.299296 1.799296 0.000000
1.309859 1.809859 0.000000
1.320423 1.820423 0.000000
1.330986 1.830986 0.000000
1.341549 1.841549 0.000000
1.352113 1.852113 0.000000
1.362676 1.862676 0.000000
1.373239 1.873239 0.000000
1.383803 1.883803 0.000000
1.394366 1.894366 0.000000
1.404930 1.904930 0.000000
1.415493 1.915493 0.000000
1.426056 1.926056 0.000000
1.436620 1.936620 0.000000
1.447183 1.947183 0.000000
1.457746 1.957746 0.000000
1.468310 1.968310 0.000000
1.478873 1.978873 0.000000
1.489437 1.989437 0.000000
1.510417 2.010417 0.000000
1.520833 2.020833 0.000000
1.531250 2.031250 0.000000
1.541667 2.041667 0.000000
1.552083 2.052083 0.000000
1.562500 2.062500 0.000000
1.572917 2.072917 0.000000
1.583333 2.083333 0.000000
1.593750 2.093750 0.000000
1.604167 2.104167 0.000000
1.614583 2.114583 0.000000
1.625000 2.125000 0.000000
1.635417 2.135417 0.000000
1.645833 2.145833 0.000000
1.656250 2.156250 0.000000
1.666667 2.166667 0.000000
1.677083 2.177083 0.000000
1.687500 2.187500 0.000000
1.697917 2.197917 0.000000
1.708333 2.208333 0.000000
1.718750 2.218750 0.000000
1.729167 2.229167 0.000000
1.739583 2.239583 0.000000
1.750000 2.250000 0.000000
1.760417 2.260417 0.000000
1.770833 2.270833 0.000000
1.781250 2.281250 0.000000
1.791667 2.291667 0.000000
1.802083 2.302083 0.000000
1.812500 2.312500 0.000000
1.822917 2.322917 0.000000
1.833333 2.333333 0.000000
1.843750 2.343750 0.000000
1.854167 2.354167 0.000000
1.864583 2.364583 0.000000
1.875000 2.375000 0.000000
1.885417 2.385417 0.000000
1.895833 2.395833 0.000000
1.906250 2.406250 0.000000
1.916667 2.416667 0.000000
1.927083 2.427083 0.000000
1.937500 2.437500 0.000000
1.947917 2.447917 0.000000
1.958333 2.458333 0.000000
1.968750 2.468750 0.000000
1.979167 2.479167 0.000000
1.989583 2.489583 0.000000
0.206561 0.791563 0.000000
0.205359 0.816165 0.000000
0.186354 0.798211 0.000000
0.221961 0.800924 0.000000
0.280649 1.360489 0.000000
0.304015 1.400469 0.000000
0.229142 1.396096 0.000000
0.275922 1.451476 0.000000
1.869084 2.391788 0.000000
1.857928 2.378421 0.000000
1.238669 2.061899 0.000000
1.278787 2.082276 0.000000
1.238298 2.096047 0.000000
1.277579 2.032995 0.000000
0.402536 1.205823 0.000000
0.415290 1.176040 0.000000
0.428330 1.201952 0.000000
0.387294 1.172617 0.000000
0.146930 1.050586 0.000000
0.109488 1.087198 0.000000
0.102742 1.042403 0.000000
0.157178 1.091184 0.000000
0.588967 1.178581 0.000000
0.593116 1.153718 0.000000
0.608054 1.166752 0.000000
0.612180 1.145944 0.000000
0.860304 1.543784 0.000000
0.868821 1.521840 0.000000
0.878420 1.536650 0.000000
0.845380 1.517623 0.000000
1.129525 1.764330 0.000000
1.142005 1.751560 0.000000
1.145757 1.773681 0.000000
1.159368 1.759106 0.000000
1.968150 2.518865 0.000000
1.986105 2.509269 0.000000
1.986696 2.531115 0.000000
0.668964 1.191005 0.000000
0.683291 1.201259 0.000000
0.557625 1.074830 0.000000
0.569760 1.084377 0.000000
0.557769 1.089278 0.000000
0.707567 1.266174 0.000000
0.719026 1.281845 0.000000
0.700768 1.282275 0.000000
0.722329 1.266956 0.000000
0.468225 2.149688 0.000000
0.419106 2.064198 0.000000
0.523878 2.082648 0.000000
0.838546 1.421191 0.000000
0.823708 1.410355 0.000000
0.840477 1.404206 0.000000
0.818500 1.425973 0.000000
0.953187 1.488222 0.000000
0.959780 1.473222 0.000000
0.967054 1.485637 0.000000
1.047418 1.769126 0.000000
1.080240 1.782403 0.000000
1.047768 1.802712 0.000000
0.971392 1.693320 0.000000
0.949208 1.720793 0.000000
0.940644 1.684781 0.000000
0.381391 2.160909 0.000000
0.944091 1.477800 0.000000
0.530075 1.477351 0.000000
0.521303 1.516669 0.000000
0.474240 1.491166 0.000000
0.489489 1.546185 0.000000
1.537370 2.239326 0.000000
1.555275 2.267640 0.000000
1.532966 2.278201 0.000000
0.962010 1.661716 0.000000
0.986804 1.643200 0.000000
0.986259 1.672729 0.000000
1.049149 1.737940 0.000000
1.075111 1.737123 0.000000
[...]
POINT_DATA 3011
SCALARS UX float 1
LOOKUP_TABLE default
0.003102
0.089181
0.000000
-0.000000
-0.017261
0.050774
0.055382
0.014124
0.025839
0.037918
0.050374
0.063158
0.076095
0.089409
0.089944
0.090711
0.091505
0.092212
0.092739
0.092983
0.092740
0.091832
0.090184
0.087619
0.084518
0.080929
0.077385
0.073946
0.070773
0.067967
0.065567
0.063512
0.061783
0.060344
0.059132
0.058112
0.057251
0.056523
0.055905
0.054851
0.054241
0.053534
0.052768
0.051899
0.050916
0.049898
0.048753
0.047488
0.046152
0.044538
0.042450
0.039378
0.034308
0.025335
-0.000000
0.000000
0.000000
-0.000000
-0.000000
0.000000
-0.022304
-0.031306
-0.034486
-0.035423
-0.035243
-0.034727
-0.034272
-0.034058
-0.034185
-0.034602
-0.035313
-0.036155
-0.037111
-0.038125
-0.039140
-0.040109
-0.041018
-0.041848
-0.042601
-0.043275
-0.043869
-0.044390
-0.044845
-0.045243
-0.045596
-0.045917
-0.046238
-0.046550
-0.046797
-0.046884
-0.046756
-0.046021
-0.045629
-0.044923
-0.040997
-0.031656
-0.001459
0.001063
0.002488
0.003076
0.003436
0.003353
0.003187
-0.015852
-0.015590
-0.014984
-0.012871
-0.014389
-0.013999
-0.013873
-0.013968
-0.013745
-0.013265
-0.012616
-0.012896
-0.012254
-0.009949
-0.009518
-0.010007
-0.008765
-0.008838
-0.007792
-0.006903
-0.006734
-0.006653
-0.006308
-0.005973
-0.006294
-0.005629
-0.006819
-0.005752
-0.006653
-0.005544
-0.005734
-0.004666
-0.003576
-0.003493
-0.002890
-0.002037
-0.000988
-0.000778
-0.000250
0.000214
0.000490
0.001886
0.002656
0.001941
0.002084
0.004005
0.003646
0.004627
0.005003
0.006405
0.007423
0.008113
0.008880
0.009014
0.008839
0.009181
0.009605
0.010004
0.011078
0.010860
0.011128
0.011869
0.012748
0.013537
0.013711
0.014683
0.014210
0.015075
0.016087
0.016165
0.017751
0.017209
0.018144
0.016968
0.015524
0.016273
0.016949
0.016423
0.016822
0.017502
0.017651
0.018509
0.019355
0.020304
0.021561
0.021764
0.021922
0.023185
0.024142
0.023452
0.023807
0.023766
0.024556
0.024818
0.025315
0.025732
0.026586
0.027183
0.027283
0.028239
0.028764
0.029539
0.029870
0.030906
0.031664
0.032539
0.033809
0.033760
0.034183
0.034921
0.034963
0.035605
0.035581
0.036257
0.036654
0.036812
0.037848
0.038178
0.037559
0.038346
0.039299
0.039222
0.040138
0.040208
0.040622
0.041361
0.041658
0.042326
0.042951
0.042826
0.043410
0.043377
0.044017
0.044272
0.045235
0.045919
0.046782
0.047375
0.048197
0.048927
0.049623
0.051550
0.051056
0.050893
0.050599
0.050482
0.050415
0.050344
0.050328
0.050395
0.050444
0.050518
0.050593
0.050690
0.050786
0.050882
0.050982
0.051090
0.051183
0.051285
0.051382
0.051482
0.051582
0.051684
0.051773
0.051874
0.051969
0.052070
0.052165
0.052266
0.052365
0.052467
0.052575
0.052682
0.052800
0.052920
0.053048
0.053186
0.053329
0.053487
0.053649
0.053824
0.054009
0.054205
0.054414
0.054638
0.054870
0.055119
-0.036173
-0.036695
-0.037583
-0.035317
-0.028284
-0.026811
-0.029909
-0.027304
0.051971
0.051912
0.023576
0.026108
0.023800
0.025471
-0.025478
-0.025349
-0.024502
-0.026508
-0.037466
-0.038521
-0.039289
-0.036597
-0.017414
-0.016252
-0.015568
-0.012344
-0.002381
-0.002294
-0.001705
-0.003357
0.012673
0.013100
0.013619
0.014143
0.052937
0.054269
0.053621
-0.006352
-0.002675
-0.009957
-0.006015
-0.014598
-0.010290
-0.009882
-0.011456
-0.008703
-0.013768
-0.016064
-0.011374
-0.004112
-0.005001
-0.003801
-0.005319
0.005497
0.013375
0.011147
0.009156
0.010814
0.009813
0.004639
0.004188
0.003216
-0.017590
0.005156
-0.016600
-0.016410
-0.018679
-0.017319
0.038077
0.038253
0.036726
0.003717
0.004503
0.004925
0.008648
0.009746
0.009824
0.039691
0.009126
0.014274
0.019888
0.018887
0.015044
0.030309
0.032391
0.031322
0.034522
0.032340
0.032983
-0.014888
-0.015543
-0.013949
-0.018143
-0.015448
-0.016559
-0.014640
-0.014043
-0.029765
-0.028358
-0.029480
-0.029109
0.012054
0.009953
0.012434
0.007983
-0.018832
-0.019181
-0.016231
0.039435
0.039894
0.038105
-0.021947
-0.032974
-0.035206
-0.035041
-0.012592
-0.011780
-0.011074
-0.010408
-0.037339
-0.028417
-0.025974
-0.030694
0.047841
0.049554
0.049422
0.008748
0.010195
0.011566
-0.024178
-0.023343
0.013619
-0.005687
-0.005036
-0.006901
-0.004345
0.040329
0.038936
0.038390
-0.003292
-0.002495
-0.003820
0.041298
-0.033468
-0.026551
-0.028255
-0.019548
-0.019365
-0.018340
-0.040036
-0.039182
-0.018588
-0.000107
-0.000539
0.001729
-0.040633
0.001476
0.010306
0.011855
-0.036724
-0.035589
-0.035239
-0.015293
-0.011791
-0.009015
-0.017117
-0.018278
0.048244
0.049021
0.047220
0.019190
0.018186
0.017337
0.013482
0.014901
0.013515
0.008145
0.007311
0.006485
0.012421
-0.024708
-0.026317
-0.026366
-0.004096
-0.004911
-0.004813
0.002553
-0.003951
-0.040998
-0.039804
-0.041297
-0.017179
-0.018952
0.048823
0.005849
0.050749
0.049423
0.049213
-0.005482
-0.004427
-0.008137
-0.010190
0.041750
0.041483
0.039222
-0.011986
-0.013614
-0.011797
0.024135
0.024563
0.026023
0.021797
0.050897
0.051252
0.041206
0.021645
0.019831
0.019879
0.012595
0.015770
0.014835
0.023904
0.026151
0.019130
0.020749
0.043340
0.045504
0.041439
-0.013723
-0.018347
-0.018900
-0.020084
-0.019818
0.009558
0.043896
0.043168
0.045222
0.034715
0.033132
0.035374
0.032763
0.036022
0.037466
0.037883
0.049811
0.050231
0.000198
0.001100
0.001349
-0.000087
-0.003380
-0.002171
-0.002899
-0.001686
0.029018
0.027508
0.029178
0.027200
0.027887
0.025236
0.041943
0.043600
0.041679
0.050533
0.050423
-0.008161
-0.008176
-0.009458
-0.006426
-0.006991
-0.005707
-0.005982
-0.009089
-0.009076
-0.007870
-0.000674
-0.001547
-0.000826
-0.001378
0.018437
0.018674
0.019875
0.017266
0.006612
-0.006309
-0.006856
-0.005444
-0.005531
-0.004488
-0.006255
0.045633
0.044085
0.044594
0.042931
0.014221
0.014807
-0.000801
-0.000399
0.000773
0.022670
0.020215
0.013906
0.011512
0.010305
0.011538
0.010868
0.004535
0.004038
0.005778
0.003200
0.039845
0.040326
-0.001647
0.002345
-0.005056
0.009308
0.009170
0.008329
0.031715
0.029279
0.027594
0.010326
0.007277
0.008042
0.006783
0.035542
0.034754
0.035184
0.037149
0.035147
0.037178
0.023398
0.023788
0.022206
0.023214
-0.040511
-0.040739
-0.042185
-0.038606
-0.025723
-0.023590
-0.021243
-0.011275
-0.010148
-0.019150
0.044505
-0.026802
-0.026868
-0.028181
-0.028014
0.016417
0.018416
0.019215
0.021127
-0.005796
-0.003472
-0.002608
-0.001159
0.047286
0.048704
0.048096
0.049484
0.042352
0.039898
-0.031483
-0.033562
-0.034910
-0.041017
-0.042363
-0.041101
-0.042167
-0.038552
-0.037340
0.007941
0.006806
0.006917
0.029813
0.027610
-0.022616
-0.022119
-0.023533
-0.022732
-0.024085
-0.001167
-0.000132
-0.001778
-0.000785
-0.027805
-0.028729
-0.029071
-0.027675
-0.007065
-0.005287
-0.037431
-0.037052
-0.036066
-0.036397
-0.037584
-0.041373
-0.042731
-0.040707
-0.037306
-0.038526
-0.036019
-0.034593
-0.034673
-0.035763
-0.034474
0.000594
0.001405
0.000513
0.017766
-0.007006
-0.012173
-0.006421
-0.014984
-0.020742
0.047346
0.047183
0.048906
0.045017
0.044235
0.046430
-0.031664
-0.031780
-0.032795
-0.028640
-0.025991
-0.025413
-0.029043
0.039861
0.043584
0.042253
0.039180
0.007408
0.007720
-0.025558
-0.024455
-0.025336
-0.024093
-0.029664
-0.034105
-0.039146
-0.028129
-0.030265
-0.041316
0.050598
0.049361
0.048445
0.050738
-0.028825
-0.027788
0.022561
0.023565
0.021017
0.019237
0.023152
0.014144
0.008967
0.010826
0.003954
-0.008727
-0.008408
-0.007881
-0.044828
-0.044708
-0.045730
-0.043861
0.049379
0.024043
-0.033966
-0.033997
-0.035307
-0.045427
-0.043977
-0.035212
0.046695
0.047089
0.048414
-0.037205
-0.036693
-0.038179
-0.032131
-0.035506
-0.034369
0.052042
0.053296
0.051970
0.053229
0.052871
0.021641
0.023186
-0.033704
-0.034044
-0.032854
0.051979
0.028090
0.029984
0.030314
-0.024693
-0.021687
-0.020428
-0.022281
-0.020299
-0.019230
-0.013130
-0.012430
-0.036624
-0.035868
-0.043712
-0.042888
-0.042276
-0.041803
-0.024160
0.045324
-0.024748
-0.042136
-0.043763
-0.040567
-0.038914
0.048695
0.046239
-0.039043
-0.040841
-0.039739
0.053933
-0.044183
0.045012
0.046060
0.043833
-0.034018
-0.034953
-0.033526
0.000068
0.004054
0.003565
0.007295
0.007168
-0.038816
-0.038033
-0.039358
-0.040069
0.030240
0.027496
-0.032825
-0.031924
-0.033247
-0.032010
-0.019748
-0.019176
-0.020978
-0.018766
-0.020725
-0.022467
-0.020520
-0.019946
-0.022279
-0.041965
-0.044123
0.045861
0.046360
-0.026768
-0.025721
-0.027415
-0.027160
-0.029029
0.048041
0.047550
0.045211
-0.016255
-0.016699
-0.026802
-0.027835
-0.016427
-0.015103
0.017670
0.014303
0.014949
0.017230
-0.031879
-0.031270
-0.029673
-0.030175
-0.028588
0.018920
0.051150
0.049832
0.049617
0.048281
0.003153
0.002843
0.005772
0.006152
0.008526
0.008598
0.041027
0.042850
0.051105
0.049644
0.007542
0.009839
0.047248
0.048333
-0.028797
-0.025678
-0.027767
-0.030674
-0.026723
-0.022048
-0.031684
-0.033068
0.026629
-0.031417
-0.045644
0.028315
0.015621
0.014017
0.053260
0.052585
0.051205
-0.044906
-0.032503
-0.032861
-0.035630
0.014430
0.013629
0.012154
0.013152
0.048059
-0.036891
-0.036083
-0.034918
-0.030266
0.025584
0.024721
0.022844
0.023908
0.051434
-0.044375
-0.045107
-0.044009
-0.033259
-0.042026
-0.019604
-0.023118
-0.017294
-0.020507
-0.026912
-0.039448
-0.042367
0.014320
0.013252
0.009992
0.017579
0.001256
-0.002685
0.008316
-0.039622
-0.004026
-0.025690
0.009022
0.002721
0.004109
-0.039866
-0.040936
-0.039865
-0.042772
-0.041276
-0.007881
-0.000304
-0.003714
-0.004059
-0.039427
0.007529
0.003965
0.004119
-0.007984
-0.009340
-0.007135
-0.031352
-0.030954
-0.033282
-0.028199
-0.027894
-0.029708
-0.030116
-0.006539
-0.005154
-0.004432
-0.002896
-0.002282
0.019112
0.016550
0.005935
0.002295
0.001033
0.001662
0.002300
0.021060
0.015514
0.013204
0.011965
0.009931
-0.028885
-0.023187
-0.022330
-0.017749
-0.036281
-0.037650
-0.039272
-0.025884
0.053986
-0.030418
-0.030646
-0.032332
-0.031970
-0.013233
-0.015705
-0.011366
-0.013328
-0.011644
-0.042049
-0.030722
-0.030608
-0.040150
0.049630
0.048969
-0.003157
-0.034019
0.049724
0.046360
-0.021058
-0.025113
-0.021633
0.019634
-0.026353
-0.039604
-0.038569
-0.044129
-0.043047
0.049887
-0.038446
0.003095
0.000195
0.005183
-0.039107
-0.042680
0.052010
-0.020847
-0.024735
-0.028559
-0.033581
0.041914
0.039216
0.040697
0.051561
0.050650
0.051967
-0.028589
-0.034747
-0.035235
-0.037470
-0.032124
0.028270
0.021444
0.021501
0.015651
-0.029476
-0.029282
-0.010163
-0.010092
-0.015317
-0.011621
0.033135
-0.004016
-0.042883
-0.020543
-0.021463
-0.020927
0.010914
-0.016805
-0.015880
-0.015701
-0.028128
-0.023203
-0.020671
-0.019818
-0.016918
-0.027296
-0.011269
-0.012992
-0.012262
0.033352
0.039100
0.035727
0.003423
-0.024076
-0.024667
-0.023273
-0.036760
-0.033875
-0.038687
-0.040728
-0.015324
0.017972
-0.020242
-0.024731
-0.016832
-0.014794
-0.040250
-0.034690
-0.014807
-0.014932
-0.023463
0.017237
0.050498
0.048831
-0.038925
-0.019354
-0.002459
-0.041511
-0.031095
-0.028602
-0.034007
0.025074
-0.044126
0.020878
0.021216
0.020072
-0.008853
-0.003122
-0.040251
-0.011556
-0.022569
-0.024165
-0.025679
0.040432
0.003186
0.001328
0.003206
-0.024897
-0.030893
-0.014154
-0.026655
-0.026310
-0.025367
-0.028922
-0.029679
-0.027480
-0.036779
0.047511
0.049133
-0.023294
-0.023472
-0.024386
0.046364
-0.002994
-0.001875
0.046797
0.043776
0.020626
0.008237
0.005068
-0.037260
-0.038428
0.011045
0.011831
0.009524
0.010185
-0.012345
-0.016011
-0.032051
-0.030467
-0.031370
0.036540
0.035446
0.013091
0.015642
-0.020937
-0.034279
-0.031983
-0.017891
-0.018779
-0.017458
-0.028320
-0.041828
-0.025038
-0.006265
-0.007661
-0.032120
-0.033034
-0.032833
0.042145
-0.009708
-0.009621
-0.011576
-0.033628
-0.026912
-0.029724
-0.028704
-0.012745
-0.008938
0.002652
-0.003353
0.014309
0.050955
-0.029903
-0.011571
-0.010636
-0.022642
-0.024304
-0.026427
-0.016985
-0.017949
-0.017848
0.031356
-0.001642
-0.007281
-0.007834
0.005285
-0.000221
-0.020515
-0.015733
-0.012435
0.020235
0.020649
0.022493
0.011164
-0.008499
-0.029865
-0.030411
-0.031029
-0.031337
0.027232
0.029667
0.025036
-0.013253
-0.011548
-0.035151
-0.017838
-0.018734
-0.017685
-0.018959
0.018157
0.052922
0.052846
0.015742
0.022689
0.014161
0.020128
-0.032134
-0.026918
-0.026254
-0.030312
-0.029322
-0.029568
-0.010092
0.038922
0.036973
-0.003085
0.008855
0.007223
-0.031017
0.006749
-0.024789
-0.016899
-0.032061
-0.027286
-0.026575
-0.021501
0.005218
0.006642
0.005479
0.006735
0.050795
-0.024683
-0.030340
0.038954
-0.026220
-0.031661
0.041657
0.039109
0.039102
0.036669
0.038395
0.035070
0.035730
-0.038416
-0.036526
-0.038989
-0.022508
-0.024684
-0.024902
0.005678
0.003021
-0.021840
-0.029987
-0.028001
-0.013328
-0.007567
-0.028807
-0.032044
0.016488
-0.013259
-0.020576
-0.031224
-0.036703
0.052355
-0.000586
-0.029899
-0.032997
-0.027678
-0.001199
-0.003870
0.011062
0.001578
-0.000246
-0.001598
-0.003941
-0.008722
0.002823
0.000707
0.005794
0.002073
0.005827
-0.016586
-0.027730
0.048665
0.049214
-0.019892
-0.022972
-0.009799
-0.010909
-0.011965
0.031896
0.027070
0.001748
0.000893
0.000459
0.001080
0.021320
0.023832
-0.024711
-0.024256
-0.017200
-0.030919
0.003685
0.010220
-0.024689
0.030678
0.031873
-0.027051
-0.008833
-0.005740
-0.007327
0.052061
0.034359
0.037066
0.036475
-0.028923
-0.030606
0.044626
-0.021399
-0.011057
-0.022435
0.030800
-0.021229
-0.019593
-0.012404
-0.025632
-0.022786
-0.016589
-0.016849
0.028219
0.025751
0.026260
0.039041
0.040382
0.038997
0.037235
0.039177
0.022230
0.047688
0.046593
-0.024146
0.016936
0.015397
-0.019238
-0.013796
-0.012850
0.037875
0.035823
-0.005564
-0.021467
-0.008554
-0.022431
-0.021113
-0.009273
-0.008607
-0.009898
0.051946
0.050949
-0.016972
-0.002750
-0.013856
0.025637
0.039126
0.040675
0.041122
0.033600
0.032718
0.039590
-0.023372
-0.031321
-0.026646
0.000269
-0.000111
-0.009802
-0.042153
-0.008595
0.024534
0.019598
0.022291
0.021181
-0.017252
-0.016872
-0.011140
-0.019650
0.031806
-0.021526
-0.017846
-0.011787
-0.003333
0.033758
0.033533
-0.036244
0.046520
0.047484
-0.028242
0.007638
-0.028185
0.046423
0.005073
0.031895
-0.017888
0.045587
-0.033037
0.035072
-0.019626
-0.015067
-0.007235
-0.009152
-0.032122
0.036151
0.036598
0.031850
0.040977
0.015897
0.017113
0.016804
-0.007154
-0.011726
-0.004666
-0.004671
0.015906
0.017901
-0.019142
0.019717
-0.006288
-0.007138
-0.015053
-0.013842
-0.014075
-0.013650
-0.012922
-0.012633
-0.004226
-0.032150
0.015221
-0.004589
0.043811
0.022074
0.025052
-0.015126
0.016086
0.008404
0.012550
-0.022870
-0.026329
-0.028390
0.007538
0.008983
0.006277
0.032391
0.031802
0.028838
0.028534
0.042711
0.044530
0.043248
0.044932
-0.028986
-0.038883
0.009406
0.009631
0.008691
0.013001
-0.013608
0.020969
0.021911
0.022345
0.005154
0.005981
-0.009044
-0.006434
0.023500
0.022982
0.024333
0.002625
0.001975
0.013676
0.005120
0.005673
-0.026316
-0.022822
0.045807
0.047190
0.002893
0.003953
0.003985
0.045465
0.044305
0.044449
0.042008
-0.027672
0.027635
0.045397
-0.012006
-0.011335
-0.010909
0.033615
0.035305
0.032928
-0.013690
-0.021063
0.035321
-0.021738
-0.022859
-0.023905
0.037192
0.033249
0.002378
0.001413
-0.003594
-0.000916
-0.006022
0.039753
0.042290
0.038097
0.000527
0.002066
-0.008475
0.000529
-0.007964
-0.007222
-0.006510
0.042776
0.040428
-0.034176
-0.035491
-0.004450
0.002692
0.004783
-0.002970
0.001557
-0.042921
0.003560
-0.019618
-0.020101
-0.018060
0.036782
-0.017190
-0.020286
-0.021688
-0.022030
0.028907
-0.003173
-0.033029
0.024888
0.047983
0.046325
0.028538
0.029308
0.030069
0.031435
0.012550
0.012558
0.012936
0.011497
0.012099
0.027375
0.048203
0.047210
-0.004138
0.001039
-0.002177
-0.012012
-0.010699
0.004501
0.006502
-0.000013
0.013697
-0.012333
0.014709
0.014930
0.016464
0.014547
0.049036
0.015839
0.014250
0.046339
0.045323
0.048183
0.043427
0.023813
0.037128
-0.005544
-0.003008
0.022420
0.028325
0.024933
0.008044
0.005969
-0.014312
-0.015329
-0.015642
-0.011885
-0.011517
0.006327
0.006879
0.001121
0.020777
0.021730
0.019302
0.022369
0.025114
0.041369
0.041912
0.029732
0.028297
0.031320
0.031841
0.033242
0.035462
0.037388
0.033612
-0.019996
0.043964
0.046621
0.046083
0.048796
0.044115
0.050193
0.050073
0.001232
-0.005060
-0.009057
0.043631
0.045537
-0.024284
0.050507
0.034175
0.036843
0.026527
0.047033
-0.045653
-0.045643
-0.034034
-0.045282
-0.043555
0.006158
-0.007673
0.005846
-0.014375
-0.011660
-0.014530
-0.034920
-0.011751
0.028822
0.031071
0.014137
0.011041
0.035134
0.032843
0.029622
-0.002494
0.029113
0.006505
0.013031
0.013734
-0.015487
0.040687
0.009716
0.031417
0.030840
0.049527
0.050715
0.048159
0.048700
0.046264
0.047331
0.048494
0.011710
0.013759
-0.033880
0.032842
0.039576
0.041199
0.041133
0.004501
0.011892
0.011842
-0.013205
-0.012781
-0.008086
-0.008986
-0.001444
-0.002054
0.016125
0.015666
0.014758
0.034421
-0.014464
-0.012998
-0.016217
0.046181
0.044496
0.029443
0.024983
0.023265
0.017414
-0.010102
-0.006218
-0.014080
0.048188
0.021665
0.020582
0.020086
0.047525
0.048470
0.047152
-0.025806
0.028351
-0.013665
-0.004937
-0.004790
-0.006270
-0.019260
0.018520
-0.010681
-0.040514
-0.013713
0.018537
0.013468
0.004349
0.002961
0.016399
-0.005302
-0.005964
-0.004810
0.015518
0.032955
-0.005482
-0.008947
-0.010255
0.001675
-0.004324
0.017760
0.000927
-0.036818
-0.033471
0.036317
0.019623
-0.022094
0.014430
0.015781
0.032770
0.009103
0.042529
0.030832
0.033015
-0.011935
0.008338
-0.010185
0.020144
-0.035165
0.000363
-0.012108
0.024688
0.026437
0.020345
0.010720
0.011201
0.029308
0.027737
-0.032029
-0.032155
0.001751
-0.001789
0.024769
0.018166
0.008433
-0.007252
0.042695
-0.006246
0.042671
0.041280
0.008676
-0.007337
-0.006294
0.043372
0.042435
0.032773
0.028627
0.006157
0.027622
0.040163
0.040002
0.031493
0.034984
0.048441
0.049576
0.014082
0.025273
0.025545
0.026443
-0.037626
0.048300
0.021311
0.026082
-0.016342
0.018131
0.035980
-0.012804
-0.011481
0.039254
0.009651
0.045719
0.049360
-0.014509
0.005131
-0.036574
-0.022597
0.000402
-0.000789
-0.002108
-0.003065
-0.016327
-0.005425
0.001360
0.002367
0.031056
0.016629
0.018651
0.019217
0.011938
0.037480
-0.002357
0.038036
0.036259
0.042441
-0.009402
-0.008545
0.010014
0.015035
0.016133
0.048624
0.033848
-0.020585
0.027471
0.020542
0.001749
0.030285
0.050810
0.036233
0.043253
0.043319
-0.014351
0.041278
-0.003711
0.033081
0.050323
0.029094
-0.001100
0.006785
0.008157
-0.003005
-0.000567
0.007448
-0.002163
0.010815
0.010214
0.021822
0.003882
0.025471
0.025713
0.026890
-0.001327
0.010780
0.036258
0.038439
0.016564
0.002720
0.018372
0.018541
0.019191
0.031776
-0.002671
0.015635
0.008678
0.034680
0.017687
0.035018
-0.003342
0.008161
0.004796
0.048935
0.047808
0.016605
0.027452
0.027609
0.046634
0.015039
0.024572
0.031275
-0.020726
-0.010131
0.038120
0.026099
0.044227
0.044426
0.044063
-0.003080
0.002574
0.018415
0.018858
0.020181
0.020788
0.013035
0.019528
0.016955
0.030451
0.027558
0.033191
0.075978
0.072922
0.075393
0.061597
0.060121
0.062817
0.071566
0.079371
0.043730
0.043572
0.036661
0.069880
0.076724
0.076404
0.032662
0.030739
0.032535
0.065212
0.065653
0.067888
0.062829
0.031425
0.018885
0.021144
0.030823
0.031102
0.032126
0.031946
0.033067
0.029978
0.029536
0.061572
0.059776
0.060631
0.060067
0.032101
0.035282
0.029823
0.028408
0.029504
0.036567
0.040725
0.061238
0.059027
0.060478
0.059349
0.024720
0.025814
0.023849
0.053077
0.053179
0.049781
0.044437
0.043169
0.044138
0.042262
0.088226
0.087322
0.024884
0.027823
0.030766
0.016115
0.018334
0.018799
0.039380
0.040331
0.040312
0.021174
0.027235
0.028500
0.028983
0.041474
0.059318
0.060792
0.061329
0.057618
0.073652
0.073559
0.077624
0.069890
0.042323
0.045570
0.045489
0.063603
0.064679
0.065014
0.066263
0.032541
0.027597
0.029988
0.008134
0.006950
0.038970
0.038799
0.040776
0.035432
0.057209
0.058599
0.055894
0.057649
0.053577
0.052779
0.055270
0.051833
0.061433
0.060984
0.059086
0.062437
0.058515
0.061665
0.061497
0.058506
0.024239
0.028812
0.012361
0.011855
0.012597
0.012971
0.005260
0.019973
0.010745
0.017191
0.055571
0.056024
0.035684
0.035099
0.032472
0.030994
0.009803
0.022752
0.019614
0.028251
0.022158
0.013408
0.016297
0.016320
0.018694
0.020929
0.013338
0.013938
0.009811
0.009893
0.012923
0.025514
0.023918
0.012993
0.010000
0.006605
0.056412
0.056589
0.035471
0.041920
0.043350
0.069292
0.067213
0.069170
0.045144
0.031316
0.027601
0.033920
0.014831
0.013561
0.059776
0.062787
0.064444
0.063442
0.047151
0.046992
0.045917
0.068570