# vtk DataFile Version 2.0
Test
ASCII
DATASET POLYDATA
POINTS 3011 float
0.000000 0.000000 0.000000
2.000000 0.000000 0.000000
2.000000 4.000000 0.000000
0.000000 4.000000 0.000000
0.000000 0.500000 0.000000
1.500000 2.000000 0.000000
2.000000 2.500000 0.000000
0.285714 0.000000 0.000000
0.571429 0.000000 0.000000
0.857143 0.000000 0.000000
1.142857 0.000000 0.000000
1.428571 0.000000 0.000000
1.714286 0.000000 0.000000
2.000000 0.276366 0.000000
2.000000 0.523709 0.000000
2.000000 0.745076 0.000000
2.000000 0.943195 0.000000
2.000000 1.120508 0.000000
2.000000 1.279199 0.000000
2.000000 1.421225 0.000000
2.000000 1.548336 0.000000
2.000000 1.662097 0.000000
2.000000 1.763911 0.000000
2.000000 1.855033 0.000000
2.000000 1.936585 0.000000
2.000000 2.009573 0.000000
2.000000 2.074896 0.000000
2.000000 2.133358 0.000000
2.000000 2.185681 0.000000
2.000000 2.232509 0.000000
2.000000 2.274419 0.000000
2.000000 2.311927 0.000000
2.000000 2.345497 0.000000
2.000000 2.375541 0.000000
2.000000 2.402430 0.000000
2.000000 2.426495 0.000000
2.000000 2.448033 0.000000
2.000000 2.467309 0.000000
2.000000 2.484560 0.000000
2.000000 2.516256 0.000000
2.000000 2.535859 0.000000
2.000000 2.559499 0.000000
2.000000 2.588006 0.000000
2.000000 2.622383 0.000000
2.000000 2.663839 0.000000
2.000000 2.713831 0.000000
2.000000 2.774116 0.000000
2.000000 2.846815 0.000000
2.000000 2.934483 0.000000
2.000000 3.040202 0.000000
2.000000 3.167691 0.000000
2.000000 3.321430 0.000000
2.000000 3.506825 0.000000
2.000000 3.730395 0.000000
1.714286 4.000000 0.000000
1.428571 4.000000 0.000000
1.142857 4.000000 0.000000
0.857143 4.000000 0.000000
0.571429 4.000000 0.000000
0.285714 4.000000 0.000000
0.000000 3.713462 0.000000
0.000000 3.449209 0.000000
0.000000 3.205508 0.000000
0.000000 2.980761 0.000000
0.000000 2.773493 0.000000
0.000000 2.582346 0.000000
0.000000 2.406065 0.000000
0.000000 2.243495 0.000000
0.000000 2.093568 0.000000
0.000000 1.955302 0.000000
0.000000 1.827789 0.000000
0.000000 1.710194 0.000000
0.000000 1.601745 0.000000
0.000000 1.501730 0.000000
0.000000 1.409494 0.000000
0.000000 1.324431 0.000000
0.000000 1.245984 0.000000
0.000000 1.173639 0.000000
0.000000 1.106920 0.000000
0.000000 1.045390 0.000000
0.000000 0.988645 0.000000
0.000000 0.936314 0.000000
0.000000 0.888053 0.000000
0.000000 0.843545 0.000000
0.000000 0.802499 0.000000
0.000000 0.764646 0.000000
0.000000 0.729736 0.000000
0.000000 0.697541 0.000000
0.000000 0.667851 0.000000
0.000000 0.640469 0.000000
0.000000 0.615217 0.000000
0.000000 0.591929 0.000000
0.000000 0.570453 0.000000
0.000000 0.550646 0.000000
0.000000 0.532380 0.000000
0.000000 0.515535 0.000000
0.000000 0.483768 0.000000
0.000000 0.461535 0.000000
0.000000 0.431083 0.000000
0.000000 0.389372 0.000000
0.000000 0.332241 0.000000
0.000000 0.253989 0.000000
0.000000 0.146807 0.000000
0.010563 0.510563 0.000000
0.021127 0.521127 0.000000
0.031690 0.531690 0.000000
0.042254 0.542254 0.000000
0.052817 0.552817 0.000000
0.063380 0.563380 0.000000
0.073944 0.573944 0.000000
0.084507 0.584507 0.000000
0.095070 0.595070 0.000000
0.105634 0.605634 0.000000
0.116197 0.616197 0.000000
0.126761 0.626761 0.000000
0.137324 0.637324 0.000000
0.147887 0.647887 0.000000
0.158451 0.658451 0.000000
0.169014 0.669014 0.000000
0.179577 0.679577 0.000000
0.190141 0.690141 0.000000
0.200704 0.700704 0.000000
0.211268 0.711268 0.000000
0.221831 0.721831 0.000000
0.232394 0.732394 0.000000
0.242958 0.742958 0.000000
0.253521 0.753521 0.000000
0.264085 0.764085 0.000000
0.274648 0.774648 0.000000
0.285211 0.785211 0.000000
0.295775 0.795775 0.000000
0.306338 0.806338 0.000000
0.316901 0.816901 0.000000
0.327465 0.827465 0.000000
0.338028 0.838028 0.000000
0.348592 0.848592 0.000000
0.359155 0.859155 0.000000
0.369718 0.869718 0.000000
0.380282 0.880282 0.000000
0.390845 0.890845 0.000000
0.401408 0.901408 0.000000
0.411972 0.911972 0.000000
0.422535 0.922535 0.000000
0.433099 0.933099 0.000000
0.443662 0.943662 0.000000
0.454225 0.954225 0.000000
0.464789 0.964789 0.000000
0.475352 0.975352 0.000000
0.485915 0.985915 0.000000
0.496479 0.996479 0.000000
0.507042 1.007042 0.000000
0.517606 1.017606 0.000000
0.528169 1.028169 0.000000
0.538732 1.038732 0.000000
0.549296 1.049296 0.000000
0.559859 1.059859 0.000000
0.570423 1.070423 0.000000
0.580986 1.080986 0.000000
0.591549 1.091549 0.000000
0.602113 1.102113 0.000000
0.612676 1.112676 0.000000
0.623239 1.123239 0.000000
0.633803 1.133803 0.000000
0.644366 1.144366 0.000000
0.654930 1.154930 0.000000
0.665493 1.165493 0.000000
0.676056 1.176056 0.000000
0.686620 1.186620 0.000000
0.697183 1.197183 0.000000
0.707746 1.207746 0.000000
0.718310 1.218310 0.000000
0.728873 1.228873 0.000000
0.739437 1.239437 0.000000
0.750000 1.250000 0.000000
0.760563 1.260563 0.000000
0.771127 1.271127 0.000000
0.781690 1.281690 0.000000
0.792254 1.292254 0.000000
0.802817 1.302817 0.000000
0.813380 1.313380 0.000000
0.823944 1.323944 0.000000
0.834507 1.334507 0.000000
0.845070 1.345070 0.000000
0.855634 1.355634 0.000000
0.866197 1.366197 0.000000
0.876761 1.376761 0.000000
0.887324 1.387324 0.000000
0.897887 1.397887 0.000000
0.908451 1.408451 0.000000
0.919014 1.419014 0.000000
0.929577 1.429577 0.000000
0.940141 1.440141 0.000000
0.950704 1.450704 0.000000
0.961268 1.461268 0.000000
0.971831 1.471831 0.000000
0.982394 1.482394 0.000000
0.992958 1.492958 0.000000
1.003521 1.503521 0.000000
1.014085 1.514085 0.000000
1.024648 1.524648 0.000000
1.035211 1.535211 0.000000
1.045775 1.545775 0.000000
1.056338 1.556338 0.000000
1.066901 1.566901 0.000000
1.077465 1.577465 0.000000
1.088028 1.588028 0.000000
1.098592 1.598592 0.000000
1.109155 1.609155 0.000000
1.119718 1.619718 0.000000
1.130282 1.630282 0.000000
1.140845 1.640845 0.000000
1.151408 1.651408 0.000000
1.161972 1.661972 0.000000
1.172535 1.672535 0.000000
1.183099 1.683099 0.000000
1.193662 1.693662 0.000000
1.204225 1.704225 0.000000
1.214789 1.714789 0.000000
1.225352 1.725352 0.000000
1.235915 1.735915 0.000000
1.246479 1.746479 0.000000
1.257042 1.757042 0.000000
1.267606 1.767606 0.000000
1.278169 1.778169 0.000000
1.288732 1.788732 0.000000
1.299296 1.799296 0.000000
1.309859 1.809859 0.000000
1.320423 1.820423 0.000000
1.330986 1.830986 0.000000
1.341549 1.841549 0.000000
1.352113 1.852113 0.000000
1.362676 1.862676 0.000000
1.373239 1.873239 0.000000
1.383803 1.883803 0.000000
1.394366 1.894366 0.000000
1.404930 1.904930 0.000000
1.415493 1.915493 0.000000
1.426056 1.926056 0.000000
1.436620 1.936620 0.000000
1.447183 1.947183 0.000000
1.457746 1.957746 0.000000
1.468310 1.968310 0.000000
1.478873 1.978873 0.000000
1.489437 1.989437 0.000000
1.510417 2.010417 0.000000
1.520833 2.020833 0.000000
1.531250 2.031250 0.000000
1.541667 2.041667 0.000000
1.552083 2.052083 0.000000
1.562500 2.062500 0.000000
1.572917 2.072917 0.000000
1.583333 2.083333 0.000000
1.593750 2.093750 0.000000
1.604167 2.104167 0.000000
1.614583 2.114583 0.000000
1.625000 2.125000 0.000000
1.635417 2.135417 0.000000
1.645833 2.145833 0.000000
1.656250 2.156250 0.000000
1.666667 2.166667 0.000000
1.677083 2.177083 0.000000
1.687500 2.187500 0.000000
1.697917 2.197917 0.000000
1.708333 2.208333 0.000000
1.718750 2.218750 0.000000
1.729167 2.229167 0.000000
1.739583 2.239583 0.000000
1.750000 2.250000 0.000000
1.760417 2.260417 0.000000
1.770833 2.270833 0.000000
1.781250 2.281250 0.000000
1.791667 2.291667 0.000000
1.802083 2.302083 0.000000
1.812500 2.312500 0.000000
1.822917 2.322917 0.000000
1.833333 2.333333 0.000000
1.843750 2.343750 0.000000
1.854167 2.354167 0.000000
1.864583 2.364583 0.000000
1.875000 2.375000 0.000000
1.885417 2.385417 0.000000
1.895833 2.395833 0.000000
1.906250 2.406250 0.000000
1.916667 2.416667 0.000000
1.927083 2.427083 0.000000
1.937500 2.437500 0.000000
1.947917 2.447917 0.000000
1.958333 2.458333 0.000000
1.968750 2.468750 0.000000
1.979167 2.479167 0.000000
1.989583 2.489583 0.000000
0.206561 0.791563 0.000000
0.205359 0.816165 0.000000
0.186354 0.798211 0.000000
0.221961 0.800924 0.000000
0.280649 1.360489 0.000000
0.304015 1.400469 0.000000
0.229142 1.396096 0.000000
0.275922 1.451476 0.000000
1.869084 2.391788 0.000000
1.857928 2.378421 0.000000
1.238669 2.061899 0.000000
1.278787 2.082276 0.000000
1.238298 2.096047 0.000000
1.277579 2.032995 0.000000
0.402536 1.205823 0.000000
0.415290 1.176040 0.000000
0.428330 1.201952 0.000000
0.387294 1.172617 0.000000
0.146930 1.050586 0.000000
0.109488 1.087198 0.000000
0.102742 1.042403 0.000000
0.157178 1.091184 0.000000
0.588967 1.178581 0.000000
0.593116 1.153718 0.000000
0.608054 1.166752 0.000000
0.612180 1.145944 0.000000
0.860304 1.543784 0.000000
0.868821 1.521840 0.000000
0.878420 1.536650 0.000000
0.845380 1.517623 0.000000
1.129525 1.764330 0.000000
1.142005 1.751560 0.000000
1.145757 1.773681 0.000000
1.159368 1.759106 0.000000
1.968150 2.518865 0.000000
1.986105 2.509269 0.000000
1.986696 2.531115 0.000000
0.668964 1.191005 0.000000
0.683291 1.201259 0.000000
0.557625 1.074830 0.000000
0.569760 1.084377 0.000000
0.557769 1.089278 0.000000
0.707567 1.266174 0.000000
0.719026 1.281845 0.000000
0.700768 1.282275 0.000000
0.722329 1.266956 0.000000
0.468225 2.149688 0.000000
0.419106 2.064198 0.000000
0.523878 2.082648 0.000000
0.838546 1.421191 0.000000
0.823708 1.410355 0.000000
0.840477 1.404206 0.000000
0.818500 1.425973 0.000000
0.953187 1.488222 0.000000
0.959780 1.473222 0.000000
0.967054 1.485637 0.000000
1.047418 1.769126 0.000000
1.080240 1.782403 0.000000
1.047768 1.802712 0.000000
0.971392 1.693320 0.000000
0.949208 1.720793 0.000000
0.940644 1.684781 0.000000
0.381391 2.160909 0.000000
0.944091 1.477800 0.000000
0.530075 1.477351 0.000000
0.521303 1.516669 0.000000
0.474240 1.491166 0.000000
0.489489 1.546185 0.000000
1.537370 2.239326 0.000000
1.555275 2.267640 0.000000
1.532966 2.278201 0.000000
0.962010 1.661716 0.000000
0.986804 1.643200 0.000000
0.986259 1.672729 0.000000
1.049149 1.737940 0.000000
1.075111 1.737123 0.000000
[...]
POINT_DATA 3011
SCALARS UX float 1
LOOKUP_TABLE default
-0.000000
0.000000
-0.007806
-0.017376
-0.008511
-0.002403
-0.004661
-0.000000
-0.000000
-0.000000
-0.000000
0.000000
-0.000000
0.003225
0.004528
0.005257
0.005707
0.005981
0.006128
0.006156
0.006026
0.005705
0.005164
0.004350
0.003364
0.002243
0.001151
0.000133
-0.000766
-0.001524
-0.002154
-0.002677
-0.003108
-0.003462
-0.003757
-0.004004
-0.004212
-0.004387
-0.004535
-0.004788
-0.004934
-0.005102
-0.005284
-0.005491
-0.005721
-0.005953
-0.006208
-0.006470
-0.006713
-0.006961
-0.007195
-0.007421
-0.007617
-0.007745
-0.009451
-0.010982
-0.012383
-0.013681
-0.014936
-0.016158
-0.017241
-0.016982
-0.016585
-0.016159
-0.015747
-0.015417
-0.015203
-0.015105
-0.015136
-0.015268
-0.015486
-0.015737
-0.016013
-0.016297
-0.016573
-0.016827
-0.017058
-0.017262
-0.017441
-0.017598
-0.017732
-0.017832
-0.017902
-0.017946
-0.017966
-0.017969
-0.017963
-0.017934
-0.017882
-0.017826
-0.017712
-0.017326
-0.017059
-0.016522
-0.015124
-0.012284
-0.004985
-0.004464
-0.003857
-0.003478
-0.003029
-0.002477
-0.001695
-0.008423
-0.008328
-0.008084
-0.008213
-0.008290
-0.008261
-0.008252
-0.008088
-0.008272
-0.008106
-0.008184
-0.008200
-0.007851
-0.007636
-0.007679
-0.008491
-0.008480
-0.008510
-0.008277
-0.008309
-0.008139
-0.008323
-0.008297
-0.008256
-0.008348
-0.008371
-0.008427
-0.008472
-0.008610
-0.008791
-0.008760
-0.008905
-0.008649
-0.008627
-0.008350
-0.008473
-0.008318
-0.008388
-0.008126
-0.008388
-0.008178
-0.008068
-0.007991
-0.008015
-0.007906
-0.007861
-0.007678
-0.007603
-0.007444
-0.007240
-0.007182
-0.007057
-0.006982
-0.007328
-0.006993
-0.006990
-0.007046
-0.007059
-0.006897
-0.006956
-0.006941
-0.006807
-0.006694
-0.006562
-0.006660
-0.006387
-0.006610
-0.006550
-0.006404
-0.006102
-0.006290
-0.006041
-0.006021
-0.006232
-0.006546
-0.006514
-0.006446
-0.006585
-0.006552
-0.006452
-0.006433
-0.006335
-0.006226
-0.005879
-0.005858
-0.005626
-0.005734
-0.005511
-0.005346
-0.005665
-0.005687
-0.005573
-0.005576
-0.005340
-0.005371
-0.005146
-0.005117
-0.005095
-0.005136
-0.004979
-0.004928
-0.004795
-0.004665
-0.004512
-0.004442
-0.004319
-0.004083
-0.004162
-0.003991
-0.003868
-0.003982
-0.003934
-0.003899
-0.003937
-0.003898
-0.003842
-0.003803
-0.003722
-0.003690
-0.003779
-0.003574
-0.003673
-0.003652
-0.003636
-0.003685
-0.003611
-0.003308
-0.003403
-0.003298
-0.003247
-0.003386
-0.003528
-0.003452
-0.003372
-0.003288
-0.003086
-0.003096
-0.002954
-0.002744
-0.002771
-0.002635
-0.002413
-0.002449
-0.002523
-0.002626
-0.002710
-0.002795
-0.002887
-0.002969
-0.003037
-0.003108
-0.003175
-0.003241
-0.003301
-0.003362
-0.003422
-0.003479
-0.003539
-0.003606
-0.003667
-0.003727
-0.003784
-0.003840
-0.003893
-0.003949
-0.004000
-0.004051
-0.004101
-0.004150
-0.004197
-0.004243
-0.004288
-0.004330
-0.004372
-0.004410
-0.004448
-0.004482
-0.004513
-0.004543
-0.004568
-0.004591
-0.004612
-0.004629
-0.004643
-0.004653
-0.004660
-0.004664
-0.004664
-0.016400
-0.016650
-0.016757
-0.016247
-0.015494
-0.015253
-0.015599
-0.015206
-0.004712
-0.004656
-0.007817
-0.007409
-0.007783
-0.007503
-0.015441
-0.015449
-0.015322
-0.015598
-0.016984
-0.017057
-0.017192
-0.016844
-0.014160
-0.013774
-0.013670
-0.012651
-0.012036
-0.012006
-0.011917
-0.012185
-0.009640
-0.009527
-0.009478
-0.009332
-0.005069
-0.004849
-0.005009
-0.011163
-0.010528
-0.011416
-0.010930
-0.012888
-0.012797
-0.012743
-0.013191
-0.012310
-0.012720
-0.013024
-0.012457
-0.012089
-0.012258
-0.011915
-0.012390
-0.009883
-0.007784
-0.008363
-0.010229
-0.009969
-0.010111
-0.010953
-0.010996
-0.011163
-0.013169
-0.009913
-0.013967
-0.013865
-0.014171
-0.013906
-0.005958
-0.006068
-0.006338
-0.011101
-0.010967
-0.010915
-0.010314
-0.010125
-0.010121
-0.005752
-0.010221
-0.008883
-0.007158
-0.007533
-0.008536
-0.006980
-0.006641
-0.006920
-0.006446
-0.006851
-0.006639
-0.013839
-0.013962
-0.013745
-0.013908
-0.013590
-0.013632
-0.013869
-0.013296
-0.015967
-0.015789
-0.015889
-0.015923
-0.009595
-0.009799
-0.009471
-0.010130
-0.013713
-0.013905
-0.013472
-0.005404
-0.005428
-0.005721
-0.014133
-0.016259
-0.016493
-0.016560
-0.013557
-0.013465
-0.013351
-0.013271
-0.016784
-0.014768
-0.014393
-0.014928
-0.005424
-0.005094
-0.005202
-0.009922
-0.009727
-0.009549
-0.015251
-0.015166
-0.009263
-0.012446
-0.012311
-0.012574
-0.012264
-0.004917
-0.005325
-0.005314
-0.012175
-0.012038
-0.012228
-0.004798
-0.014830
-0.012896
-0.013417
-0.014639
-0.014596
-0.014443
-0.017112
-0.016914
-0.014445
-0.011440
-0.011574
-0.011238
-0.017260
-0.011338
-0.010007
-0.009791
-0.016923
-0.016761
-0.016747
-0.013181
-0.012286
-0.011586
-0.013633
-0.014076
-0.003446
-0.003362
-0.003729
-0.008578
-0.008726
-0.008884
-0.009538
-0.009299
-0.009531
-0.009934
-0.010281
-0.010424
-0.009714
-0.014776
-0.015272
-0.015163
-0.012241
-0.012407
-0.012357
-0.011228
-0.012254
-0.017459
-0.017321
-0.017508
-0.013907
-0.014348
-0.005147
-0.010621
-0.004383
-0.004688
-0.004638
-0.012463
-0.012233
-0.012175
-0.012734
-0.006158
-0.006338
-0.006621
-0.013269
-0.013627
-0.013106
-0.008168
-0.007949
-0.007866
-0.008464
-0.004433
-0.004424
-0.005075
-0.008142
-0.008427
-0.008444
-0.008541
-0.007784
-0.008029
-0.009578
-0.009393
-0.010192
-0.010055
-0.003720
-0.003429
-0.004295
-0.012928
-0.014290
-0.014455
-0.014638
-0.014647
-0.009616
-0.005994
-0.005988
-0.005621
-0.007119
-0.007235
-0.006843
-0.007441
-0.006610
-0.006451
-0.006249
-0.004053
-0.003909
-0.011599
-0.011386
-0.011398
-0.011595
-0.011970
-0.011619
-0.011889
-0.011557
-0.006926
-0.007165
-0.006870
-0.006565
-0.006461
-0.007178
-0.004409
-0.004115
-0.004548
-0.004117
-0.004049
-0.012748
-0.012832
-0.013059
-0.012650
-0.012749
-0.012548
-0.012580
-0.012906
-0.012787
-0.012540
-0.011665
-0.011831
-0.011624
-0.011835
-0.008551
-0.008416
-0.008176
-0.008778
-0.010223
-0.012176
-0.012476
-0.012457
-0.012504
-0.012343
-0.012045
-0.004725
-0.005016
-0.004829
-0.005167
-0.009401
-0.009266
-0.011766
-0.011727
-0.011538
-0.006409
-0.006954
-0.008591
-0.009584
-0.009874
-0.009486
-0.009815
-0.010771
-0.010812
-0.010403
-0.011071
-0.004234
-0.004110
-0.010389
-0.009331
-0.011195
-0.009991
-0.010114
-0.010276
-0.006646
-0.007054
-0.007418
-0.009785
-0.010505
-0.010300
-0.010558
-0.006411
-0.006682
-0.005487
-0.005099
-0.005621
-0.005237
-0.007644
-0.007582
-0.007979
-0.007785
-0.017361
-0.017339
-0.017534
-0.017152
-0.015210
-0.014581
-0.013808
-0.013707
-0.013916
-0.014800
-0.003838
-0.015631
-0.015664
-0.015841
-0.015819
-0.008886
-0.008621
-0.008483
-0.008206
-0.011913
-0.011659
-0.011481
-0.011359
-0.004568
-0.004291
-0.004482
-0.004192
-0.004482
-0.004910
-0.015407
-0.015547
-0.015837
-0.016922
-0.017215
-0.016819
-0.017264
-0.017172
-0.017014
-0.010428
-0.010617
-0.010594
-0.006713
-0.007124
-0.015050
-0.014996
-0.015204
-0.015091
-0.015280
-0.011848
-0.011677
-0.011908
-0.011724
-0.015587
-0.015807
-0.015804
-0.015469
-0.012714
-0.012480
-0.017009
-0.016916
-0.016793
-0.016880
-0.017048
-0.016662
-0.017059
-0.016366
-0.015227
-0.015471
-0.016615
-0.016225
-0.016366
-0.016682
-0.016417
-0.011084
-0.011038
-0.011227
-0.008757
-0.015548
-0.015259
-0.014810
-0.016407
-0.015739
-0.006138
-0.006061
-0.005858
-0.006481
-0.006474
-0.006059
-0.016293
-0.016312
-0.016442
-0.015068
-0.014836
-0.014616
-0.014981
-0.007346
-0.006803
-0.007106
-0.007554
-0.010517
-0.010458
-0.015403
-0.015232
-0.015433
-0.015214
-0.013765
-0.015099
-0.015137
-0.012221
-0.012584
-0.015915
-0.005083
-0.005385
-0.005440
-0.004955
-0.015915
-0.015764
-0.008506
-0.008489
-0.008873
-0.008950
-0.008731
-0.010741
-0.011400
-0.010987
-0.011859
-0.012955
-0.012867
-0.012866
-0.017554
-0.017648
-0.017753
-0.017419
-0.005879
-0.008646
-0.016525
-0.016573
-0.016746
-0.017263
-0.016675
-0.016692
-0.005491
-0.005311
-0.005117
-0.016418
-0.016417
-0.016776
-0.015226
-0.015919
-0.015651
-0.005064
-0.004885
-0.005134
-0.004847
-0.005018
-0.008116
-0.007882
-0.016524
-0.016593
-0.016441
-0.005288
-0.007630
-0.007247
-0.007370
-0.015367
-0.014899
-0.014698
-0.014931
-0.014730
-0.014562
-0.013654
-0.013561
-0.016476
-0.016253
-0.017781
-0.017670
-0.017618
-0.017536
-0.015261
-0.003819
-0.015372
-0.016419
-0.016876
-0.015804
-0.015252
-0.006076
-0.006501
-0.016427
-0.017000
-0.016545
-0.004818
-0.017124
-0.006094
-0.006015
-0.006412
-0.016465
-0.016587
-0.016259
-0.011230
-0.010688
-0.010881
-0.010353
-0.010502
-0.017013
-0.016945
-0.017182
-0.017238
-0.006766
-0.007216
-0.016170
-0.015855
-0.016044
-0.015779
-0.014543
-0.014402
-0.014651
-0.014275
-0.014544
-0.014604
-0.014424
-0.014237
-0.014491
-0.016212
-0.016884
-0.005756
-0.005773
-0.015593
-0.015432
-0.015622
-0.015508
-0.015765
-0.002993
-0.003143
-0.003604
-0.014096
-0.014117
-0.015656
-0.015780
-0.014152
-0.013964
-0.008892
-0.009366
-0.009187
-0.008857
-0.013150
-0.015792
-0.015243
-0.015218
-0.014939
-0.007281
-0.004507
-0.004794
-0.004733
-0.005042
-0.010711
-0.010815
-0.010436
-0.010317
-0.010019
-0.010069
-0.006824
-0.006451
-0.005522
-0.005660
-0.010272
-0.009948
-0.005734
-0.005679
-0.012286
-0.015503
-0.015746
-0.015164
-0.013629
-0.012770
-0.015339
-0.015877
-0.007464
-0.012830
-0.017823
-0.007135
-0.009039
-0.009234
-0.004752
-0.004914
-0.005328
-0.017753
-0.015868
-0.015792
-0.016070
-0.009294
-0.009361
-0.009620
-0.009518
-0.005004
-0.016962
-0.016858
-0.016707
-0.015761
-0.007566
-0.007656
-0.007972
-0.007862
-0.004544
-0.017787
-0.017836
-0.017669
-0.015814
-0.017347
-0.013503
-0.013836
-0.013162
-0.013731
-0.014363
-0.015667
-0.016689
-0.009871
-0.010265
-0.010455
-0.009672
-0.010988
-0.011476
-0.010314
-0.015860
-0.011745
-0.011562
-0.010171
-0.010710
-0.010578
-0.017016
-0.017195
-0.016882
-0.017613
-0.017421
-0.013070
-0.012177
-0.012831
-0.012360
-0.017029
-0.009782
-0.010772
-0.010558
-0.012665
-0.012924
-0.012667
-0.016143
-0.016028
-0.016383
-0.015250
-0.015318
-0.015734
-0.015696
-0.012312
-0.012203
-0.012020
-0.011888
-0.011723
-0.008808
-0.009183
-0.010747
-0.011318
-0.011512
-0.011415
-0.011136
-0.008424
-0.009492
-0.009651
-0.010000
-0.010111
-0.015190
-0.014426
-0.014638
-0.013927
-0.015165
-0.015736
-0.016293
-0.015532
-0.004850
-0.016112
-0.016102
-0.016322
-0.016316
-0.013068
-0.013264
-0.012911
-0.013619
-0.013389
-0.017570
-0.016175
-0.016144
-0.017348
-0.003705
-0.003891
-0.013978
-0.016595
-0.003810
-0.006380
-0.013571
-0.014042
-0.013654
-0.008532
-0.014208
-0.017269
-0.016988
-0.017805
-0.017580
-0.004882
-0.017130
-0.011488
-0.012806
-0.011682
-0.016005
-0.017167
-0.004767
-0.012804
-0.013677
-0.014743
-0.014171
-0.006396
-0.006804
-0.006725
-0.004609
-0.004838
-0.004595
-0.012423
-0.015340
-0.015707
-0.016282
-0.013395
-0.009007
-0.009456
-0.009858
-0.010402
-0.016013
-0.015986
-0.013163
-0.013195
-0.012900
-0.012495
-0.007515
-0.012112
-0.017690
-0.014781
-0.014909
-0.014811
-0.009843
-0.014226
-0.014090
-0.014060
-0.014532
-0.013977
-0.013813
-0.013591
-0.013303
-0.014622
-0.013281
-0.013520
-0.013372
-0.008487
-0.007724
-0.008068
-0.012176
-0.015145
-0.015275
-0.015101
-0.016601
-0.016234
-0.016761
-0.017273
-0.013673
-0.009342
-0.013556
-0.014071
-0.014085
-0.013775
-0.017380
-0.016599
-0.013927
-0.013931
-0.015174
-0.008760
-0.005361
-0.005701
-0.017220
-0.013816
-0.011598
-0.017530
-0.015944
-0.015622
-0.015745
-0.007755
-0.017289
-0.008165
-0.008154
-0.008368
-0.012693
-0.012009
-0.017384
-0.013252
-0.014900
-0.015064
-0.015302
-0.007469
-0.010834
-0.011210
-0.010914
-0.013494
-0.015273
-0.013609
-0.015561
-0.015430
-0.015279
-0.014503
-0.014582
-0.015667
-0.016821
-0.004695
-0.004344
-0.015011
-0.014975
-0.015131
-0.004836
-0.012030
-0.011819
-0.005276
-0.006182
-0.008309
-0.010007
-0.010414
-0.016856
-0.017077
-0.009825
-0.009755
-0.011232
-0.010573
-0.012638
-0.013103
-0.016079
-0.015666
-0.015980
-0.006874
-0.007154
-0.009395
-0.009081
-0.014243
-0.016161
-0.015929
-0.014292
-0.014459
-0.014276
-0.015587
-0.017425
-0.014422
-0.012424
-0.012531
-0.016178
-0.016319
-0.016338
-0.006903
-0.012764
-0.012844
-0.013040
-0.014750
-0.012895
-0.016032
-0.015867
-0.012786
-0.012269
-0.012213
-0.013130
-0.010778
-0.004855
-0.014654
-0.012759
-0.012738
-0.015053
-0.014980
-0.015318
-0.014261
-0.014397
-0.014361
-0.008363
-0.011603
-0.012338
-0.012241
-0.010594
-0.011131
-0.014057
-0.012694
-0.012220
-0.008344
-0.008323
-0.008133
-0.009624
-0.012519
-0.016010
-0.016041
-0.016187
-0.016198
-0.006637
-0.006131
-0.007185
-0.013300
-0.013139
-0.013952
-0.014389
-0.014523
-0.014357
-0.014549
-0.008668
-0.004757
-0.004724
-0.009010
-0.007694
-0.009199
-0.008347
-0.015040
-0.013285
-0.013134
-0.015955
-0.015732
-0.015829
-0.012281
-0.006395
-0.006666
-0.012097
-0.010148
-0.010424
-0.016014
-0.010440
-0.014267
-0.012305
-0.014876
-0.013330
-0.013114
-0.014903
-0.010773
-0.010556
-0.010690
-0.010582
-0.005216
-0.012857
-0.014567
-0.006514
-0.013384
-0.015231
-0.006858
-0.007324
-0.007217
-0.007590
-0.007201
-0.007658
-0.007891
-0.016438
-0.015858
-0.016723
-0.014708
-0.014927
-0.014838
-0.010319
-0.010663
-0.014964
-0.015485
-0.015707
-0.012782
-0.012079
-0.013704
-0.014832
-0.008989
-0.012970
-0.014786
-0.016140
-0.016800
-0.004767
-0.011146
-0.015344
-0.015692
-0.015156
-0.011512
-0.011841
-0.009708
-0.010861
-0.011073
-0.011261
-0.011535
-0.012328
-0.011618
-0.011709
-0.011085
-0.011361
-0.011440
-0.013225
-0.015999
-0.003677
-0.003641
-0.013012
-0.015042
-0.013063
-0.013179
-0.013278
-0.008694
-0.009288
-0.011377
-0.011470
-0.011559
-0.011492
-0.007203
-0.006650
-0.014332
-0.014054
-0.012232
-0.014561
-0.010936
-0.009981
-0.015038
-0.007851
-0.007811
-0.015522
-0.012186
-0.011822
-0.011959
-0.004944
-0.008194
-0.007802
-0.007975
-0.015926
-0.016158
-0.006830
-0.014843
-0.013361
-0.014993
-0.007664
-0.013454
-0.012957
-0.011126
-0.014843
-0.014378
-0.014185
-0.012179
-0.008071
-0.008502
-0.008201
-0.004971
-0.004722
-0.005043
-0.005310
-0.004857
-0.008036
-0.003974
-0.004106
-0.014203
-0.010309
-0.010261
-0.013803
-0.012528
-0.012262
-0.007147
-0.007362
-0.011979
-0.014779
-0.012412
-0.014792
-0.014739
-0.013105
-0.013000
-0.013188
-0.004899
-0.005107
-0.014214
-0.011440
-0.013300
-0.008075
-0.006231
-0.006012
-0.006054
-0.006751
-0.007043
-0.006021
-0.014556
-0.014967
-0.013391
-0.011633
-0.011579
-0.013175
-0.015846
-0.012985
-0.009062
-0.009636
-0.009095
-0.009661
-0.013461
-0.013382
-0.011903
-0.014163
-0.007045
-0.013995
-0.012719
-0.011263
-0.011466
-0.006218
-0.006368
-0.013661
-0.004634
-0.004353
-0.015505
-0.010067
-0.011521
-0.004476
-0.010693
-0.006528
-0.013562
-0.004903
-0.016416
-0.006045
-0.014650
-0.013218
-0.012787
-0.013049
-0.016248
-0.008103
-0.008075
-0.008629
-0.007466
-0.008997
-0.008677
-0.008814
-0.012192
-0.011047
-0.011384
-0.012386
-0.008916
-0.008528
-0.013303
-0.007897
-0.011848
-0.011923
-0.013924
-0.013728
-0.013813
-0.013738
-0.013629
-0.013554
-0.011592
-0.015260
-0.009213
-0.011277
-0.007023
-0.007054
-0.006581
-0.013904
-0.009019
-0.009454
-0.008332
-0.013591
-0.014492
-0.015067
-0.010342
-0.010002
-0.010597
-0.007889
-0.008135
-0.008450
-0.008698
-0.004691
-0.004366
-0.004688
-0.004176
-0.015343
-0.016779
-0.010113
-0.010098
-0.010278
-0.009609
-0.013432
-0.008272
-0.008078
-0.008003
-0.010828
-0.010736
-0.012189
-0.011538
-0.007759
-0.007890
-0.007625
-0.011162
-0.011333
-0.009485
-0.010820
-0.010755
-0.014873
-0.013723
-0.005047
-0.004848
-0.011186
-0.010964
-0.011017
-0.005234
-0.005370
-0.004541
-0.005033
-0.015298
-0.007549
-0.004265
-0.013466
-0.013307
-0.013298
-0.006007
-0.005671
-0.006046
-0.013749
-0.013576
-0.005729
-0.014253
-0.014754
-0.014923
-0.005410
-0.006150
-0.011014
-0.011201
-0.010626
-0.010028
-0.011672
-0.004529
-0.003881
-0.004723
-0.011380
-0.010893
-0.012352
-0.011284
-0.012904
-0.012741
-0.012644
-0.004566
-0.005103
-0.015967
-0.016377
-0.012352
-0.009722
-0.009297
-0.011403
-0.010151
-0.017470
-0.011035
-0.014371
-0.014370
-0.013850
-0.006064
-0.014200
-0.014293
-0.014740
-0.014739
-0.006368
-0.011365
-0.016455
-0.007268
-0.003215
-0.003515
-0.006817
-0.006569
-0.006482
-0.006010
-0.009310
-0.009428
-0.009487
-0.009758
-0.009714
-0.006982
-0.004121
-0.004238
-0.011339
-0.009832
-0.010718
-0.013384
-0.013073
-0.009809
-0.009244
-0.010979
-0.009360
-0.012799
-0.009016
-0.009109
-0.008582
-0.008964
-0.004030
-0.007984
-0.008404
-0.004316
-0.004591
-0.003975
-0.004950
-0.007776
-0.005656
-0.011424
-0.010837
-0.007837
-0.006463
-0.007196
-0.009830
-0.010472
-0.013619
-0.013859
-0.013862
-0.012799
-0.012746
-0.009394
-0.009313
-0.010938
-0.008065
-0.007773
-0.008440
-0.007473
-0.006864
-0.005390
-0.005165
-0.008150
-0.008232
-0.006299
-0.006082
-0.005847
-0.004982
-0.004662
-0.005599
-0.014538
-0.004218
-0.003634
-0.003841
-0.003564
-0.004718
-0.003779
-0.003873
-0.010726
-0.010758
-0.011748
-0.005794
-0.005432
-0.014513
-0.003963
-0.007480
-0.007054
-0.008598
-0.005130
-0.017608
-0.017481
-0.013326
-0.017296
-0.017492
-0.010200
-0.014154
-0.010771
-0.013581
-0.012672
-0.013541
-0.013960
-0.013449
-0.007839
-0.007451
-0.009545
-0.008930
-0.004969
-0.005481
-0.006176
-0.010008
-0.006476
-0.010066
-0.008331
-0.008165
-0.013951
-0.006256
-0.009277
-0.006449
-0.006589
-0.004494
-0.004313
-0.003244
-0.003199
-0.004002
-0.003868
-0.003549
-0.009357
-0.008744
-0.015790
-0.005201
-0.005899
-0.005537
-0.005677
-0.010015
-0.008039
-0.008066
-0.013638
-0.013517
-0.012868
-0.013023
-0.011890
-0.011985
-0.009095
-0.009165
-0.009323
-0.006299
-0.013690
-0.013328
-0.014046
-0.005208
-0.005529
-0.007209
-0.007546
-0.007857
-0.008879
-0.013201
-0.012175
-0.013796
-0.004891
-0.008151
-0.008342
-0.008435
-0.004947
-0.004723
-0.004942
-0.015387
-0.007766
-0.011297
-0.012065
-0.011915
-0.012402
-0.012582
-0.008040
-0.012351
-0.017362
-0.013553
-0.007393
-0.008949
-0.010939
-0.011211
-0.009028
-0.012016
-0.012487
-0.012144
-0.009170
-0.006278
-0.010877
-0.012614
-0.013044
-0.009893
-0.011618
-0.008797
-0.010031
-0.015840
-0.014673
-0.006013
-0.007441
-0.014646
-0.008062
-0.007714
-0.005301
-0.010912
-0.005898
-0.008604
-0.008126
-0.011285
-0.011540
-0.012461
-0.009177
-0.016012
-0.009839
-0.013120
-0.006560
-0.006461
-0.007850
-0.009504
-0.009450
-0.006734
-0.007066
-0.016326
-0.016308
-0.012458
-0.013156
-0.007391
-0.007429
-0.010327
-0.012672
-0.005319
-0.012484
-0.005436
-0.005797
-0.010441
-0.011179
-0.011015
-0.005637
-0.005701
-0.005248
-0.006290
-0.010869
-0.009113
-0.005563
-0.005503
-0.005916
-0.005050
-0.004655
-0.004415
-0.010828
-0.009121
-0.009245
-0.006917
-0.016974
-0.003344
-0.009817
-0.007138
-0.013965
-0.008241
-0.005154
-0.011289
-0.011993
-0.004754
-0.010668
-0.004361
-0.003689
-0.013782
-0.010723
-0.015575
-0.014382
-0.011256
-0.011528
-0.011884
-0.011542
-0.012001
-0.010923
-0.009743
-0.010644
-0.006425
-0.008960
-0.008675
-0.008575
-0.009781
-0.006820
-0.012001
-0.005597
-0.005902
-0.003749
-0.011076
-0.012208
-0.008448
-0.007782
-0.007675
-0.004219
-0.006990
-0.014290
-0.005999
-0.007704
-0.010869
-0.006815
-0.004211
-0.005713
-0.004064
-0.003962
-0.014766
-0.004458
-0.012116
-0.005225
-0.004235
-0.005733
-0.011002
-0.008970
-0.008809
-0.011590
-0.010819
-0.008780
-0.011509
-0.009948
-0.010016
-0.008122
-0.010433
-0.007428
-0.007330
-0.007185
-0.011581
-0.009457
-0.004830
-0.005757
-0.008335
-0.010212
-0.007832
-0.008389
-0.008540
-0.006337
-0.011905
-0.007865
-0.010004
-0.005979
-0.008759
-0.005863
-0.012106
-0.010361
-0.010839
-0.004478
-0.003153
-0.009965
-0.006705
-0.006779
-0.003793
-0.009154
-0.007507
-0.006543
-0.014676
-0.013108
-0.005285
-0.007376
-0.004234
-0.005054
-0.005280
-0.012107
-0.010669
-0.008644
-0.002895
-0.002470
-0.002480
-0.004565
-0.003015
-0.003688
-0.002548
-0.003324
-0.001642
0.001926
0.001367
0.002142
0.000863
0.000633
0.001292
0.001286
0.002867
-0.000075
-0.000072
-0.000398
0.003014
0.003673
0.003856
-0.001230
-0.001692
-0.001158
-0.001622
-0.001297
-0.001003
-0.002035
-0.001617
-0.003071
-0.002525
-0.001520
-0.001326
-0.001175
-0.000977
-0.000869
-0.001181
-0.001672
0.001708
0.001321
0.001582
0.001327
-0.001094
-0.000665
-0.001386
-0.001617
-0.001346
-0.000538
-0.000238
0.002336
0.002101
0.002270
0.002115
-0.002142
-0.001992
-0.002486
0.000795
0.000782
-0.000237
0.000055