# vtk DataFile Version 2.0
Test
ASCII
DATASET POLYDATA
POINTS 1818 float
0.000000 0.000000 0.000000
1.000000 0.000000 0.000000
1.000000 1.000000 0.000000
0.000000 1.000000 0.000000
0.300000 0.330000 0.000000
0.700000 0.680000 0.000000
0.058824 0.000000 0.000000
0.117647 0.000000 0.000000
0.176471 0.000000 0.000000
0.235294 0.000000 0.000000
0.294118 0.000000 0.000000
0.352941 0.000000 0.000000
0.411765 0.000000 0.000000
0.470588 0.000000 0.000000
0.529412 0.000000 0.000000
0.588235 0.000000 0.000000
0.647059 0.000000 0.000000
0.705882 0.000000 0.000000
0.764706 0.000000 0.000000
0.823529 0.000000 0.000000
0.882353 0.000000 0.000000
0.941176 0.000000 0.000000
1.000000 0.058824 0.000000
1.000000 0.117647 0.000000
1.000000 0.176471 0.000000
1.000000 0.235294 0.000000
1.000000 0.294118 0.000000
1.000000 0.352941 0.000000
1.000000 0.411765 0.000000
1.000000 0.470588 0.000000
1.000000 0.529412 0.000000
1.000000 0.588235 0.000000
1.000000 0.647059 0.000000
1.000000 0.705882 0.000000
1.000000 0.764706 0.000000
1.000000 0.823529 0.000000
1.000000 0.882353 0.000000
1.000000 0.941176 0.000000
0.941176 1.000000 0.000000
0.882353 1.000000 0.000000
0.823529 1.000000 0.000000
0.764706 1.000000 0.000000
0.705882 1.000000 0.000000
0.647059 1.000000 0.000000
0.588235 1.000000 0.000000
0.529412 1.000000 0.000000
0.470588 1.000000 0.000000
0.411765 1.000000 0.000000
0.352941 1.000000 0.000000
0.294118 1.000000 0.000000
0.235294 1.000000 0.000000
0.176471 1.000000 0.000000
0.117647 1.000000 0.000000
0.058824 1.000000 0.000000
0.000000 0.941176 0.000000
0.000000 0.882353 0.000000
0.000000 0.823529 0.000000
0.000000 0.764706 0.000000
0.000000 0.705882 0.000000
0.000000 0.647059 0.000000
0.000000 0.588235 0.000000
0.000000 0.529412 0.000000
0.000000 0.470588 0.000000
0.000000 0.411765 0.000000
0.000000 0.352941 0.000000
0.000000 0.294118 0.000000
0.000000 0.235294 0.000000
0.000000 0.176471 0.000000
0.000000 0.117647 0.000000
0.000000 0.058824 0.000000
0.305970 0.335224 0.000000
0.311940 0.340448 0.000000
0.317910 0.345672 0.000000
0.323881 0.350896 0.000000
0.329851 0.356119 0.000000
0.335821 0.361343 0.000000
0.341791 0.366567 0.000000
0.347761 0.371791 0.000000
0.353731 0.377015 0.000000
0.359701 0.382239 0.000000
0.365672 0.387463 0.000000
0.371642 0.392687 0.000000
0.377612 0.397910 0.000000
0.383582 0.403134 0.000000
0.389552 0.408358 0.000000
0.395522 0.413582 0.000000
0.401493 0.418806 0.000000
0.407463 0.424030 0.000000
0.413433 0.429254 0.000000
0.419403 0.434478 0.000000
0.425373 0.439701 0.000000
0.431343 0.444925 0.000000
0.437313 0.450149 0.000000
0.443284 0.455373 0.000000
0.449254 0.460597 0.000000
0.455224 0.465821 0.000000
0.461194 0.471045 0.000000
0.467164 0.476269 0.000000
0.473134 0.481493 0.000000
0.479104 0.486716 0.000000
0.485075 0.491940 0.000000
0.491045 0.497164 0.000000
0.497015 0.502388 0.000000
0.502985 0.507612 0.000000
0.508955 0.512836 0.000000
0.514925 0.518060 0.000000
0.520896 0.523284 0.000000
0.526866 0.528507 0.000000
0.532836 0.533731 0.000000
0.538806 0.538955 0.000000
0.544776 0.544179 0.000000
0.550746 0.549403 0.000000
0.556716 0.554627 0.000000
0.562687 0.559851 0.000000
0.568657 0.565075 0.000000
0.574627 0.570299 0.000000
0.580597 0.575522 0.000000
0.586567 0.580746 0.000000
0.592537 0.585970 0.000000
0.598507 0.591194 0.000000
0.604478 0.596418 0.000000
0.610448 0.601642 0.000000
0.616418 0.606866 0.000000
0.622388 0.612090 0.000000
0.628358 0.617313 0.000000
0.634328 0.622537 0.000000
0.640299 0.627761 0.000000
0.646269 0.632985 0.000000
0.652239 0.638209 0.000000
0.658209 0.643433 0.000000
0.664179 0.648657 0.000000
0.670149 0.653881 0.000000
0.676119 0.659104 0.000000
0.682090 0.664328 0.000000
0.688060 0.669552 0.000000
0.694030 0.674776 0.000000
0.516135 0.080917 0.000000
0.549338 0.042552 0.000000
0.567302 0.088709 0.000000
0.555658 0.563778 0.000000
0.559301 0.571359 0.000000
0.552318 0.570919 0.000000
0.603235 0.047100 0.000000
0.446553 0.448087 0.000000
0.438652 0.443189 0.000000
0.445116 0.440368 0.000000
0.437254 0.190586 0.000000
0.465954 0.201747 0.000000
0.439184 0.213838 0.000000
0.453137 0.228102 0.000000
0.522423 0.410182 0.000000
0.522098 0.390982 0.000000
0.537289 0.398500 0.000000
0.453388 0.527105 0.000000
0.462022 0.524948 0.000000
0.461218 0.533993 0.000000
0.324300 0.374550 0.000000
0.319287 0.386214 0.000000
0.314834 0.375138 0.000000
0.668809 0.628853 0.000000
0.677366 0.632907 0.000000
0.668274 0.639611 0.000000
0.469934 0.529282 0.000000
0.439703 0.436699 0.000000
0.446608 0.432083 0.000000
0.542854 0.633425 0.000000
0.535117 0.647070 0.000000
0.524302 0.633157 0.000000
0.519372 0.648877 0.000000
0.586338 0.611293 0.000000
0.591638 0.624149 0.000000
0.575478 0.621479 0.000000
0.437962 0.035513 0.000000
0.421505 0.085456 0.000000
0.394924 0.044162 0.000000
0.445207 0.955749 0.000000
0.429168 0.919510 0.000000
0.464409 0.914226 0.000000
0.317150 0.400904 0.000000
0.328626 0.395860 0.000000
0.439616 0.884412 0.000000
0.330406 0.381773 0.000000
0.676842 0.602700 0.000000
0.674982 0.614185 0.000000
0.665930 0.611798 0.000000
0.414707 0.535036 0.000000
0.420123 0.526072 0.000000
0.425338 0.533771 0.000000
0.398407 0.375558 0.000000
0.393804 0.363255 0.000000
0.407284 0.365452 0.000000
0.407758 0.523337 0.000000
0.899969 0.377867 0.000000
0.945915 0.378245 0.000000
0.914158 0.409130 0.000000
0.358219 0.436142 0.000000
0.361390 0.425428 0.000000
0.369309 0.432300 0.000000
0.465999 0.075074 0.000000
0.269944 0.367761 0.000000
0.266521 0.352125 0.000000
0.283474 0.357667 0.000000
0.385889 0.083020 0.000000
0.359482 0.060981 0.000000
0.279658 0.346766 0.000000
0.363604 0.104040 0.000000
0.511115 0.503731 0.000000
0.503243 0.499914 0.000000
0.509146 0.494910 0.000000
0.513188 0.475753 0.000000
0.504957 0.474656 0.000000
0.511959 0.464784 0.000000
0.311863 0.447505 0.000000
0.293019 0.442078 0.000000
0.305555 0.431691 0.000000
0.499204 0.464990 0.000000
0.293855 0.459576 0.000000
0.396676 0.236328 0.000000
0.371014 0.247362 0.000000
0.373003 0.229199 0.000000
0.384478 0.261522 0.000000
0.555704 0.523331 0.000000
0.551313 0.515879 0.000000
0.562752 0.515269 0.000000
0.554954 0.506854 0.000000
0.804236 0.611103 0.000000
0.819351 0.593503 0.000000
0.832061 0.615776 0.000000
0.509908 0.485173 0.000000
0.129738 0.481190 0.000000
0.110722 0.443736 0.000000
0.154857 0.452634 0.000000
0.089738 0.485299 0.000000
0.396427 0.153886 0.000000
0.393058 0.115469 0.000000
0.420333 0.126587 0.000000
0.442628 0.413512 0.000000
0.434815 0.404283 0.000000
0.446816 0.400259 0.000000
0.499770 0.482873 0.000000
0.353883 0.235057 0.000000
0.351360 0.254011 0.000000
0.332147 0.240870 0.000000
0.112307 0.405527 0.000000
0.140355 0.392788 0.000000
0.142004 0.423465 0.000000
0.334868 0.263052 0.000000
0.551239 0.594093 0.000000
0.560217 0.601969 0.000000
0.546711 0.604614 0.000000
0.398510 0.570197 0.000000
0.387124 0.557316 0.000000
0.399978 0.555748 0.000000
0.705281 0.743146 0.000000
0.722930 0.758853 0.000000
0.697202 0.758074 0.000000
0.380190 0.572638 0.000000
0.278345 0.431947 0.000000
0.292575 0.428097 0.000000
0.470820 0.540616 0.000000
0.478213 0.533042 0.000000
0.480161 0.543190 0.000000
0.415268 0.299334 0.000000
0.412465 0.313515 0.000000
0.400419 0.297680 0.000000
0.396495 0.317117 0.000000
0.718655 0.732879 0.000000
0.709319 0.677587 0.000000
0.715709 0.670111 0.000000
0.719283 0.682820 0.000000
0.212992 0.453899 0.000000
0.184619 0.470046 0.000000
0.186665 0.440862 0.000000
0.452307 0.386568 0.000000
0.460371 0.397715 0.000000
0.478664 0.456068 0.000000
0.476179 0.462123 0.000000
0.471250 0.456445 0.000000
0.464654 0.388544 0.000000
0.483415 0.461045 0.000000
0.357146 0.449596 0.000000
0.344653 0.443966 0.000000
0.554562 0.459423 0.000000
0.543333 0.457517 0.000000
0.553850 0.449505 0.000000
0.543131 0.445036 0.000000
0.347312 0.459318 0.000000
0.781088 0.538918 0.000000
0.810909 0.534152 0.000000
0.799399 0.553968 0.000000
0.402869 0.534333 0.000000
0.408011 0.546121 0.000000
0.703844 0.670118 0.000000
0.552234 0.794299 0.000000
0.528593 0.795589 0.000000
0.539188 0.770312 0.000000
0.596088 0.518714 0.000000
0.593029 0.508081 0.000000
0.604120 0.510731 0.000000
0.384880 0.468703 0.000000
0.382270 0.455963 0.000000
0.394062 0.458803 0.000000
0.374729 0.466839 0.000000
0.340939 0.294790 0.000000
0.324530 0.290188 0.000000
0.338473 0.279923 0.000000
0.465367 0.336545 0.000000
0.477337 0.352846 0.000000
0.459495 0.350024 0.000000
0.584947 0.516440 0.000000
0.326802 0.302636 0.000000
0.945343 0.420397 0.000000
0.779746 0.749037 0.000000
0.771533 0.774140 0.000000
0.758291 0.749848 0.000000
0.743435 0.765852 0.000000
0.751942 0.297541 0.000000
0.784264 0.292048 0.000000
0.772562 0.330207 0.000000
0.812744 0.305799 0.000000
0.655547 0.494535 0.000000
0.649767 0.472522 0.000000
0.671966 0.480244 0.000000
0.612062 0.502007 0.000000
0.616789 0.515227 0.000000
0.403059 0.898561 0.000000
0.391512 0.946883 0.000000
0.625780 0.504699 0.000000
0.635988 0.491275 0.000000
0.596252 0.650380 0.000000
0.583401 0.655132 0.000000
0.583737 0.644777 0.000000
0.713099 0.416502 0.000000
0.708474 0.388943 0.000000
0.733625 0.389568 0.000000
0.684835 0.406222 0.000000
0.656936 0.416423 0.000000
0.633624 0.425116 0.000000
0.634362 0.400237 0.000000
0.646884 0.740682 0.000000
0.654954 0.726002 0.000000
0.663305 0.741855 0.000000
0.732481 0.441235 0.000000
0.751303 0.460839 0.000000
0.721338 0.462235 0.000000
0.759622 0.437863 0.000000
0.462761 0.363156 0.000000
0.373644 0.622389 0.000000
0.346217 0.613642 0.000000
0.370315 0.594521 0.000000
0.351411 0.640635 0.000000
0.695337 0.690220 0.000000
0.705202 0.700133 0.000000
0.692303 0.700990 0.000000
0.521365 0.516400 0.000000
0.522992 0.510597 0.000000
0.527633 0.513574 0.000000
0.291567 0.329512 0.000000
0.294927 0.318154 0.000000
0.365771 0.366553 0.000000
0.366135 0.358691 0.000000
0.374180 0.368122 0.000000
0.408232 0.327056 0.000000
0.423479 0.328280 0.000000
0.411272 0.339740 0.000000
0.664110 0.670607 0.000000
0.667245 0.662649 0.000000
[...]
POINT_DATA 1818
SCALARS UX float 1
LOOKUP_TABLE default
-0.001096
0.001129
0.000000
-0.000000
-0.000463
0.000387
-0.000968
-0.000839
-0.000710
-0.000579
-0.000449
-0.000318
-0.000186
-0.000053
0.000080
0.000214
0.000348
0.000481
0.000613
0.000744
0.000873
0.001001
0.001130
0.001130
0.001132
0.001133
0.001133
0.001132
0.001127
0.001117
0.001100
0.001072
0.001027
0.000968
0.000883
0.000766
0.000614
0.000384
-0.000000
0.000000
0.000000
0.000000
0.000000
0.000000
0.000000
0.000000
-0.000000
-0.000000
-0.000000
-0.000000
-0.000000
-0.000000
-0.000000
-0.000000
-0.000390
-0.000604
-0.000755
-0.000867
-0.000948
-0.001007
-0.001051
-0.001082
-0.001102
-0.001113
-0.001117
-0.001115
-0.001110
-0.001105
-0.001100
-0.001097
-0.000443
-0.000424
-0.000411
-0.000399
-0.000383
-0.000372
-0.000354
-0.000341
-0.000327
-0.000313
-0.000296
-0.000282
-0.000268
-0.000260
-0.000241
-0.000227
-0.000216
-0.000202
-0.000190
-0.000173
-0.000158
-0.000145
-0.000132
-0.000118
-0.000106
-0.000087
-0.000078
-0.000061
-0.000049
-0.000035
-0.000025
-0.000014
-0.000002
0.000012
0.000030
0.000041
0.000053
0.000069
0.000078
0.000096
0.000104
0.000119
0.000134
0.000145
0.000155
0.000166
0.000175
0.000188
0.000201
0.000212
0.000225
0.000232
0.000247
0.000256
0.000264
0.000280
0.000285
0.000290
0.000305
0.000313
0.000327
0.000335
0.000344
0.000357
0.000363
0.000370
0.000050
0.000126
0.000167
0.000080
0.000093
0.000080
0.000249
-0.000064
-0.000086
-0.000073
-0.000129
-0.000063
-0.000124
-0.000091
0.000087
0.000084
0.000118
-0.000126
-0.000109
-0.000108
-0.000430
-0.000437
-0.000449
0.000376
0.000390
0.000377
-0.000092
-0.000085
-0.000072
0.000066
0.000053
0.000031
0.000024
0.000147
0.000157
0.000127
-0.000127
-0.000164
-0.000224
-0.000015
-0.000035
-0.000018
-0.000439
-0.000416
-0.000043
-0.000415
0.000399
0.000392
0.000376
-0.000203
-0.000194
-0.000182
-0.000190
-0.000205
-0.000174
-0.000220
0.000919
0.001017
0.000947
-0.000345
-0.000341
-0.000323
-0.000064
-0.000545
-0.000553
-0.000517
-0.000244
-0.000303
-0.000526
-0.000295
0.000079
0.000055
0.000069
0.000075
0.000058
0.000071
-0.000441
-0.000483
-0.000458
0.000044
-0.000478
-0.000221
-0.000279
-0.000275
-0.000248
0.000169
0.000159
0.000182
0.000165
0.000653
0.000695
0.000708
0.000069
-0.000828
-0.000877
-0.000781
-0.000912
-0.000221
-0.000229
-0.000167
-0.000085
-0.000104
-0.000079
0.000048
-0.000318
-0.000324
-0.000368
-0.000879
-0.000820
-0.000814
-0.000362
0.000079
0.000097
0.000071
-0.000226
-0.000253
-0.000228
0.000327
0.000342
0.000299
-0.000263
-0.000517
-0.000487
-0.000088
-0.000074
-0.000068
-0.000172
-0.000176
-0.000207
-0.000212
0.000361
0.000424
0.000441
0.000430
-0.000656
-0.000713
-0.000715
-0.000070
-0.000050
0.000000
-0.000004
-0.000015
-0.000043
0.000011
-0.000344
-0.000372
0.000161
0.000137
0.000159
0.000136
-0.000363
0.000637
0.000702
0.000671
-0.000228
-0.000214
0.000425
0.000068
0.000038
0.000055
0.000251
0.000244
0.000267
-0.000281
-0.000290
-0.000264
-0.000303
-0.000347
-0.000386
-0.000354
-0.000051
-0.000022
-0.000062
0.000228
-0.000380
0.001012
0.000459
0.000409
0.000417
0.000370
0.000593
0.000665
0.000640
0.000729
0.000376
0.000365
0.000413
0.000284
0.000293
-0.000063
-0.000037
0.000313
0.000335
0.000165
0.000141
0.000142
0.000507
0.000497
0.000553
0.000445
0.000383
0.000331
0.000332
0.000231
0.000254
0.000257
0.000548
0.000588
0.000522
0.000608
-0.000052
-0.000257
-0.000315
-0.000275
-0.000292
0.000351
0.000366
0.000341
0.000096
0.000099
0.000109
-0.000495
-0.000460
-0.000264
-0.000266
-0.000246
-0.000183
-0.000148
-0.000173
0.000287
0.000289
0.000300
-0.000299
-0.000318
-0.000339
-0.000353
0.000240
0.000248
0.000227
0.000113
0.000139
0.000206
0.000166
-0.000343
-0.000363
-0.000348
-0.000158
-0.000156
-0.000170
-0.000029
-0.000054
-0.000058
-0.000211
-0.000218
-0.000227
-0.000141
0.000314
0.000340
0.000278
0.000296
-0.000344
-0.000248
-0.000042
-0.000039
-0.000026
-0.000056
-0.000601
-0.000559
-0.000566
-0.000473
-0.000495
-0.000494
-0.000196
-0.000182
0.000032
0.000224
0.000235
-0.000406
-0.000388
-0.000367
-0.000424
-0.000451
-0.000418
-0.000339
-0.000343
-0.000458
-0.000015
-0.000030
-0.000030
-0.000007
-0.000302
-0.000285
0.000414
0.000425
0.000404
0.000444
-0.000442
-0.000419
-0.000405
-0.000505
-0.000545
-0.000525
-0.000749
-0.000798
-0.000701
-0.000720
-0.000719
-0.000787
-0.000761
0.000461
0.000447
-0.000534
-0.000075
-0.000060
0.000189
0.000182
0.000174
-0.000053
-0.000355
-0.000371
0.000055
0.000094
0.000075
-0.000252
-0.000243
-0.000235
-0.000243
-0.000327
-0.000329
-0.000300
-0.000354
0.000231
0.000202
0.000186
-0.000953
-0.000991
-0.000907
-0.000692
-0.000611
-0.000635
-0.000650
0.000266
0.000247
0.000110
0.000117
0.000020
0.000002
0.000010
-0.000010
0.000036
0.000031
0.000049
-0.000229
-0.000249
-0.000241
-0.000218
-0.000208
-0.000227
-0.000212
-0.000105
-0.000112
-0.000111
-0.000124
0.000217
0.000165
0.000205
0.000169
0.000795
0.000725
0.000792
0.000884
0.000833
-0.000448
-0.000439
-0.000450
0.000208
0.000222
0.000206
-0.000141
-0.000122
-0.000142
0.000210
0.000227
-0.000120
0.000217
0.000199
0.000189
-0.000019
-0.000003
-0.000033
0.000169
0.000189
0.000187
-0.000316
-0.000328
0.000190
0.000211
-0.000466
-0.000391
-0.000547
-0.000482
-0.000564
0.000114
0.000131
0.000117
0.000133
0.000109
0.000148
0.000173
-0.000952
0.000110
0.000129
0.000087
0.000152
-0.000599
-0.000646
-0.000632
0.000288
0.000279
0.000296
-0.000289
0.000150
0.000368
0.000145
0.000159
0.000272
0.000296
0.000282
-0.000393
-0.000384
-0.000365
0.000151
0.000125
-0.000855
0.000219
0.000237
0.000210
-0.000105
-0.000096
-0.000010
0.000018
0.000026
-0.000071
0.000236
-0.000436
-0.000464
-0.000473
-0.000253
-0.000234
-0.000219
0.000129
0.000139
0.000146
0.000125
0.000047
0.000386
0.000375
-0.000140
-0.000131
-0.000125
-0.000222
-0.000195
-0.000472
-0.000442
-0.000428
-0.000202
0.000067
0.000015
-0.000001
-0.000478
-0.000523
-0.000507
-0.000470
-0.000492
-0.000470
-0.000406
-0.000397
-0.000443
-0.000086
-0.000072
0.000143
-0.000675
-0.000695
0.000152
0.000178
0.000206
-0.000146
0.000183
0.000114
-0.000006
-0.000002
0.000546
0.000591
0.000563
-0.000030
0.000091
0.000093
0.000406
-0.000146
-0.000144
-0.000129
-0.000844
-0.000908
-0.000868
-0.000169
-0.000058
-0.000036
-0.000164
0.000100
0.000087
0.000120
0.000066
0.000777
0.000695
0.000747
0.000308
0.000306
0.000291
-0.000060
-0.000038
-0.000021
-0.000271
-0.000226
0.000095
0.000081
-0.000008
0.000005
0.000100
-0.000411
-0.000414
-0.000018
-0.000025
-0.000484
0.000498
0.000548
0.000511
0.001038
0.000577
0.000305
0.000372
0.000358
-0.000514
0.000057
-0.000145
-0.000120
-0.000118
-0.000100
-0.000118
0.000110
0.000135
0.000319
-0.000513
-0.000495
-0.000377
-0.000406
-0.000390
-0.000116
-0.000092
-0.000109
-0.000300
0.000471
0.000451
0.000479
-0.000083
-0.000071
0.001015
0.000347
0.000323
0.000166
0.000183
0.000172
0.000175
0.000192
0.000201
-0.000179
-0.000281
0.000184
-0.000320
-0.000440
-0.000444
-0.000507
-0.000078
-0.000037
-0.000403
-0.000404
0.000092
0.000232
-0.000815
0.000204
-0.000400
-0.000379
-0.000332
0.000208
0.000493
0.000456
0.000447
0.000421
-0.000091
-0.000116
0.000129
0.000155
0.000159
0.000440
0.000430
0.000413
0.000396
0.001055
0.000985
-0.000303
-0.000332
0.001044
-0.000628
-0.000490
-0.000439
0.000517
0.000515
0.000489
0.000027
0.000016
0.000056
0.000547
0.000870
0.000954
0.000875
0.000992
0.000920
-0.000006
0.000159
0.000120
0.000115
0.000539
0.000570
0.000583
-0.000198
-0.000133
-0.000306
0.000623
-0.000208
-0.000191
-0.000202
-0.000958
-0.000863
-0.000963
0.000677
0.000782
0.000806
0.000853
0.000869
0.000949
0.000770
0.000732
0.000857
0.000844
0.000102
0.000087
-0.001014
-0.000993
-0.000920
0.000056
0.000262
-0.000109
-0.000926
-0.000864
-0.000940
-0.000515
-0.000519
-0.001027
0.000240
-0.000066
-0.000063
-0.000133
-0.000177
-0.000135
-0.000121
0.001001
0.001013
0.000089
0.000153
0.000167
0.000236
0.000235
0.000349
0.000114
0.000085
0.000112
-0.000231
-0.000249
-0.000697
-0.000718
-0.000768
-0.000649
-0.000470
-0.000508
-0.000503
-0.001006
-0.001027
-0.000364
-0.000351
-0.000447
-0.000428
-0.000523
0.000229
0.000253
0.000228
-0.000952
-0.000376
-0.000545
0.000144
0.000138
0.000130
0.000949
0.000856
-0.000552
0.000583
0.000544
0.000555
0.000580
-0.000772
-0.000762
-0.000707
0.000631
-0.000010
0.000779
0.000297
0.000041
-0.000116
-0.000154
0.000102
0.000371
-0.000045
0.000151
0.000182
0.000169
0.000517
0.000450
-0.000306
-0.000087
-0.000076
0.000195
0.000120
0.000544
0.000558
0.000477
0.000631
-0.000441
-0.000424
-0.000104
0.000001
-0.000658
-0.000612
0.000319
0.000252
0.000245
-0.000785
-0.000621
-0.000673
-0.000599
-0.000642
-0.000621
0.000054
-0.000706
-0.000684
-0.000767
-0.000645
-0.000657
0.000024
0.000057
-0.000147
-0.000105
0.000046
-0.000459
-0.000424
0.000093
0.000132
-0.000781
-0.000901
-0.000746
0.000041
0.000022
0.000050
-0.000037
-0.000068
-0.000145
-0.000166
-0.000602
-0.000652
-0.000598
-0.000328
-0.000301
-0.000285
-0.000663
-0.000622
-0.000565
0.000068
0.000236
0.000185
-0.000310
-0.000322
-0.000284
-0.000348
-0.000344
-0.000753
0.000553
0.000510
-0.000423
-0.000433
-0.000473
-0.000479
0.000166
0.000096
-0.000289
0.000940
-0.000141
-0.000143
0.000132
0.000090
0.000032
0.000114
0.000018
-0.000266
-0.000091
-0.000082
-0.000114
-0.000132
-0.000408
-0.000436
-0.000462
-0.000087
-0.000120
-0.000499
0.000262
0.000384
0.000361
-0.000948
-0.000851
-0.000866
0.000101
0.000064
0.000082
-0.000719
0.000892
0.000920
0.000836
0.000813
0.000772
-0.000717
-0.000754
-0.000358
-0.000378
-0.000383
0.000161
0.000511
0.000446
0.000588
-0.000529
-0.000555
-0.000201
-0.000241
-0.000194
-0.000763
-0.000840
-0.000249
0.000063
0.000042
0.000089
-0.000099
-0.000101
-0.000119
0.000464
0.000479
0.000499
-0.000514
0.000724
0.000673
-0.000774
0.000107
0.000142
-0.000670
-0.000762
0.000019
0.000003
0.000299
0.000281
0.000275
-0.000293
-0.000275
0.000325
-0.000269
0.000342
-0.000657
-0.000686
0.000483
0.000500
0.000374
0.000288
-0.000263
0.000591
0.000524
0.000730
0.000489
0.000212
0.000211
0.000233
0.000232
0.000154
0.000071
0.000043
0.000123
-0.000230
-0.000151
-0.000258
-0.000004
0.000022
0.000112
0.000163
0.000006
-0.000016
-0.000007
0.000046
0.000032
0.000058
-0.000118
-0.000086
-0.000089
-0.000381
0.000522
0.000551
0.000560
-0.000535
-0.000552
-0.000599
-0.000198
-0.000276
-0.000244
-0.000590
-0.000044
-0.000300
-0.000021
0.000056
-0.000712
-0.000672
0.000772
0.000019
0.000667
0.000598
-0.000092
-0.000114
0.000227
0.000191
-0.000281
-0.000735
0.000236
-0.000272
-0.000654
-0.000641
-0.000238
-0.000247
-0.000261
0.000411
0.000386
0.000390
0.000472
0.000466
0.000479
0.000401
0.000443
-0.000574
-0.000039
-0.000038
-0.000578
-0.000988
0.000330
0.000335
0.000315
0.000694
0.000569
0.000513
0.000064
0.000324
0.000121
-0.000505
-0.000472
-0.000471
-0.000629
-0.000989
-0.001003
-0.000409
0.000148
-0.000408
0.000070
0.000061
-0.000095
-0.000183
-0.000142
-0.000141
0.000461
0.000612
0.000493
0.000567
0.000314
0.000555
-0.000390
-0.000340
0.000737
-0.000222
-0.000259
-0.000238
-0.000226
-0.000311
0.000669
0.000470
0.000508
0.000418
0.000394
0.000380
-0.000557
-0.000145
0.000279
0.000398
0.000299
-0.000045
-0.000012
-0.000022
0.000848
0.000918
0.000616
-0.000330
-0.000310
0.000188
0.000187
0.000309
0.000647
0.000576
0.000616
-0.000243
-0.000222
-0.000438
-0.000429
0.000227
-0.000404
-0.000373
0.000268
-0.000427
0.000268
0.000255
0.000227
0.000281
0.000303
0.000455
0.000430
-0.000188
-0.000209
-0.000160
-0.000175
-0.000173
-0.000190
0.000279
0.000224
-0.000787
0.000316
0.000269
0.000298
0.000695
0.000691
0.000206
0.000260
0.000233
0.000206
0.000197
0.000002
-0.000512
-0.000514
-0.000569
-0.000250
-0.000252
0.000515
0.000403
0.000381
0.000321
0.000319
0.000212
0.000130
0.000105
0.000399
0.000410
0.000396
-0.000378
-0.000391
-0.000371
0.000102
-0.000456
-0.000476
-0.000411
0.000265
-0.000525
-0.000542
-0.000538
0.000128
0.000296
-0.000340
0.000546
0.000601
0.000579
0.000410
0.000534
0.000638
-0.000323
0.000024
-0.000011
-0.000059
-0.000033
-0.000021
-0.000065
0.000059
0.000333
0.000413
0.000245
0.000078
0.000042
0.000426
0.000433
0.000396
0.000272
0.000232
-0.000469
-0.000463
0.000263
0.000399
-0.000353
0.000450
0.000447
0.000371
0.000359
-0.000340
-0.001044
-0.000526
0.000453
0.000421
0.000301
0.000248
0.000293
0.000345
0.000460
0.000759
0.000245
0.000342
0.000331
0.000326
-0.000200
0.000094
0.000155
0.000712
0.000075
0.000112
0.000335
0.000355
0.000127
0.000085
0.000027
0.000002
0.000035
-0.000131
0.000260
0.000234
-0.000295
-0.000305
-0.000310
-0.000136
0.000037
-0.001005
0.000299
0.000316
0.000262
0.000332
0.000373
-0.000216
0.000344
-0.000501
0.000182
-0.000054
-0.000319
0.000061
0.000061
0.000075
-0.000484
-0.000096
-0.000475
-0.000733
-0.000170
0.000295
0.000272
-0.000536
-0.000386
-0.000377
0.000355
-0.000010
0.000002
-0.000266
0.000167
0.000412
0.000425
-0.000200
-0.000235
-0.000221
0.000087
-0.000224
0.000405
0.000372
-0.000019
0.000084
0.000067
0.000070
-0.000065
-0.000063
-0.000325
0.000302
0.000827
0.000848
0.000250
-0.000357
0.000329
-0.000286
-0.000279
0.000261
-0.000274
-0.000597
0.000608
0.000262
-0.000307
-0.000320
0.000327
0.000022
0.000026
0.000779
0.000035
0.000007
0.000004
-0.000588
-0.000571
0.000249
0.000232
-0.000270
-0.000287
-0.000283
0.000927
-0.000302
-0.000029
-0.000022
0.000466
0.000174
-0.000373
-0.000381
-0.000034
-0.000176
-0.000198
0.000159
0.000066
0.000054
0.000227
0.000246
0.000259
0.000270
0.000241
0.000190
-0.000703
-0.000137
-0.000160
-0.000269
-0.000322
0.000033
0.000062
0.000099
0.000130
0.000098
-0.000424
0.000025
0.000277
0.000301
-0.000163
-0.000155
-0.000144
-0.000132
0.000049
-0.000169
-0.000173
0.000305
0.000312
0.000329
0.000034
0.000030
-0.000169
-0.000175
-0.000194
0.000132
0.000190
0.000366
0.000079
-0.000564
-0.000587
-0.000304
-0.000126
-0.000121
-0.000149
-0.000218
-0.000241
-0.000559
-0.000598
0.000029
-0.000039
-0.000019
0.000014
0.000010
-0.000005
0.000005
-0.000278
-0.000282
0.000197
-0.000049
-0.000396
-0.000902
-0.000841
-0.000827
0.000014
-0.000106
-0.000087
0.000194
0.000211
0.000205
-0.000172
-0.000153
-0.000218
-0.000230
-0.000192
-0.000194
-0.000229
0.000160
0.000162
-0.000079
-0.000168
0.000351
0.000344
-0.000099
-0.000189
-0.000193
-0.000356
-0.000336
-0.000348
-0.000160
-0.000143
0.000235
0.000217
-0.000094
-0.000079
-0.000025
0.000310
0.000333
0.000020
-0.000063
-0.000170
0.000584
0.000685
0.000153
-0.000045
-0.000085
-0.000102
-0.000015
-0.000004
-0.000262
0.000072
0.000060
0.000306
-0.000401
0.000318
-0.000099
0.000663
0.000634
-0.000272
-0.000267
0.000255
0.000251
0.000210
0.000191
0.000400
0.000353
0.000031
0.000129
0.000365
-0.000456
0.000788
0.000719
0.000788
-0.000475
0.000394
0.000685
-0.000054
0.000153
0.000131
0.000332
0.000777
-0.000552
-0.000524
-0.000376
-0.000608
0.000716
0.000288
0.000313
0.000261
0.000137
-0.000601
0.000787
-0.000326
-0.000185
-0.000160
-0.000085
0.000028
-0.000048
0.000205
0.000067
0.000085
0.000091
-0.000219
-0.000900
0.000389
0.000404
-0.000368
-0.000139
0.000099
0.000909
0.001020
0.001038
0.000211
0.000278
0.000400
0.000367
-0.000291
0.000410
-0.000371
-0.000282
0.000144
0.000263
0.000251
0.000119
0.000558
0.000388
-0.000193
-0.000141
-0.000140
0.000681
0.000641
0.000190
0.000438
-0.000072
-0.000097
-0.000108
-0.000004
0.000015
-0.000002
0.000013
0.000077
-0.000182
0.000438
0.000622
-0.000351
-0.000051
-0.000631
-0.000495
0.000519
0.000634
0.000608
-0.000147
-0.000152
-0.000555
0.000511
0.000500
-0.000102
0.000209
0.000032
-0.000029
-0.000693
-0.000014
0.000167
0.000110
0.000513
0.000617
0.000403
0.000314
0.000313
-0.001036
-0.000473
-0.000062
-0.000030
-0.000242
0.000773
-0.000289
-0.000010
-0.000019
-0.000545
0.000883
0.000260
0.000160
0.000052
0.000194
0.000271
-0.000051
0.000489
-0.000022
-0.000125
-0.000125
0.000482
-0.000582
0.000701
0.000017
0.000243
-0.000474
-0.000410
-0.000002
0.000647
0.000527
-0.000256
-0.000271
-0.000592
0.000417
-0.000744
-0.000813
-0.000841
0.000016
-0.000205
0.000363
-0.000175
0.000272
0.000460
0.000434
0.000282
-0.000076
-0.000111
-0.000430
0.000741
0.000678
0.000105
0.000112
0.000046
0.000048
-0.000343
-0.000368
0.000122
-0.000363
-0.000341
-0.000359
-0.000194
-0.000404
0.000407
0.000529
0.000292
0.000474
-0.000556
0.000825
0.000723
-0.000663
-0.000077
-0.000096
0.000445
0.000363
-0.000046
0.000185
0.000392
-0.000264
0.000493
-0.000002
-0.000501
0.000281
0.000418
0.000174
0.000172
-0.000113
-0.000273
0.000284
0.000289
0.000303
-0.000282
0.000148
0.000202
-0.000403
-0.000618
0.000393
0.000088
-0.000417
-0.000208
0.000352
0.000324
-0.000028
-0.000031
-0.000124
0.000883
0.000957
0.000156
0.000166
0.000007
-0.000373
0.000691
-0.000071
-0.000301
-0.000306
0.000280
0.000223
-0.000166
0.000270
-0.000187
-0.000378
0.000337
-0.000189
-0.000174
-0.000313
-0.000166
0.000194
0.000204
-0.000140
0.000286
-0.000576
0.000277
-0.000220
-0.000242
0.000018
0.000127
0.000141
0.000114
-0.000136
-0.000156
-0.000304
0.000233
-0.000231
-0.000157
0.000031
0.000033
-0.000064
-0.000065
-0.000237
0.000015
0.000025
-0.000275
0.000280
-0.000027
0.000382
0.000459
0.000211
-0.000563
-0.000541
-0.000256
-0.000046
0.000024
-0.000055
-0.000051
-0.000335
-0.000332
-0.000046
0.000109
0.000176
0.000220
0.000343
-0.000148
0.000238
-0.000064
-0.000598
-0.000086
0.000349
-0.000381
0.000130
-0.000181
0.000038
-0.000018
-0.000033
-0.000458
0.000034
-0.000015
-0.000013
0.000264
-0.000330
-0.000160
-0.000108
0.000203
0.000161
-0.000000
-0.000206
SCALARS UY float 1
LOOKUP_TABLE default
-0.000000
-0.000000
-0.005000
-0.005000
-0.001694
-0.003545
-0.000000
-0.000000
-0.000000
-0.000000
-0.000000
-0.000000
-0.000000
-0.000000
-0.000000
-0.000000
-0.000000
-0.000000
-0.000000
-0.000000
-0.000000
-0.000000
-0.000298
-0.000595
-0.000891
-0.001186
-0.001478
-0.001767
-0.002053
-0.002334
-0.002612
-0.002883
-0.003152
-0.003420
-0.003686
-0.003960
-0.004244
-0.004567
-0.005000
-0.005000
-0.005000
-0.005000
-0.005000
-0.005000
-0.005000
-0.005000
-0.005000
-0.005000
-0.005000
-0.005000
-0.005000
-0.005000
-0.005000
-0.005000
-0.004586
-0.004265
-0.003971
-0.003698
-0.003428
-0.003158
-0.002887
-0.002614
-0.002337
-0.002058
-0.001775
-0.001487
-0.001195
-0.000899
-0.000601
-0.000301
-0.001727
-0.001756
-0.001790
-0.001817
-0.001847
-0.001873
-0.001907
-0.001934
-0.001961
-0.001987
-0.002015
-0.002049
-0.002081
-0.002102
-0.002135
-0.002163
-0.002189
-0.002218
-0.002246
-0.002278
-0.002306
-0.002333
-0.002360
-0.002390
-0.002421
-0.002442
-0.002472
-0.002502
-0.002521
-0.002556
-0.002584
-0.002610
-0.002643
-0.002666
-0.002697
-0.002721
-0.002746
-0.002776
-0.002798
-0.002831
-0.002853
-0.002883
-0.002906
-0.002937
-0.002963
-0.002991
-0.003015
-0.003044
-0.003070
-0.003097
-0.003125
-0.003146
-0.003170
-0.003202
-0.003228
-0.003254
-0.003280
-0.003306
-0.003330
-0.003357
-0.003384
-0.003408
-0.003433
-0.003463
-0.003484
-0.003509
-0.000418
-0.000220
-0.000459
-0.002998
-0.003033
-0.003030
-0.000244
-0.002313
-0.002288
-0.002275
-0.000981
-0.001041
-0.001101
-0.001177
-0.002129
-0.002029
-0.002069
-0.002796
-0.002786
-0.002833
-0.001971
-0.002027
-0.001967
-0.003250
-0.003272
-0.003299
-0.002810
-0.002255
-0.002233
-0.003345
-0.003413
-0.003343
-0.003422
-0.003234
-0.003298
-0.003285
-0.000183
-0.000439
-0.000226
-0.004828
-0.004680
-0.004660
-0.002101
-0.002082
-0.004532
-0.002011
-0.003119
-0.003177
-0.003165
-0.002828
-0.002784
-0.002825
-0.001931
-0.001868
-0.001882
-0.002767
-0.001907
-0.001898
-0.002059
-0.002302
-0.002249
-0.002287
-0.000387
-0.001904
-0.001821
-0.001854
-0.000425
-0.000312
-0.001795
-0.000532
-0.002606
-0.002591
-0.002563
-0.002466
-0.002459
-0.002409
-0.002340
-0.002303
-0.002255
-0.002409
-0.002395
-0.001213
-0.001267
-0.001174
-0.001341
-0.002713
-0.002675
-0.002672
-0.002629
-0.003125
-0.003027
-0.003133
-0.002514
-0.002438
-0.002243
-0.002304
-0.002441
-0.000789
-0.000592
-0.000650
-0.002136
-0.002087
-0.002069
-0.002501
-0.001202
-0.001298
-0.001230
-0.002053
-0.001998
-0.002152
-0.001343
-0.003147
-0.003187
-0.003200
-0.003005
-0.002935
-0.002931
-0.003861
-0.003929
-0.003938
-0.003012
-0.002244
-0.002230
-0.002868
-0.002830
-0.002883